********************************************************************************
*                       GENERAL UTILITY LATTICE PROGRAM                        *
*                                 Julian Gale                                  *
*                       Curtin Institute for Computation                       *
*                    School of Molecular and Life Sciences                     *
*                    Curtin University, Western Australia                      *
********************************************************************************
* Version = 5.2.0 * Last modified =  10th September 2020                       *
********************************************************************************
* Zirconia doped with calcium                                                  *
*  optimise     - perform optimisation run                                     *
*  conp         - constant pressure calculation                                *
*  property     - calculate properties for final geometry                      *
*  defect       - perform defect calculation after bulk run                    *
*  distance     - calculate distances                                          *
*  compare      - compare initial and final structures                         *
********************************************************************************
* Zirconia doped with calcium                                                  *
********************************************************************************


  Job Started  at 12:37.27  6th October    2020                               

  Number of CPUs =     1


  Total number of configurations input =      1

********************************************************************************
*  Input for Configuration =   1 : ZrO2                                        *
********************************************************************************

  Formula = ZrO2                                                        

  Number of irreducible atoms/shells =       4


  Total number atoms/shells =       6

  Dimensionality = 3               :  Bulk   


  Symmetry :

  Crystal family                   :  Cubic       
  Crystal class  (Groth - 1921)    :  Cubic Hexakisoctahedral              

  Space group (centrosymmetric)    :  F M 3 M         

  Patterson group                  :  F m -3 m 

  Cartesian lattice vectors (Angstroms) :

        0.000000    2.535000    2.535000
        2.535000    0.000000    2.535000
        2.535000    2.535000    0.000000

  Primitive cell parameters :            Full cell parameters :

  a =   3.5850    alpha =  60.0000       a =   5.0700    alpha =  90.0000
  b =   3.5850    beta  =  60.0000       b =   5.0700    beta  =  90.0000
  c =   3.5850    gamma =  60.0000       c =   5.0700    gamma =  90.0000

  Initial volumes (Angstroms**3):

  Primitive cell =          32.580961    Full cell =         130.323843

  Temperature of configuration =   0.00     K 

  Pressure of configuration =         0.000 GPa 

  Fractional coordinates of asymmetric unit :

--------------------------------------------------------------------------------
   No.  Atomic       x           y          z         Charge      Occupancy
        Label      (Frac)      (Frac)     (Frac)        (e)         (Frac)  
--------------------------------------------------------------------------------
      1 Zr    c    0.000000    0.000000    0.000000     2.65000    1.000000    
      2 O     c    0.250000    0.250000    0.250000     0.07700    1.000000    
      3 Zr    s    0.000000    0.000000    0.000000     1.35000    1.000000    
      4 O     s    0.250000    0.250000    0.250000    -2.07700    1.000000    
--------------------------------------------------------------------------------


  Constraints : 

--------------------------------------------------------------------------------
  Constraint no.      Unconstrained     Constrained    Coefficient    Offset
                         Variable         Variable
--------------------------------------------------------------------------------
           1              Strain 1        Strain 2       1.00000      0.0000
           2              Strain 1        Strain 3       1.00000      0.0000
--------------------------------------------------------------------------------


  Distance calculation :


  Cutoff for distances  =      4.000000 Angstroms

--------------------------------------------------------------------------------
  Asymmetric unit site  Full lattice sites    No.  Distance      No.  Distance
      No.   At.No.            At.No.                (Angs)             (Angs) 
--------------------------------------------------------------------------------
       1   Zr    core        Zr    core        12    3.5850
                             Zr    shell       12    3.5850
                             O     core         8    2.1954
                             O     shell        8    2.1954
--------------------------------------------------------------------------------
       2   O     core        Zr    core         4    2.1954
                             Zr    shell        4    2.1954
                             O     core         6    2.5350       12    3.5850
                             O     shell        6    2.5350       12    3.5850
--------------------------------------------------------------------------------
       3   Zr    shell       Zr    core        12    3.5850
                             Zr    shell       12    3.5850
                             O     core         8    2.1954
                             O     shell        8    2.1954
--------------------------------------------------------------------------------
       4   O     shell       Zr    core         4    2.1954
                             Zr    shell        4    2.1954
                             O     core         6    2.5350       12    3.5850
                             O     shell        6    2.5350       12    3.5850
--------------------------------------------------------------------------------



********************************************************************************
*  General input information                                                   *
********************************************************************************

  Species output for all configurations : 

--------------------------------------------------------------------------------
  Species    Type    Atomic    Atomic    Charge       Radii (Angs)     Library
                     Number     Mass       (e)     Cova   Ionic  VDW   Symbol
--------------------------------------------------------------------------------
    Zr       Core       40      91.22   2.650000   1.560  0.000  2.330          
    Zr       Shell      40       0.00   1.350000   1.560  0.000  2.330          
    O        Core        8      16.00   0.077000   0.730  0.000  1.360          
    O        Shell       8       0.00  -2.077000   0.730  0.000  1.360          
--------------------------------------------------------------------------------


  Lattice summation method               =    Ewald          (3-D)
                                         =    Parry          (2-D)
                                         =    Saunders et al (1-D)
  Accuracy factor for lattice sums       =   12.000


  Analytic derivatives to be used

  Time limit = Infinity

  Maximum range for interatomic potentials =    100000.000000 Angstroms

  General interatomic potentials :

--------------------------------------------------------------------------------
Atom  Types   Potential      Parameter       Value         Units   Cutoffs(Ang)
  1     2                                                            Min /  Max 
--------------------------------------------------------------------------------
O    s Zr   s Buckingham    Buckingham A     985.86900    eV        0.000 12.000
                            Buckingham rho  0.37600000    Ang       
                            Buckingham C     0.0000000    eV*Ang^6  
--------------------------------------------------------------------------------
O    s O    s Buckingham    Buckingham A     22764.300    eV        0.000 12.000
                            Buckingham rho  0.14900000    Ang       
                            Buckingham C     27.890000    eV*Ang^6  
--------------------------------------------------------------------------------
Zr   c Zr   s Spring (c-s)  Spring k 2       169.61700    eV*Ang^-2 0.000  0.800
                            Spring k 4       0.0000000    eV*Ang^-4 
--------------------------------------------------------------------------------
O    c O    s Spring (c-s)  Spring k 2       27.290000    eV*Ang^-2 0.000  0.800
                            Spring k 4       0.0000000    eV*Ang^-4 
--------------------------------------------------------------------------------

********************************************************************************
*  Output for configuration   1 : ZrO2                                         *
********************************************************************************


  Components of energy : 

--------------------------------------------------------------------------------
  Interatomic potentials     =          22.43756329 eV    
  Monopole - monopole (real) =         -15.67991073 eV    
  Monopole - monopole (recip)=        -116.52038266 eV    
  Monopole - monopole (total)=        -132.20029339 eV    
--------------------------------------------------------------------------------
  Total lattice energy : 
    Primitive unit cell      =        -109.76273010 eV    
    Non-primitive unit cell  =        -439.05092039 eV    
--------------------------------------------------------------------------------
  Total lattice energy (in kJmol-1): 
    Primitive unit cell      =          -10590.4256 kJ/(mole unit cells)
    Non-primitive unit cell  =          -42361.7023 kJ/(mole unit cells)
--------------------------------------------------------------------------------


  Number of variables =        1

  Maximum number of calculations  =          1000
  Maximum Hessian update interval =            10
  Maximum step size               =   1.000000000
  Maximum parameter tolerance     =   0.000010000
  Maximum function  tolerance     =   0.000010000
  Maximum gradient  tolerance     =   0.001000000
  Maximum gradient  component     =   0.010000000

  Symmetry constrained optimisation

  Symmetry used for second derivatives

  Cell parameters to be optimised using strains

  Newton-Raphson optimiser to be used

  BFGS hessian update to be used

  Lower half triangular hessian to be used

  Start of bulk optimisation :

  Cycle:      0 Energy:      -109.762730  Gnorm:      0.588311  CPU:    0.013
  ** Hessian calculated **
  Cycle:      1 Energy:      -109.763059  Gnorm:      0.000316  CPU:    0.018


  **** Optimisation achieved ****


  Final energy =    -109.76305939 eV
  Final Gnorm  =       0.00000099

  Components of energy : 

--------------------------------------------------------------------------------
  Interatomic potentials     =          22.28919976 eV    
  Monopole - monopole (real) =         -15.66235280 eV    
  Monopole - monopole (recip)=        -116.38990634 eV    
  Monopole - monopole (total)=        -132.05225914 eV    
--------------------------------------------------------------------------------
  Total lattice energy : 
    Primitive unit cell      =        -109.76305939 eV    
    Non-primitive unit cell  =        -439.05223754 eV    
--------------------------------------------------------------------------------
  Total lattice energy (in kJmol-1): 
    Primitive unit cell      =          -10590.4573 kJ/(mole unit cells)
    Non-primitive unit cell  =          -42361.8294 kJ/(mole unit cells)
--------------------------------------------------------------------------------

  Final asymmetric unit coordinates :

--------------------------------------------------------------------------------
   No.  Atomic        x           y           z         Radius
        Label       (Frac)      (Frac)      (Frac)       (Angs) 
--------------------------------------------------------------------------------
     1  Zr    c     0.000000    0.000000    0.000000    0.000000
     2  O     c     0.250000    0.250000    0.250000    0.000000
     3  Zr    s     0.000000    0.000000    0.000000    0.000000
     4  O     s     0.250000    0.250000    0.250000    0.000000
--------------------------------------------------------------------------------

  Final Cartesian lattice vectors (Angstroms) :

        0.000000    2.537842    2.537842
        2.537842    0.000000    2.537842
        2.537842    2.537842    0.000000


  Final cell parameters and derivatives :

--------------------------------------------------------------------------------
       a            3.589050 Angstrom     dE/de1(xx)    -0.000001 eV/strain
       b            3.589050 Angstrom     dE/de2(yy)     0.000000 eV/strain
       c            3.589050 Angstrom     dE/de3(zz)     0.000000 eV/strain
       alpha       60.000000 Degrees      dE/de4(yz)     0.000000 eV/strain
       beta        60.000000 Degrees      dE/de5(xz)     0.000000 eV/strain
       gamma       60.000000 Degrees      dE/de6(xy)     0.000000 eV/strain
--------------------------------------------------------------------------------

  Primitive cell volume =            32.690656 Angs**3

  Density of cell =      6.259124 g/cm**3

  Non-primitive lattice parameters :

  a    =     5.075684  b   =     5.075684  c    =     5.075684
  alpha=    90.000000  beta=    90.000000  gamma=    90.000000

  Non-primitive cell volume =           130.762624 Angs**3


  Final internal derivatives :

--------------------------------------------------------------------------------
   No.  Atomic          a             b             c           Radius
        Label          (eV)          (eV)          (eV)        (eV/Angs)
--------------------------------------------------------------------------------
      1 Zr    c       0.000000      0.000000      0.000000      0.000000
      2 O     c       0.000000      0.000000      0.000000      0.000000
      3 Zr    s       0.000000      0.000000      0.000000      0.000000
      4 O     s       0.000000      0.000000      0.000000      0.000000
--------------------------------------------------------------------------------
  Maximum abs         0.000000      0.000000      0.000000      0.000000
--------------------------------------------------------------------------------

  Comparison of initial and final structures : 

--------------------------------------------------------------------------------
  Parameter   Initial value   Final value   Difference    Units      Percent
--------------------------------------------------------------------------------
    Volume       130.323843    130.762624     0.438781    Angs**3      0.34
    a              5.070000      5.075684     0.005684    Angstroms    0.11
    b              5.070000      5.075684     0.005684    Angstroms    0.11
    c              5.070000      5.075684     0.005684    Angstroms    0.11
    alpha         90.000000     90.000000     0.000000    Degrees      0.00
    beta          90.000000     90.000000     0.000000    Degrees      0.00
    gamma         90.000000     90.000000     0.000000    Degrees      0.00
      1 x          0.000000      0.000000     0.000000    Fractional   0.00
      1 y          0.000000      0.000000     0.000000    Fractional   0.00
      1 z          0.000000      0.000000     0.000000    Fractional   0.00
      2 x          0.250000      0.250000     0.000000    Fractional   0.00
      2 y          0.250000      0.250000     0.000000    Fractional   0.00
      2 z          0.250000      0.250000     0.000000    Fractional   0.00
      3 x          0.000000      0.000000     0.000000    Fractional   0.00
      3 y          0.000000      0.000000     0.000000    Fractional   0.00
      3 z          0.000000      0.000000     0.000000    Fractional   0.00
      4 x          0.250000      0.250000     0.000000    Fractional   0.00
      4 y          0.250000      0.250000     0.000000    Fractional   0.00
      4 z          0.250000      0.250000     0.000000    Fractional   0.00
--------------------------------------------------------------------------------


  Distance calculation :


  Cutoff for distances  =      4.000000 Angstroms

--------------------------------------------------------------------------------
  Asymmetric unit site  Full lattice sites    No.  Distance      No.  Distance
      No.   At.No.            At.No.                (Angs)             (Angs) 
--------------------------------------------------------------------------------
       1   Zr    core        Zr    core        12    3.5891
                             Zr    shell       12    3.5891
                             O     core         8    2.1978
                             O     shell        8    2.1978
--------------------------------------------------------------------------------
       2   O     core        Zr    core         4    2.1978
                             Zr    shell        4    2.1978
                             O     core         6    2.5378       12    3.5891
                             O     shell        6    2.5378       12    3.5891
--------------------------------------------------------------------------------
       3   Zr    shell       Zr    core        12    3.5891
                             Zr    shell       12    3.5891
                             O     core         8    2.1978
                             O     shell        8    2.1978
--------------------------------------------------------------------------------
       4   O     shell       Zr    core         4    2.1978
                             Zr    shell        4    2.1978
                             O     core         6    2.5378       12    3.5891
                             O     shell        6    2.5378       12    3.5891
--------------------------------------------------------------------------------



  Born effective charge tensors : 

-------------------------------------------------------------------------------
  Atom             x           y             z
-------------------------------------------------------------------------------
    1 Zr    x       3.6770      0.0000      0.0000
            y       0.0000      3.6770      0.0000
            z       0.0000      0.0000      3.6770
-------------------------------------------------------------------------------
    2 O     x      -1.8385      0.0000      0.0000
            y       0.0000     -1.8385     -0.0000
            z       0.0000     -0.0000     -1.8385
-------------------------------------------------------------------------------




  Elastic Constant Matrix: (Units=GPa)

-------------------------------------------------------------------------------
  Indices      1         2         3         4         5         6    
-------------------------------------------------------------------------------
       1    616.2933  119.6612  119.6612   -0.0000   -0.0000   -0.0000
       2    119.6612  616.2933  119.6612   -0.0000   -0.0000   -0.0000
       3    119.6612  119.6612  616.2933   -0.0000   -0.0000   -0.0000
       4     -0.0000   -0.0000   -0.0000  100.8598    0.0000   -0.0000
       5     -0.0000   -0.0000   -0.0000    0.0000  100.8598    0.0000
       6     -0.0000   -0.0000   -0.0000   -0.0000    0.0000  100.8598
-------------------------------------------------------------------------------


  Elastic Compliance Matrix: (Units=1/GPa)

-------------------------------------------------------------------------------
  Indices      1         2         3         4         5         6    
-------------------------------------------------------------------------------
       1    0.001732 -0.000282 -0.000282  0.000000  0.000000  0.000000
       2   -0.000282  0.001732 -0.000282 -0.000000  0.000000  0.000000
       3   -0.000282 -0.000282  0.001732  0.000000  0.000000  0.000000
       4    0.000000 -0.000000  0.000000  0.009915 -0.000000  0.000000
       5    0.000000  0.000000  0.000000 -0.000000  0.009915 -0.000000
       6    0.000000  0.000000  0.000000  0.000000 -0.000000  0.009915
-------------------------------------------------------------------------------

  Mechanical properties :

-------------------------------------------------------------------------------
  Convention :                    Reuss         Voigt         Hill
-------------------------------------------------------------------------------
  Bulk  Modulus (GPa)     =     285.20524     285.20524     285.20524
  Shear Modulus (GPa)     =     132.28031     159.84228     146.06129
-------------------------------------------------------------------------------
  Velocity S-wave (km/s)  =       4.59717       5.05346       4.83071
  Velocity P-wave (km/s)  =       8.58749       8.92280       8.75675
-------------------------------------------------------------------------------
  Compressibility (1/GPa) =    0.00350625
-------------------------------------------------------------------------------
  Stress axis :                     x             y             z
-------------------------------------------------------------------------------
  Youngs Moduli (GPa)     =     577.38110     577.38110     577.38110
-------------------------------------------------------------------------------
  Poissons Ratio (x)      =                     0.16259       0.16259
  Poissons Ratio (y)      =       0.16259                     0.16259
  Poissons Ratio (z)      =       0.16259       0.16259
-------------------------------------------------------------------------------


  Piezoelectric Strain Matrix: (Units=C/m**2)

-------------------------------------------------------------------------------
  Indices      1         2         3         4         5         6    
-------------------------------------------------------------------------------
       x    -0.00000   0.00000   0.00000   0.00000   0.00000   0.00000
       y    -0.00000  -0.00000  -0.00000   0.00000   0.00000   0.00000
       z    -0.00000  -0.00000  -0.00000   0.00000   0.00000   0.00000
-------------------------------------------------------------------------------


  Piezoelectric Stress Matrix: (Units=10**-11 C/N)

-------------------------------------------------------------------------------
  Indices      1         2         3         4         5         6    
-------------------------------------------------------------------------------
       x    -0.00000   0.00000   0.00000   0.00000   0.00000   0.00000
       y    -0.00000  -0.00000  -0.00000   0.00000   0.00000   0.00000
       z     0.00000   0.00000  -0.00000   0.00000   0.00000   0.00000
-------------------------------------------------------------------------------


  Static dielectric constant tensor : 

-------------------------------------------------------------------------------
              x         y         z
-------------------------------------------------------------------------------
       x    26.88485   0.00000   0.00000
       y     0.00000  26.88485   0.00000
       z     0.00000   0.00000  26.88485
--------------------------------------------------------------------------------

  High frequency dielectric constant tensor : 

-------------------------------------------------------------------------------
              x         y         z
-------------------------------------------------------------------------------
       x     2.63099   0.00000   0.00000
       y     0.00000   2.63099   0.00000
       z     0.00000   0.00000   2.63099
-------------------------------------------------------------------------------

  Static refractive indices : 

-------------------------------------------------------------------------------
    1 =    5.18506      2 =    5.18506      3 =    5.18506
-------------------------------------------------------------------------------

  High frequency refractive indices : 

-------------------------------------------------------------------------------
    1 =    1.62203      2 =    1.62203      3 =    1.62203
-------------------------------------------------------------------------------


  Time to end of optimisation =       0.0271 seconds

********************************************************************************
*  Defect calculation for configuration   1 :                                  *
********************************************************************************

  Total number of defects =      1

  Total charge on defect  =  -2.00

  Defect centre is at   0.5000   0.0000   0.0000  Frac

  Region 1 radius =  12.0000      Number of ions =   1338

  Number of symmetry inequivalent region 1 ions  =     56

  Region 2 radius =  24.0000      Number of ions =   9412

  Number of symmetry inequivalent region 2a ions =    272

  Region 2a mode = 4 : screened electrostatics due to region 1 
                       neglect correction to region 1 forces from 2a
                       region 2a displacements based on defects only

  Region 2a ions will only interact with defects in region 1

  Interstitials:

--------------------------------------------------------------------------------
    Specification type     Symbol/Number         x          y          z
--------------------------------------------------------------------------------
    Atom/Fractional         O                0.500000   0.000000   0.000000
--------------------------------------------------------------------------------


  Symmetry reduced region 1 (Relative to defect centre) :

--------------------------------------------------------------------------------
   No.   Atomic       x            y             z       Radius  Multiplicity   
         Label      (Angs)       (Angs)        (Angs)    (Angs)     
--------------------------------------------------------------------------------
     1  O     c      0.0000       0.0000       0.0000    0.0000     1    Defect
     2  O     c      1.2689 *     1.2689       1.2689    0.0000     8          
     3  Zr    c      0.0000       0.0000      -2.5378 *  0.0000     6          
     4  O     c      3.8068 *     1.2689 *     1.2689    0.0000    24          
     5  Zr    c      2.5378 *     2.5378      -2.5378    0.0000     8          
     6  O     c      3.8068 *     3.8068      -1.2689 *  0.0000    24          
     7  Zr    c      5.0757 *     2.5378 *     0.0000    0.0000    24          
     8  O     c      3.8068 *     3.8068       3.8068    0.0000     8          
     9  O     c      1.2689 *    -1.2689       6.3446 *  0.0000    24          
    10  O     c     -3.8068 *     1.2689 *    -6.3446 *  0.0000    48          
    11  Zr    c      5.0757 *    -2.5378 *    -5.0757    0.0000    24          
    12  Zr    c      0.0000       0.0000       7.6135 *  0.0000     6          
    13  O     c      3.8068 *    -3.8068       6.3446 *  0.0000    24          
    14  Zr    c     -7.6135 *     2.5378 *     2.5378    0.0000    24          
    15  O     c      6.3446 *     6.3446      -1.2689 *  0.0000    24          
    16  O     c      1.2689 *     8.8824 *     1.2689    0.0000    24          
    17  Zr    c      7.6135 *     5.0757 *     0.0000    0.0000    24          
    18  O     c      6.3446 *     6.3446       3.8068 *  0.0000    24          
    19  O     c     -8.8824 *    -3.8068 *    -1.2689 *  0.0000    48          
    20  O     c      8.8824 *     3.8068 *     3.8068    0.0000    24          
    21  Zr    c      5.0757 *    -5.0757       7.6135 *  0.0000    24          
    22  Zr    c      2.5378 *     0.0000      10.1514 *  0.0000    24          
    23  O     c     -6.3446 *     6.3446       6.3446    0.0000     8          
    24  O     c      8.8824 *     6.3446 *     1.2689 *  0.0000    48          
    25  Zr    c      7.6135 *     7.6135      -2.5378 *  0.0000    24          
    26  O     c      6.3446 *    -3.8068 *     8.8824 *  0.0000    48          
    27  O     c      1.2689 *    -1.2689      11.4203 *  0.0000    24          
    28  Zr    c     -5.0757 *    10.1514 *     2.5378 *  0.0000    48          
    29  O     s      0.0000       0.0000       0.0000    0.0000     1    Defect
    30  O     s      1.2689 *     1.2689       1.2689    0.0000     8          
    31  Zr    s      0.0000       0.0000      -2.5378 *  0.0000     6          
    32  O     s      3.8068 *     1.2689 *     1.2689    0.0000    24          
    33  Zr    s      2.5378 *     2.5378      -2.5378    0.0000     8          
    34  O     s      3.8068 *     3.8068      -1.2689 *  0.0000    24          
    35  Zr    s      5.0757 *     2.5378 *     0.0000    0.0000    24          
    36  O     s      3.8068 *     3.8068       3.8068    0.0000     8          
    37  O     s      1.2689 *    -1.2689       6.3446 *  0.0000    24          
    38  O     s     -3.8068 *     1.2689 *    -6.3446 *  0.0000    48          
    39  Zr    s      5.0757 *    -2.5378 *    -5.0757    0.0000    24          
    40  Zr    s      0.0000       0.0000       7.6135 *  0.0000     6          
    41  O     s      3.8068 *    -3.8068       6.3446 *  0.0000    24          
    42  Zr    s     -7.6135 *     2.5378 *     2.5378    0.0000    24          
    43  O     s      6.3446 *     6.3446      -1.2689 *  0.0000    24          
    44  O     s      1.2689 *     8.8824 *     1.2689    0.0000    24          
    45  Zr    s      7.6135 *     5.0757 *     0.0000    0.0000    24          
    46  O     s      6.3446 *     6.3446       3.8068 *  0.0000    24          
    47  O     s     -8.8824 *    -3.8068 *    -1.2689 *  0.0000    48          
    48  O     s      8.8824 *     3.8068 *     3.8068    0.0000    24          
    49  Zr    s      5.0757 *    -5.0757       7.6135 *  0.0000    24          
    50  Zr    s      2.5378 *     0.0000      10.1514 *  0.0000    24          
    51  O     s     -6.3446 *     6.3446       6.3446    0.0000     8          
    52  O     s      8.8824 *     6.3446 *     1.2689 *  0.0000    48          
    53  Zr    s      7.6135 *     7.6135      -2.5378 *  0.0000    24          
    54  O     s      6.3446 *    -3.8068 *     8.8824 *  0.0000    48          
    55  O     s      1.2689 *    -1.2689      11.4203 *  0.0000    24          
    56  Zr    s     -5.0757 *    10.1514 *     2.5378 *  0.0000    48          
--------------------------------------------------------------------------------


  Constraints on symmetry reduced coordinates :

--------------------------------------------------------------------------------
  Constraint no.      Unconstrained     Constrained    Coefficient    
                         Variable         Variable
--------------------------------------------------------------------------------
           1                 2 x             2 y         1.00000
           2                 2 x             2 z         1.00000
           3                 4 y             4 z         1.00000
           4                 5 x             5 y         1.00000
           5                 5 x             5 z        -1.00000
           6                 6 x             6 y         1.00000
           7                 8 x             8 y         1.00000
           8                 8 x             8 z         1.00000
           9                 9 x             9 y        -1.00000
          10                11 x            11 z        -1.00000
          11                13 x            13 y        -1.00000
          12                14 y            14 z         1.00000
          13                15 x            15 y         1.00000
          14                16 x            16 z         1.00000
          15                18 x            18 y         1.00000
          16                20 y            20 z         1.00000
          17                21 x            21 y        -1.00000
          18                23 x            23 y        -1.00000
          19                23 x            23 z        -1.00000
          20                25 x            25 y         1.00000
          21                27 x            27 y        -1.00000
          22                30 x            30 y         1.00000
          23                30 x            30 z         1.00000
          24                32 y            32 z         1.00000
          25                33 x            33 y         1.00000
          26                33 x            33 z        -1.00000
          27                34 x            34 y         1.00000
          28                36 x            36 y         1.00000
          29                36 x            36 z         1.00000
          30                37 x            37 y        -1.00000
          31                39 x            39 z        -1.00000
          32                41 x            41 y        -1.00000
          33                42 y            42 z         1.00000
          34                43 x            43 y         1.00000
          35                44 x            44 z         1.00000
          36                46 x            46 y         1.00000
          37                48 y            48 z         1.00000
          38                49 x            49 y        -1.00000
          39                51 x            51 y        -1.00000
          40                51 x            51 z        -1.00000
          41                53 x            53 y         1.00000
          42                55 x            55 y        -1.00000
--------------------------------------------------------------------------------


  Components of defect energy : 

--------------------------------------------------------------------------------
  Region 1 - region 1                   =   -184.70269336 eV
  Region 1 - region 2a (unrelaxed)      =    196.15686364 eV
  Region 1 - 2a (relaxed - correction)  =     -2.29091409 eV
  Region 1 (Total)                      =      9.16325619 eV
  Region 2a                             =      1.14541898 eV
  Region 2b                             =     -1.14936732 eV
--------------------------------------------------------------------------------
  Total defect energy                   =      9.15930785 eV
--------------------------------------------------------------------------------

  Largest displacement in region 2 =   0.0046 Angstroms


  Number of variables =      106

  Maximum number of calculations  =        1000
  Maximum Hessian update interval =          10
  Maximum step size               =   1.0000000
  Maximum parameter tolerance     =   0.0000100
  Maximum function  tolerance     =   0.0000100
  Maximum gradient  tolerance     =   0.0010000

  Symmetry adapted optimisation

  Symmetry to be used for second derivatives

  Newton-Raphson optimiser to be used

  BFGS hessian update to be used

  Lower half triangular hessian to be used

  Start of defect optimisation :

  Cycle:      0 Defect Energy:   9.159308  Gnorm:     2.436112  CPU:    1.831
  ** Hessian calculated **
  Cycle:      1 Defect Energy:  -9.066702  Gnorm:     0.122326  CPU:    2.820
  ** Hessian calculated **
  Cycle:      2 Defect Energy:  -9.322604  Gnorm:     0.011382  CPU:    3.783
  Cycle:      3 Defect Energy:  -9.322613  Gnorm:     0.008046  CPU:    3.953
  Cycle:      4 Defect Energy:  -9.322746  Gnorm:     0.005633  CPU:    4.122
  Cycle:      5 Defect Energy:  -9.322818  Gnorm:     0.003943  CPU:    4.291
  Cycle:      6 Defect Energy:  -9.322857  Gnorm:     0.002760  CPU:    4.460
  Cycle:      7 Defect Energy:  -9.322879  Gnorm:     0.001932  CPU:    4.629
  Cycle:      8 Defect Energy:  -9.322893  Gnorm:     0.001353  CPU:    4.797
  Cycle:      9 Defect Energy:  -9.322900  Gnorm:     0.000947  CPU:    4.969
  Cycle:     10 Defect Energy:  -9.322905  Gnorm:     0.000663  CPU:    5.137
  Cycle:     11 Defect Energy:  -9.322909  Gnorm:     0.000464  CPU:    5.308
  ** Hessian calculated **
  Cycle:     12 Defect Energy:  -9.322911  Gnorm:     0.000325  CPU:    5.675
  Cycle:     13 Defect Energy:  -9.322912  Gnorm:     0.000227  CPU:    5.843
  Cycle:     14 Defect Energy:  -9.322913  Gnorm:     0.000159  CPU:    6.014


  **** Optimisation achieved ****


  Final defect energy  =       -9.32291362
  Final defect Gnorm   =        0.00011139

  Components of defect energy : 

--------------------------------------------------------------------------------
  Region 1 - region 1                   =   -196.34351240 eV
  Region 1 - region 2a (unrelaxed)      =    189.20465608 eV
  Region 1 - 2a (relaxed - correction)  =     -2.06953264 eV
  Region 1 (Total)                      =     -9.20838896 eV
  Region 2a                             =      1.03484265 eV
  Region 2b                             =     -1.14936732 eV
--------------------------------------------------------------------------------
  Total defect energy                   =     -9.32291362 eV
--------------------------------------------------------------------------------

  Largest displacement in region 2 =   0.0046 Angstroms

  Final coordinates of region 1 :

--------------------------------------------------------------------------------
   No.  Atomic        x           y           z          Radius      Charge
        Label       (Angs)      (Angs)      (Angs)       (Angs)       (e) 
--------------------------------------------------------------------------------
     1  O     c     2.537842    0.000000    0.000000    0.000000    0.077000
     2  O     c     3.913807    1.375965    1.375965    0.000000    0.077000
     3  O     c     3.913807    1.375965   -1.375965    0.000000    0.077000
     4  O     c     3.913807   -1.375965    1.375965    0.000000    0.077000
     5  O     c     1.161877   -1.375965   -1.375965    0.000000    0.077000
     6  O     c     1.161877    1.375965    1.375965    0.000000    0.077000
     7  O     c     1.161877   -1.375965    1.375965    0.000000    0.077000
     8  O     c     1.161877    1.375965   -1.375965    0.000000    0.077000
     9  O     c     3.913807   -1.375965   -1.375965    0.000000    0.077000
    10  Zr    c     2.537842    0.000000   -2.425625    0.000000    2.650000
    11  Zr    c     4.963466    0.000000    0.000000    0.000000    2.650000
    12  Zr    c     2.537842   -2.425625    0.000000    0.000000    2.650000
    13  Zr    c     2.537842    2.425625    0.000000    0.000000    2.650000
    14  Zr    c     0.112217    0.000000    0.000000    0.000000    2.650000
    15  Zr    c     2.537842    0.000000    2.425625    0.000000    2.650000
    16  O     c     6.387420    1.273532    1.273532    0.000000    0.077000
    17  O     c     3.811374    3.849578    1.273532    0.000000    0.077000
    18  O     c     1.264310    3.849578   -1.273532    0.000000    0.077000
    19  O     c     3.811374   -3.849578   -1.273532    0.000000    0.077000
    20  O     c     6.387420   -1.273532   -1.273532    0.000000    0.077000
    21  O     c     3.811374    3.849578   -1.273532    0.000000    0.077000
    22  O     c     6.387420    1.273532   -1.273532    0.000000    0.077000
    23  O     c     6.387420   -1.273532    1.273532    0.000000    0.077000
    24  O     c     1.264310   -3.849578    1.273532    0.000000    0.077000
    25  O     c     1.264310    1.273532   -3.849578    0.000000    0.077000
    26  O     c    -1.311736   -1.273532    1.273532    0.000000    0.077000
    27  O     c     3.811374    1.273532    3.849578    0.000000    0.077000
    28  O     c     1.264310   -1.273532    3.849578    0.000000    0.077000
    29  O     c    -1.311736    1.273532   -1.273532    0.000000    0.077000
    30  O     c     3.811374   -1.273532   -3.849578    0.000000    0.077000
    31  O     c     3.811374   -1.273532    3.849578    0.000000    0.077000
    32  O     c     1.264310    1.273532    3.849578    0.000000    0.077000
    33  O     c     1.264310    3.849578    1.273532    0.000000    0.077000
    34  O     c     3.811374    1.273532   -3.849578    0.000000    0.077000
    35  O     c    -1.311736   -1.273532   -1.273532    0.000000    0.077000
    36  O     c    -1.311736    1.273532    1.273532    0.000000    0.077000
    37  O     c     1.264310   -3.849578   -1.273532    0.000000    0.077000
    38  O     c     3.811374   -3.849578    1.273532    0.000000    0.077000
    39  O     c     1.264310   -1.273532   -3.849578    0.000000    0.077000
    40  Zr    c     5.073573    2.535731   -2.535731    0.000000    2.650000
    41  Zr    c     0.002110   -2.535731   -2.535731    0.000000    2.650000
    42  Zr    c     5.073573   -2.535731    2.535731    0.000000    2.650000
    43  Zr    c     5.073573    2.535731    2.535731    0.000000    2.650000
    44  Zr    c     0.002110   -2.535731    2.535731    0.000000    2.650000
    45  Zr    c     0.002110    2.535731   -2.535731    0.000000    2.650000
    46  Zr    c     0.002110    2.535731    2.535731    0.000000    2.650000
    47  Zr    c     5.073573   -2.535731   -2.535731    0.000000    2.650000
    48  O     c     6.351750    3.813908   -1.270447    0.000000    0.077000
    49  O     c     6.351750   -3.813908    1.270447    0.000000    0.077000
    50  O     c     6.351750    3.813908    1.270447    0.000000    0.077000
    51  O     c    -1.276067   -3.813908   -1.270447    0.000000    0.077000
    52  O     c     6.351750   -1.270447    3.813908    0.000000    0.077000
    53  O     c     3.808288   -3.813908    3.813908    0.000000    0.077000
    54  O     c    -1.276067   -1.270447   -3.813908    0.000000    0.077000
    55  O     c     3.808288    3.813908   -3.813908    0.000000    0.077000
    56  O     c     1.267395    3.813908    3.813908    0.000000    0.077000
    57  O     c    -1.276067    1.270447    3.813908    0.000000    0.077000
    58  O     c    -1.276067    3.813908    1.270447    0.000000    0.077000
    59  O     c     1.267395   -3.813908   -3.813908    0.000000    0.077000
    60  O     c     6.351750    1.270447   -3.813908    0.000000    0.077000
    61  O     c     6.351750    1.270447    3.813908    0.000000    0.077000
    62  O     c     3.808288    3.813908    3.813908    0.000000    0.077000
    63  O     c     6.351750   -1.270447   -3.813908    0.000000    0.077000
    64  O     c    -1.276067    3.813908   -1.270447    0.000000    0.077000
    65  O     c     6.351750   -3.813908   -1.270447    0.000000    0.077000
    66  O     c    -1.276067   -3.813908    1.270447    0.000000    0.077000
    67  O     c     1.267395   -3.813908    3.813908    0.000000    0.077000
    68  O     c    -1.276067    1.270447   -3.813908    0.000000    0.077000
    69  O     c     1.267395    3.813908   -3.813908    0.000000    0.077000
    70  O     c    -1.276067   -1.270447    3.813908    0.000000    0.077000
    71  O     c     3.808288   -3.813908   -3.813908    0.000000    0.077000
    72  Zr    c     7.593304    2.514160    0.000000    0.000000    2.650000
    73  Zr    c     7.593304    0.000000    2.514160    0.000000    2.650000
    74  Zr    c     7.593304    0.000000   -2.514160    0.000000    2.650000
    75  Zr    c     7.593304   -2.514160    0.000000    0.000000    2.650000
    76  Zr    c     0.023682   -5.055462    0.000000    0.000000    2.650000
    77  Zr    c     2.537842   -5.055462    2.514160    0.000000    2.650000
    78  Zr    c     0.023682    0.000000   -5.055462    0.000000    2.650000
    79  Zr    c     2.537842    2.514160   -5.055462    0.000000    2.650000
    80  Zr    c     5.052001    5.055462    0.000000    0.000000    2.650000
    81  Zr    c    -2.517621   -2.514160    0.000000    0.000000    2.650000
    82  Zr    c     5.052001    0.000000    5.055462    0.000000    2.650000
    83  Zr    c     2.537842   -2.514160    5.055462    0.000000    2.650000
    84  Zr    c     2.537842    5.055462   -2.514160    0.000000    2.650000
    85  Zr    c    -2.517621    0.000000   -2.514160    0.000000    2.650000
    86  Zr    c     2.537842    5.055462    2.514160    0.000000    2.650000
    87  Zr    c    -2.517621    0.000000    2.514160    0.000000    2.650000
    88  Zr    c     2.537842    2.514160    5.055462    0.000000    2.650000
    89  Zr    c     0.023682    0.000000    5.055462    0.000000    2.650000
    90  Zr    c     0.023682    5.055462    0.000000    0.000000    2.650000
    91  Zr    c    -2.517621    2.514160    0.000000    0.000000    2.650000
    92  Zr    c     2.537842   -2.514160   -5.055462    0.000000    2.650000
    93  Zr    c     5.052001    0.000000   -5.055462    0.000000    2.650000
    94  Zr    c     2.537842   -5.055462   -2.514160    0.000000    2.650000
    95  Zr    c     5.052001   -5.055462    0.000000    0.000000    2.650000
    96  O     c     6.357702    3.819860    3.819860    0.000000    0.077000
    97  O     c    -1.282018   -3.819860    3.819860    0.000000    0.077000
    98  O     c    -1.282018    3.819860   -3.819860    0.000000    0.077000
    99  O     c     6.357702   -3.819860   -3.819860    0.000000    0.077000
   100  O     c    -1.282018    3.819860    3.819860    0.000000    0.077000
   101  O     c     6.357702    3.819860   -3.819860    0.000000    0.077000
   102  O     c     6.357702   -3.819860    3.819860    0.000000    0.077000
   103  O     c    -1.282018   -3.819860   -3.819860    0.000000    0.077000
   104  O     c     3.806994   -1.269153    6.369194    0.000000    0.077000
   105  O     c     1.268689    1.269153    6.369194    0.000000    0.077000
   106  O     c     1.268689    6.369194    1.269153    0.000000    0.077000
   107  O     c    -3.831352    1.269153    1.269153    0.000000    0.077000
   108  O     c     8.907036    1.269153   -1.269153    0.000000    0.077000
   109  O     c     1.268689   -6.369194   -1.269153    0.000000    0.077000
   110  O     c     1.268689   -1.269153   -6.369194    0.000000    0.077000
   111  O     c     3.806994    1.269153   -6.369194    0.000000    0.077000
   112  O     c     3.806994    1.269153    6.369194    0.000000    0.077000
   113  O     c     1.268689   -1.269153    6.369194    0.000000    0.077000
   114  O     c     3.806994    6.369194    1.269153    0.000000    0.077000
   115  O     c     8.907036    1.269153    1.269153    0.000000    0.077000
   116  O     c     3.806994    6.369194   -1.269153    0.000000    0.077000
   117  O     c    -3.831352   -1.269153   -1.269153    0.000000    0.077000
   118  O     c     8.907036   -1.269153    1.269153    0.000000    0.077000
   119  O     c     3.806994   -6.369194    1.269153    0.000000    0.077000
   120  O     c     1.268689    6.369194   -1.269153    0.000000    0.077000
   121  O     c     8.907036   -1.269153   -1.269153    0.000000    0.077000
   122  O     c    -3.831352   -1.269153    1.269153    0.000000    0.077000
   123  O     c     1.268689   -6.369194    1.269153    0.000000    0.077000
   124  O     c     1.268689    1.269153   -6.369194    0.000000    0.077000
   125  O     c     3.806994   -1.269153   -6.369194    0.000000    0.077000
   126  O     c    -3.831352    1.269153   -1.269153    0.000000    0.077000
   127  O     c     3.806994   -6.369194   -1.269153    0.000000    0.077000
   128  O     c    -1.272960    1.274986   -6.353107    0.000000    0.077000
   129  O     c     1.262856    3.810802   -6.353107    0.000000    0.077000
   130  O     c     6.348643    1.274986    6.353107    0.000000    0.077000
   131  O     c     1.262856   -3.810802    6.353107    0.000000    0.077000
   132  O     c     1.262856    6.353107   -3.810802    0.000000    0.077000
   133  O     c     3.812828    3.810802    6.353107    0.000000    0.077000
   134  O     c    -1.272960   -1.274986    6.353107    0.000000    0.077000
   135  O     c     3.812828   -3.810802   -6.353107    0.000000    0.077000
   136  O     c     6.348643   -1.274986   -6.353107    0.000000    0.077000
   137  O     c     3.812828   -6.353107   -3.810802    0.000000    0.077000
   138  O     c     8.890949   -1.274986   -3.810802    0.000000    0.077000
   139  O     c     6.348643   -6.353107   -1.274986    0.000000    0.077000
   140  O     c     8.890949   -3.810802   -1.274986    0.000000    0.077000
   141  O     c     6.348643   -1.274986    6.353107    0.000000    0.077000
   142  O     c     1.262856    3.810802    6.353107    0.000000    0.077000
   143  O     c     1.262856    6.353107    3.810802    0.000000    0.077000
   144  O     c    -1.272960    6.353107    1.274986    0.000000    0.077000
   145  O     c     8.890949   -3.810802    1.274986    0.000000    0.077000
   146  O     c     8.890949    3.810802    1.274986    0.000000    0.077000
   147  O     c    -1.272960   -6.353107    1.274986    0.000000    0.077000
   148  O     c     8.890949    1.274986    3.810802    0.000000    0.077000
   149  O     c     1.262856   -6.353107    3.810802    0.000000    0.077000
   150  O     c     6.348643    6.353107    1.274986    0.000000    0.077000
   151  O     c    -3.815265   -3.810802    1.274986    0.000000    0.077000
   152  O     c    -3.815265    1.274986   -3.810802    0.000000    0.077000
   153  O     c     3.812828    6.353107    3.810802    0.000000    0.077000
   154  O     c    -3.815265   -1.274986    3.810802    0.000000    0.077000
   155  O     c    -3.815265    3.810802   -1.274986    0.000000    0.077000
   156  O     c    -1.272960    6.353107   -1.274986    0.000000    0.077000
   157  O     c     3.812828   -3.810802    6.353107    0.000000    0.077000
   158  O     c     6.348643    6.353107   -1.274986    0.000000    0.077000
   159  O     c     3.812828    6.353107   -3.810802    0.000000    0.077000
   160  O     c    -1.272960    1.274986    6.353107    0.000000    0.077000
   161  O     c     8.890949    3.810802   -1.274986    0.000000    0.077000
   162  O     c     8.890949   -1.274986    3.810802    0.000000    0.077000
   163  O     c     8.890949    1.274986   -3.810802    0.000000    0.077000
   164  O     c    -3.815265    1.274986    3.810802    0.000000    0.077000
   165  O     c    -3.815265    3.810802    1.274986    0.000000    0.077000
   166  O     c     3.812828    3.810802   -6.353107    0.000000    0.077000
   167  O     c     6.348643   -6.353107    1.274986    0.000000    0.077000
   168  O     c     6.348643    1.274986   -6.353107    0.000000    0.077000
   169  O     c    -3.815265   -3.810802   -1.274986    0.000000    0.077000
   170  O     c    -3.815265   -1.274986   -3.810802    0.000000    0.077000
   171  O     c    -1.272960   -6.353107   -1.274986    0.000000    0.077000
   172  O     c     3.812828   -6.353107    3.810802    0.000000    0.077000
   173  O     c    -1.272960   -1.274986   -6.353107    0.000000    0.077000
   174  O     c     1.262856   -6.353107   -3.810802    0.000000    0.077000
   175  O     c     1.262856   -3.810802   -6.353107    0.000000    0.077000
   176  Zr    c     7.610302   -2.532656   -5.072460    0.000000    2.650000
   177  Zr    c     7.610302    5.072460   -2.532656    0.000000    2.650000
   178  Zr    c     7.610302   -2.532656    5.072460    0.000000    2.650000
   179  Zr    c     7.610302    5.072460    2.532656    0.000000    2.650000
   180  Zr    c     7.610302    2.532656    5.072460    0.000000    2.650000
   181  Zr    c     0.005186    5.072460    5.072460    0.000000    2.650000
   182  Zr    c    -2.534618    5.072460    2.532656    0.000000    2.650000
   183  Zr    c     7.610302    2.532656   -5.072460    0.000000    2.650000
   184  Zr    c     7.610302   -5.072460    2.532656    0.000000    2.650000
   185  Zr    c     5.070497   -5.072460   -5.072460    0.000000    2.650000
   186  Zr    c     7.610302   -5.072460   -2.532656    0.000000    2.650000
   187  Zr    c    -2.534618   -5.072460   -2.532656    0.000000    2.650000
   188  Zr    c     5.070497   -5.072460    5.072460    0.000000    2.650000
   189  Zr    c     5.070497    5.072460   -5.072460    0.000000    2.650000
   190  Zr    c    -2.534618   -2.532656   -5.072460    0.000000    2.650000
   191  Zr    c    -2.534618   -5.072460    2.532656    0.000000    2.650000
   192  Zr    c     0.005186   -5.072460    5.072460    0.000000    2.650000
   193  Zr    c    -2.534618    2.532656   -5.072460    0.000000    2.650000
   194  Zr    c     0.005186    5.072460   -5.072460    0.000000    2.650000
   195  Zr    c     5.070497    5.072460    5.072460    0.000000    2.650000
   196  Zr    c    -2.534618   -2.532656    5.072460    0.000000    2.650000
   197  Zr    c    -2.534618    5.072460   -2.532656    0.000000    2.650000
   198  Zr    c    -2.534618    2.532656    5.072460    0.000000    2.650000
   199  Zr    c     0.005186   -5.072460   -5.072460    0.000000    2.650000
   200  Zr    c     2.537842    0.000000    7.614896    0.000000    2.650000
   201  Zr    c     2.537842    7.614896    0.000000    0.000000    2.650000
   202  Zr    c    -5.077054    0.000000    0.000000    0.000000    2.650000
   203  Zr    c    10.152738    0.000000    0.000000    0.000000    2.650000
   204  Zr    c     2.537842   -7.614896    0.000000    0.000000    2.650000
   205  Zr    c     2.537842    0.000000   -7.614896    0.000000    2.650000
   206  O     c     6.347039   -3.809197    6.351726    0.000000    0.077000
   207  O     c     6.347039    6.351726   -3.809197    0.000000    0.077000
   208  O     c    -3.813884   -3.809197   -3.809197    0.000000    0.077000
   209  O     c    -1.271355    3.809197    6.351726    0.000000    0.077000
   210  O     c    -1.271355    6.351726    3.809197    0.000000    0.077000
   211  O     c    -3.813884    3.809197    3.809197    0.000000    0.077000
   212  O     c     8.889567    3.809197   -3.809197    0.000000    0.077000
   213  O     c    -1.271355   -6.351726   -3.809197    0.000000    0.077000
   214  O     c    -1.271355   -3.809197   -6.351726    0.000000    0.077000
   215  O     c     8.889567    3.809197    3.809197    0.000000    0.077000
   216  O     c     6.347039    6.351726    3.809197    0.000000    0.077000
   217  O     c     6.347039    3.809197    6.351726    0.000000    0.077000
   218  O     c     8.889567   -3.809197    3.809197    0.000000    0.077000
   219  O     c     6.347039   -6.351726    3.809197    0.000000    0.077000
   220  O     c     6.347039    3.809197   -6.351726    0.000000    0.077000
   221  O     c    -1.271355   -6.351726    3.809197    0.000000    0.077000
   222  O     c    -1.271355    3.809197   -6.351726    0.000000    0.077000
   223  O     c    -3.813884   -3.809197    3.809197    0.000000    0.077000
   224  O     c    -1.271355   -3.809197    6.351726    0.000000    0.077000
   225  O     c    -3.813884    3.809197   -3.809197    0.000000    0.077000
   226  O     c    -1.271355    6.351726   -3.809197    0.000000    0.077000
   227  O     c     6.347039   -3.809197   -6.351726    0.000000    0.077000
   228  O     c     6.347039   -6.351726   -3.809197    0.000000    0.077000
   229  O     c     8.889567   -3.809197   -3.809197    0.000000    0.077000
   230  Zr    c    -5.065620    2.533349    2.533349    0.000000    2.650000
   231  Zr    c     5.071191   -7.603462    2.533349    0.000000    2.650000
   232  Zr    c    10.141303    2.533349    2.533349    0.000000    2.650000
   233  Zr    c     0.004492   -7.603462    2.533349    0.000000    2.650000
   234  Zr    c     0.004492    2.533349   -7.603462    0.000000    2.650000
   235  Zr    c     5.071191   -2.533349    7.603462    0.000000    2.650000
   236  Zr    c     5.071191    7.603462   -2.533349    0.000000    2.650000
   237  Zr    c    -5.065620   -2.533349   -2.533349    0.000000    2.650000
   238  Zr    c     5.071191    7.603462    2.533349    0.000000    2.650000
   239  Zr    c    -5.065620   -2.533349    2.533349    0.000000    2.650000
   240  Zr    c     5.071191    2.533349    7.603462    0.000000    2.650000
   241  Zr    c     0.004492   -2.533349    7.603462    0.000000    2.650000
   242  Zr    c     0.004492    7.603462   -2.533349    0.000000    2.650000
   243  Zr    c    -5.065620    2.533349   -2.533349    0.000000    2.650000
   244  Zr    c     0.004492    2.533349    7.603462    0.000000    2.650000
   245  Zr    c     0.004492    7.603462    2.533349    0.000000    2.650000
   246  Zr    c    10.141303    2.533349   -2.533349    0.000000    2.650000
   247  Zr    c     0.004492   -7.603462   -2.533349    0.000000    2.650000
   248  Zr    c    10.141303   -2.533349    2.533349    0.000000    2.650000
   249  Zr    c     0.004492   -2.533349   -7.603462    0.000000    2.650000
   250  Zr    c     5.071191    2.533349   -7.603462    0.000000    2.650000
   251  Zr    c     5.071191   -2.533349   -7.603462    0.000000    2.650000
   252  Zr    c    10.141303   -2.533349   -2.533349    0.000000    2.650000
   253  Zr    c     5.071191   -7.603462   -2.533349    0.000000    2.650000
   254  O     c     8.884085    6.346244   -1.268630    0.000000    0.077000
   255  O     c    -3.808402   -6.346244   -1.268630    0.000000    0.077000
   256  O     c     8.884085   -1.268630    6.346244    0.000000    0.077000
   257  O     c     3.806472   -6.346244    6.346244    0.000000    0.077000
   258  O     c    -3.808402   -1.268630   -6.346244    0.000000    0.077000
   259  O     c     3.806472    6.346244   -6.346244    0.000000    0.077000
   260  O     c     1.269212    6.346244    6.346244    0.000000    0.077000
   261  O     c    -3.808402    1.268630    6.346244    0.000000    0.077000
   262  O     c    -3.808402    6.346244    1.268630    0.000000    0.077000
   263  O     c     1.269212   -6.346244   -6.346244    0.000000    0.077000
   264  O     c     8.884085    1.268630   -6.346244    0.000000    0.077000
   265  O     c     8.884085   -6.346244    1.268630    0.000000    0.077000
   266  O     c     8.884085    6.346244    1.268630    0.000000    0.077000
   267  O     c     8.884085    1.268630    6.346244    0.000000    0.077000
   268  O     c     3.806472    6.346244    6.346244    0.000000    0.077000
   269  O     c    -3.808402    6.346244   -1.268630    0.000000    0.077000
   270  O     c     8.884085   -6.346244   -1.268630    0.000000    0.077000
   271  O     c     1.269212    6.346244   -6.346244    0.000000    0.077000
   272  O     c     8.884085   -1.268630   -6.346244    0.000000    0.077000
   273  O     c    -3.808402   -6.346244    1.268630    0.000000    0.077000
   274  O     c     1.269212   -6.346244    6.346244    0.000000    0.077000
   275  O     c    -3.808402    1.268630   -6.346244    0.000000    0.077000
   276  O     c    -3.808402   -1.268630    6.346244    0.000000    0.077000
   277  O     c     3.806472   -6.346244   -6.346244    0.000000    0.077000
   278  O     c     3.807163    8.899595    1.269321    0.000000    0.077000
   279  O     c    -6.361753   -1.269321    1.269321    0.000000    0.077000
   280  O     c     1.268520    8.899595   -1.269321    0.000000    0.077000
   281  O     c    -6.361753    1.269321   -1.269321    0.000000    0.077000
   282  O     c    11.437437    1.269321    1.269321    0.000000    0.077000
   283  O     c     1.268520   -8.899595    1.269321    0.000000    0.077000
   284  O     c    11.437437   -1.269321   -1.269321    0.000000    0.077000
   285  O     c     3.807163   -8.899595   -1.269321    0.000000    0.077000
   286  O     c     3.807163    8.899595   -1.269321    0.000000    0.077000
   287  O     c    -6.361753   -1.269321   -1.269321    0.000000    0.077000
   288  O     c     1.268520    8.899595    1.269321    0.000000    0.077000
   289  O     c    -6.361753    1.269321    1.269321    0.000000    0.077000
   290  O     c    11.437437    1.269321   -1.269321    0.000000    0.077000
   291  O     c     1.268520   -8.899595   -1.269321    0.000000    0.077000
   292  O     c    11.437437   -1.269321    1.269321    0.000000    0.077000
   293  O     c     3.807163   -8.899595    1.269321    0.000000    0.077000
   294  O     c     3.807163    1.269321    8.899595    0.000000    0.077000
   295  O     c     1.268520   -1.269321    8.899595    0.000000    0.077000
   296  O     c     1.268520    1.269321   -8.899595    0.000000    0.077000
   297  O     c     3.807163   -1.269321   -8.899595    0.000000    0.077000
   298  O     c     3.807163   -1.269321    8.899595    0.000000    0.077000
   299  O     c     1.268520    1.269321    8.899595    0.000000    0.077000
   300  O     c     1.268520   -1.269321   -8.899595    0.000000    0.077000
   301  O     c     3.807163    1.269321   -8.899595    0.000000    0.077000
   302  Zr    c    10.143412    5.067015    0.000000    0.000000    2.650000
   303  Zr    c    -2.529174   -7.605570    0.000000    0.000000    2.650000
   304  Zr    c    10.143412    0.000000    5.067015    0.000000    2.650000
   305  Zr    c     2.537842   -7.605570    5.067015    0.000000    2.650000
   306  Zr    c    -2.529174    0.000000   -7.605570    0.000000    2.650000
   307  Zr    c     2.537842    5.067015   -7.605570    0.000000    2.650000
   308  Zr    c     7.604857    7.605570    0.000000    0.000000    2.650000
   309  Zr    c    -5.067728   -5.067015    0.000000    0.000000    2.650000
   310  Zr    c     7.604857    0.000000    7.605570    0.000000    2.650000
   311  Zr    c     2.537842   -5.067015    7.605570    0.000000    2.650000
   312  Zr    c     2.537842    7.605570   -5.067015    0.000000    2.650000
   313  Zr    c    -5.067728    0.000000   -5.067015    0.000000    2.650000
   314  Zr    c     2.537842    7.605570    5.067015    0.000000    2.650000
   315  Zr    c    -5.067728    0.000000    5.067015    0.000000    2.650000
   316  Zr    c     2.537842    5.067015    7.605570    0.000000    2.650000
   317  Zr    c    -2.529174    0.000000    7.605570    0.000000    2.650000
   318  Zr    c    -2.529174    7.605570    0.000000    0.000000    2.650000
   319  Zr    c    -5.067728    5.067015    0.000000    0.000000    2.650000
   320  Zr    c     2.537842   -5.067015   -7.605570    0.000000    2.650000
   321  Zr    c     7.604857    0.000000   -7.605570    0.000000    2.650000
   322  Zr    c    10.143412    0.000000   -5.067015    0.000000    2.650000
   323  Zr    c     2.537842   -7.605570   -5.067015    0.000000    2.650000
   324  Zr    c    10.143412   -5.067015    0.000000    0.000000    2.650000
   325  Zr    c     7.604857   -7.605570    0.000000    0.000000    2.650000
   326  O     c     8.886777    6.348935    3.807567    0.000000    0.077000
   327  O     c    -3.811093   -6.348935    3.807567    0.000000    0.077000
   328  O     c     8.886777    3.807567    6.348935    0.000000    0.077000
   329  O     c    -1.269725   -6.348935    6.348935    0.000000    0.077000
   330  O     c    -3.811093    3.807567   -6.348935    0.000000    0.077000
   331  O     c    -1.269725    6.348935   -6.348935    0.000000    0.077000
   332  O     c     6.345409    6.348935    6.348935    0.000000    0.077000
   333  O     c    -3.811093   -3.807567    6.348935    0.000000    0.077000
   334  O     c     6.345409   -6.348935   -6.348935    0.000000    0.077000
   335  O     c     8.886777   -3.807567   -6.348935    0.000000    0.077000
   336  O     c     8.886777   -6.348935   -3.807567    0.000000    0.077000
   337  O     c    -1.269725    6.348935    6.348935    0.000000    0.077000
   338  O     c     8.886777   -3.807567    6.348935    0.000000    0.077000
   339  O     c    -3.811093    6.348935   -3.807567    0.000000    0.077000
   340  O     c    -3.811093    6.348935    3.807567    0.000000    0.077000
   341  O     c     8.886777    6.348935   -3.807567    0.000000    0.077000
   342  O     c     8.886777   -6.348935    3.807567    0.000000    0.077000
   343  O     c    -3.811093    3.807567    6.348935    0.000000    0.077000
   344  O     c     6.345409   -6.348935    6.348935    0.000000    0.077000
   345  O     c    -3.811093   -3.807567   -6.348935    0.000000    0.077000
   346  O     c     6.345409    6.348935   -6.348935    0.000000    0.077000
   347  O     c    -1.269725   -6.348935   -6.348935    0.000000    0.077000
   348  O     c     8.886777    3.807567   -6.348935    0.000000    0.077000
   349  O     c    -3.811093   -6.348935   -3.807567    0.000000    0.077000
   350  O     c    -6.347569   -3.809233   -1.268673    0.000000    0.077000
   351  O     c     3.806515    8.885410   -3.809233    0.000000    0.077000
   352  O     c    -6.347569   -1.268673   -3.809233    0.000000    0.077000
   353  O     c     1.269169    8.885410    3.809233    0.000000    0.077000
   354  O     c    -6.347569    1.268673    3.809233    0.000000    0.077000
   355  O     c    -1.271391    8.885410    1.268673    0.000000    0.077000
   356  O     c    -6.347569    3.809233    1.268673    0.000000    0.077000
   357  O     c    -1.271391   -8.885410   -1.268673    0.000000    0.077000
   358  O     c    11.423252    1.268673   -3.809233    0.000000    0.077000
   359  O     c     1.269169   -8.885410   -3.809233    0.000000    0.077000
   360  O     c    11.423252   -3.809233    1.268673    0.000000    0.077000
   361  O     c     6.347075   -8.885410    1.268673    0.000000    0.077000
   362  O     c     6.347075    8.885410    1.268673    0.000000    0.077000
   363  O     c     3.806515    8.885410    3.809233    0.000000    0.077000
   364  O     c    -6.347569   -1.268673    3.809233    0.000000    0.077000
   365  O     c    -6.347569    3.809233   -1.268673    0.000000    0.077000
   366  O     c    -1.271391    8.885410   -1.268673    0.000000    0.077000
   367  O     c    11.423252    3.809233    1.268673    0.000000    0.077000
   368  O     c    11.423252    1.268673    3.809233    0.000000    0.077000
   369  O     c     1.269169   -8.885410    3.809233    0.000000    0.077000
   370  O     c     6.347075   -8.885410   -1.268673    0.000000    0.077000
   371  O     c    11.423252   -3.809233   -1.268673    0.000000    0.077000
   372  O     c     6.347075   -1.268673    8.885410    0.000000    0.077000
   373  O     c     3.806515   -3.809233    8.885410    0.000000    0.077000
   374  O     c     6.347075    8.885410   -1.268673    0.000000    0.077000
   375  O     c     1.269169    3.809233    8.885410    0.000000    0.077000
   376  O     c    -1.271391    1.268673    8.885410    0.000000    0.077000
   377  O     c    11.423252    3.809233   -1.268673    0.000000    0.077000
   378  O     c    11.423252   -1.268673    3.809233    0.000000    0.077000
   379  O     c     3.806515   -8.885410    3.809233    0.000000    0.077000
   380  O     c    -1.271391   -1.268673   -8.885410    0.000000    0.077000
   381  O     c     3.806515    3.809233   -8.885410    0.000000    0.077000
   382  O     c     1.269169   -3.809233   -8.885410    0.000000    0.077000
   383  O     c     6.347075    1.268673   -8.885410    0.000000    0.077000
   384  O     c     6.347075    1.268673    8.885410    0.000000    0.077000
   385  O     c     1.269169   -3.809233    8.885410    0.000000    0.077000
   386  O     c    -6.347569   -3.809233    1.268673    0.000000    0.077000
   387  O     c    -6.347569    1.268673   -3.809233    0.000000    0.077000
   388  O     c     1.269169    8.885410   -3.809233    0.000000    0.077000
   389  O     c     3.806515    3.809233    8.885410    0.000000    0.077000
   390  O     c    -1.271391   -1.268673    8.885410    0.000000    0.077000
   391  O     c    -1.271391   -8.885410    1.268673    0.000000    0.077000
   392  O     c    -1.271391    1.268673   -8.885410    0.000000    0.077000
   393  O     c     1.269169    3.809233   -8.885410    0.000000    0.077000
   394  O     c     3.806515   -8.885410   -3.809233    0.000000    0.077000
   395  O     c    11.423252   -1.268673   -3.809233    0.000000    0.077000
   396  O     c     3.806515   -3.809233   -8.885410    0.000000    0.077000
   397  O     c     6.347075   -1.268673   -8.885410    0.000000    0.077000
   398  O     c    11.424486    3.809108    3.809108    0.000000    0.077000
   399  O     c     6.346949    8.886644    3.809108    0.000000    0.077000
   400  O     c     6.346949   -8.886644   -3.809108    0.000000    0.077000
   401  O     c    11.424486   -3.809108   -3.809108    0.000000    0.077000
   402  O     c    -6.348802    3.809108    3.809108    0.000000    0.077000
   403  O     c     6.346949   -8.886644    3.809108    0.000000    0.077000
   404  O     c    -1.271266   -8.886644    3.809108    0.000000    0.077000
   405  O     c    -1.271266    3.809108   -8.886644    0.000000    0.077000
   406  O     c    -6.348802   -3.809108    3.809108    0.000000    0.077000
   407  O     c     6.346949    3.809108    8.886644    0.000000    0.077000
   408  O     c    -1.271266   -3.809108    8.886644    0.000000    0.077000
   409  O     c    -6.348802    3.809108   -3.809108    0.000000    0.077000
   410  O     c    -1.271266    8.886644   -3.809108    0.000000    0.077000
   411  O     c     6.346949   -3.809108   -8.886644    0.000000    0.077000
   412  O     c     6.346949   -3.809108    8.886644    0.000000    0.077000
   413  O     c     6.346949    8.886644   -3.809108    0.000000    0.077000
   414  O     c    -1.271266    3.809108    8.886644    0.000000    0.077000
   415  O     c    -1.271266    8.886644    3.809108    0.000000    0.077000
   416  O     c    11.424486    3.809108   -3.809108    0.000000    0.077000
   417  O     c    11.424486   -3.809108    3.809108    0.000000    0.077000
   418  O     c    -1.271266   -3.809108   -8.886644    0.000000    0.077000
   419  O     c     6.346949    3.809108   -8.886644    0.000000    0.077000
   420  O     c    -6.348802   -3.809108   -3.809108    0.000000    0.077000
   421  O     c    -1.271266   -8.886644   -3.809108    0.000000    0.077000
   422  Zr    c     7.610931   -5.073089    7.609466    0.000000    2.650000
   423  Zr    c     7.610931    7.609466   -5.073089    0.000000    2.650000
   424  Zr    c    -5.071624   -5.073089   -5.073089    0.000000    2.650000
   425  Zr    c    10.147308    5.073089    5.073089    0.000000    2.650000
   426  Zr    c    -2.535248   -7.609466    5.073089    0.000000    2.650000
   427  Zr    c    -2.535248    5.073089   -7.609466    0.000000    2.650000
   428  Zr    c     7.610931    7.609466    5.073089    0.000000    2.650000
   429  Zr    c    -5.071624   -5.073089    5.073089    0.000000    2.650000
   430  Zr    c     7.610931    5.073089    7.609466    0.000000    2.650000
   431  Zr    c    -2.535248   -5.073089    7.609466    0.000000    2.650000
   432  Zr    c    -5.071624    5.073089   -5.073089    0.000000    2.650000
   433  Zr    c    -2.535248    7.609466   -5.073089    0.000000    2.650000
   434  Zr    c    -2.535248    5.073089    7.609466    0.000000    2.650000
   435  Zr    c    -2.535248    7.609466    5.073089    0.000000    2.650000
   436  Zr    c    -5.071624    5.073089    5.073089    0.000000    2.650000
   437  Zr    c    10.147308    5.073089   -5.073089    0.000000    2.650000
   438  Zr    c    -2.535248   -7.609466   -5.073089    0.000000    2.650000
   439  Zr    c    10.147308   -5.073089    5.073089    0.000000    2.650000
   440  Zr    c     7.610931   -7.609466    5.073089    0.000000    2.650000
   441  Zr    c     7.610931    5.073089   -7.609466    0.000000    2.650000
   442  Zr    c    -2.535248   -5.073089   -7.609466    0.000000    2.650000
   443  Zr    c     7.610931   -5.073089   -7.609466    0.000000    2.650000
   444  Zr    c     7.610931   -7.609466   -5.073089    0.000000    2.650000
   445  Zr    c    10.147308   -5.073089   -5.073089    0.000000    2.650000
   446  Zr    c     5.073741    0.000000   10.149864    0.000000    2.650000
   447  Zr    c     2.537842   -2.535899   10.149864    0.000000    2.650000
   448  Zr    c     5.073741   10.149864    0.000000    0.000000    2.650000
   449  Zr    c    -7.612022   -2.535899    0.000000    0.000000    2.650000
   450  Zr    c     2.537842   10.149864   -2.535899    0.000000    2.650000
   451  Zr    c    -7.612022    0.000000   -2.535899    0.000000    2.650000
   452  Zr    c     2.537842    2.535899   10.149864    0.000000    2.650000
   453  Zr    c     0.001943    0.000000   10.149864    0.000000    2.650000
   454  Zr    c     2.537842   10.149864    2.535899    0.000000    2.650000
   455  Zr    c    -7.612022    0.000000    2.535899    0.000000    2.650000
   456  Zr    c     0.001943   10.149864    0.000000    0.000000    2.650000
   457  Zr    c    -7.612022    2.535899    0.000000    0.000000    2.650000
   458  Zr    c    12.687706    2.535899    0.000000    0.000000    2.650000
   459  Zr    c     0.001943  -10.149864    0.000000    0.000000    2.650000
   460  Zr    c    12.687706    0.000000    2.535899    0.000000    2.650000
   461  Zr    c     2.537842  -10.149864    2.535899    0.000000    2.650000
   462  Zr    c     0.001943    0.000000  -10.149864    0.000000    2.650000
   463  Zr    c     2.537842    2.535899  -10.149864    0.000000    2.650000
   464  Zr    c    12.687706    0.000000   -2.535899    0.000000    2.650000
   465  Zr    c     2.537842  -10.149864   -2.535899    0.000000    2.650000
   466  Zr    c    12.687706   -2.535899    0.000000    0.000000    2.650000
   467  Zr    c     5.073741  -10.149864    0.000000    0.000000    2.650000
   468  Zr    c     2.537842   -2.535899  -10.149864    0.000000    2.650000
   469  Zr    c     5.073741    0.000000  -10.149864    0.000000    2.650000
   470  O     c    -3.808263    6.346105    6.346105    0.000000    0.077000
   471  O     c    -3.808263   -6.346105   -6.346105    0.000000    0.077000
   472  O     c     8.883947    6.346105    6.346105    0.000000    0.077000
   473  O     c     8.883947   -6.346105   -6.346105    0.000000    0.077000
   474  O     c     8.883947   -6.346105    6.346105    0.000000    0.077000
   475  O     c     8.883947    6.346105   -6.346105    0.000000    0.077000
   476  O     c    -3.808263   -6.346105    6.346105    0.000000    0.077000
   477  O     c    -3.808263    6.346105   -6.346105    0.000000    0.077000
   478  O     c    11.422863    6.346977    1.271678    0.000000    0.077000
   479  O     c    -3.809136   -8.885021    1.271678    0.000000    0.077000
   480  O     c     8.884819    8.885021    1.271678    0.000000    0.077000
   481  O     c    -6.347179   -6.346977    1.271678    0.000000    0.077000
   482  O     c    -6.347179    6.346977   -1.271678    0.000000    0.077000
   483  O     c    -3.809136    8.885021   -1.271678    0.000000    0.077000
   484  O     c     8.884819   -8.885021   -1.271678    0.000000    0.077000
   485  O     c    11.422863   -6.346977   -1.271678    0.000000    0.077000
   486  O     c     8.884819    8.885021   -1.271678    0.000000    0.077000
   487  O     c    -6.347179    6.346977    1.271678    0.000000    0.077000
   488  O     c    -3.809136    8.885021    1.271678    0.000000    0.077000
   489  O     c    11.422863    6.346977   -1.271678    0.000000    0.077000
   490  O     c     8.884819   -8.885021    1.271678    0.000000    0.077000
   491  O     c    11.422863   -6.346977    1.271678    0.000000    0.077000
   492  O     c    11.422863    1.271678    6.346977    0.000000    0.077000
   493  O     c     1.266164   -8.885021    6.346977    0.000000    0.077000
   494  O     c    -3.809136    1.271678   -8.885021    0.000000    0.077000
   495  O     c     1.266164    6.346977   -8.885021    0.000000    0.077000
   496  O     c     8.884819    1.271678    8.885021    0.000000    0.077000
   497  O     c     1.266164   -6.346977    8.885021    0.000000    0.077000
   498  O     c    -6.347179    1.271678   -6.346977    0.000000    0.077000
   499  O     c     1.266164    8.885021   -6.346977    0.000000    0.077000
   500  O     c     3.809520    8.885021    6.346977    0.000000    0.077000
   501  O     c    -6.347179   -1.271678    6.346977    0.000000    0.077000
   502  O     c     3.809520    6.346977    8.885021    0.000000    0.077000
   503  O     c    -3.809136   -1.271678    8.885021    0.000000    0.077000
   504  O     c     3.809520   -6.346977   -8.885021    0.000000    0.077000
   505  O     c     8.884819   -1.271678   -8.885021    0.000000    0.077000
   506  O     c     3.809520   -8.885021   -6.346977    0.000000    0.077000
   507  O     c    11.422863   -1.271678   -6.346977    0.000000    0.077000
   508  O     c     8.884819   -1.271678    8.885021    0.000000    0.077000
   509  O     c     3.809520   -6.346977    8.885021    0.000000    0.077000
   510  O     c    -6.347179   -1.271678   -6.346977    0.000000    0.077000
   511  O     c     3.809520    8.885021   -6.346977    0.000000    0.077000
   512  O     c     1.266164    6.346977    8.885021    0.000000    0.077000
   513  O     c    -3.809136    1.271678    8.885021    0.000000    0.077000
   514  O     c     1.266164    8.885021    6.346977    0.000000    0.077000
   515  O     c    -6.347179    1.271678    6.346977    0.000000    0.077000
   516  O     c    11.422863   -1.271678    6.346977    0.000000    0.077000
   517  O     c     3.809520   -8.885021    6.346977    0.000000    0.077000
   518  O     c    -3.809136   -1.271678   -8.885021    0.000000    0.077000
   519  O     c     3.809520    6.346977   -8.885021    0.000000    0.077000
   520  O     c     1.266164   -8.885021   -6.346977    0.000000    0.077000
   521  O     c    11.422863    1.271678   -6.346977    0.000000    0.077000
   522  O     c     1.266164   -6.346977   -8.885021    0.000000    0.077000
   523  O     c     8.884819    1.271678   -8.885021    0.000000    0.077000
   524  O     c    -6.347179   -6.346977   -1.271678    0.000000    0.077000
   525  O     c    -3.809136   -8.885021   -1.271678    0.000000    0.077000
   526  Zr    c    10.147084    7.609242   -2.535257    0.000000    2.650000
   527  Zr    c    -5.071401   -7.609242   -2.535257    0.000000    2.650000
   528  Zr    c    10.147084   -2.535257    7.609242    0.000000    2.650000
   529  Zr    c     5.073099   -7.609242    7.609242    0.000000    2.650000
   530  Zr    c     5.073099    7.609242   -7.609242    0.000000    2.650000
   531  Zr    c    -5.071401   -2.535257   -7.609242    0.000000    2.650000
   532  Zr    c    10.147084    7.609242    2.535257    0.000000    2.650000
   533  Zr    c    -5.071401   -7.609242    2.535257    0.000000    2.650000
   534  Zr    c    10.147084    2.535257    7.609242    0.000000    2.650000
   535  Zr    c     0.002585   -7.609242    7.609242    0.000000    2.650000
   536  Zr    c    -5.071401    2.535257   -7.609242    0.000000    2.650000
   537  Zr    c     0.002585    7.609242   -7.609242    0.000000    2.650000
   538  Zr    c     5.073099    7.609242    7.609242    0.000000    2.650000
   539  Zr    c    -5.071401   -2.535257    7.609242    0.000000    2.650000
   540  Zr    c    -5.071401    7.609242   -2.535257    0.000000    2.650000
   541  Zr    c     0.002585    7.609242    7.609242    0.000000    2.650000
   542  Zr    c    -5.071401    2.535257    7.609242    0.000000    2.650000
   543  Zr    c    -5.071401    7.609242    2.535257    0.000000    2.650000
   544  Zr    c    10.147084    2.535257   -7.609242    0.000000    2.650000
   545  Zr    c     0.002585   -7.609242   -7.609242    0.000000    2.650000
   546  Zr    c    10.147084   -7.609242    2.535257    0.000000    2.650000
   547  Zr    c     5.073099   -7.609242   -7.609242    0.000000    2.650000
   548  Zr    c    10.147084   -2.535257   -7.609242    0.000000    2.650000
   549  Zr    c    10.147084   -7.609242   -2.535257    0.000000    2.650000
[...]
    45  Zr    s     7.607001    5.068614    0.000000    1.350000
    46  O     s     6.349145    6.349145    3.807646   -2.077000
    47  O     s    -8.885606   -3.809480   -1.268733   -2.077000
    48  O     s     8.887019    3.809280    3.809280   -2.077000
    49  Zr    s     5.073627   -5.073627    7.610192    1.350000
    50  Zr    s     2.536324    0.000000   10.150929    1.350000
    51  O     s    -6.346115    6.346115    6.346115   -2.077000
    52  O     s     8.885189    6.347070    1.271970   -2.077000
    53  Zr    s     7.609879    7.609879   -2.535647    1.350000
    54  O     s     6.346745   -3.808272    8.886315   -2.077000
    55  O     s     1.269787   -1.269787   11.432541   -2.077000
    56  Zr    s    -5.071686   10.142811    2.536194    1.350000
--------------------------------------------------------------------------------


  Final derivatives for region 1 :

--------------------------------------------------------------------------------
   No.  Atomic          x             y             z            Radius
        Label       (eV/Angs)     (eV/Angs)     (eV/Angs)       (eV/Angs)
--------------------------------------------------------------------------------
     1  O     c       0.000000      0.000000      0.000000      0.000000
     2  O     c      -0.000176      0.000000      0.000000      0.000000
     3  Zr    c       0.000000      0.000000     -0.003807      0.000000
     4  O     c      -0.000186      0.000186      0.000000      0.000000
     5  Zr    c       0.003467      0.000000      0.000000      0.000000
     6  O     c      -0.000023      0.000000      0.000026      0.000000
     7  Zr    c      -0.000933     -0.000390      0.000000      0.000000
     8  O     c      -0.000000      0.000000      0.000000      0.000000
     9  O     c       0.000022      0.000000     -0.000033      0.000000
    10  O     c       0.000016      0.000010      0.000009      0.000000
    11  Zr    c      -0.000428      0.000148      0.000000      0.000000
    12  Zr    c       0.000000      0.000000     -0.000166      0.000000
    13  O     c      -0.000012      0.000000     -0.000008      0.000000
    14  Zr    c       0.000234      0.000269      0.000000      0.000000
    15  O     c      -0.000009      0.000000      0.000001      0.000000
    16  O     c      -0.000003     -0.000010      0.000000      0.000000
    17  Zr    c      -0.000148     -0.000122      0.000000      0.000000
    18  O     c      -0.000008      0.000000     -0.000003      0.000000
    19  O     c       0.000009      0.000005      0.000006      0.000000
    20  O     c      -0.000004     -0.000000      0.000000      0.000000
    21  Zr    c      -0.000156      0.000000     -0.000124      0.000000
    22  Zr    c       0.000027      0.000000     -0.000164      0.000000
    23  O     c       0.000003      0.000000      0.000000      0.000000
    24  O     c      -0.000006     -0.000004      0.000001      0.000000
    25  Zr    c      -0.000200      0.000000      0.000018      0.000000
    26  O     c      -0.000005      0.000004     -0.000006      0.000000
    27  O     c       0.000001      0.000000     -0.000004      0.000000
    28  Zr    c       0.000081     -0.000213     -0.000063      0.000000
    29  O     s       0.000000      0.000000      0.000000      0.000000
    30  O     s       0.000976      0.000000      0.000000      0.000000
    31  Zr    s       0.000000      0.000000      0.007192      0.000000
    32  O     s       0.001651      0.003624      0.000000      0.000000
    33  Zr    s      -0.006347      0.000000      0.000000      0.000000
    34  O     s       0.000263      0.000000     -0.000449      0.000000
    35  Zr    s       0.000318     -0.000105      0.000000      0.000000
    36  O     s      -0.000010      0.000000      0.000000      0.000000
    37  O     s      -0.000033      0.000000      0.000533      0.000000
    38  O     s      -0.000444      0.000022     -0.000522      0.000000
    39  Zr    s      -0.000085      0.000001      0.000000      0.000000
    40  Zr    s       0.000000      0.000000      0.000045      0.000000
    41  O     s       0.000268      0.000000      0.000188      0.000000
    42  Zr    s       0.000307     -0.000691      0.000000      0.000000
    43  O     s       0.000268      0.000000     -0.000024      0.000000
    44  O     s       0.000057      0.000250      0.000000      0.000000
    45  Zr    s      -0.000134     -0.000077      0.000000      0.000000
    46  O     s       0.000183      0.000000      0.000071      0.000000
    47  O     s      -0.000316     -0.000062     -0.000041      0.000000
    48  O     s       0.000137      0.000088      0.000000      0.000000
    49  Zr    s      -0.000089      0.000000     -0.000065      0.000000
    50  Zr    s      -0.000061      0.000000     -0.000162      0.000000
    51  O     s      -0.000072      0.000000      0.000000      0.000000
    52  O     s       0.000228      0.000164      0.000021      0.000000
    53  Zr    s      -0.000124      0.000000      0.000041      0.000000
    54  O     s       0.000134     -0.000085      0.000189      0.000000
    55  O     s      -0.000001      0.000000      0.000100      0.000000
    56  Zr    s       0.000049     -0.000143     -0.000012      0.000000
--------------------------------------------------------------------------------

  Comparison of initial and final region 1 : 

--------------------------------------------------------------------------------
  Parameter   Initial value   Final value   Difference    Units      Percent
--------------------------------------------------------------------------------
      1 x          2.537842      2.537842     0.000000    Cartesian    0.00
      1 y          0.000000      0.000000     0.000000    Cartesian    0.00
      1 z          0.000000      0.000000     0.000000    Cartesian    0.00
      2 x          3.806763      3.913807     0.107044    Cartesian    2.81
      2 y          1.268921      1.375965     0.107044    Cartesian    8.44
      2 z          1.268921      1.375965     0.107044    Cartesian    8.44
      3 x          2.537842      2.537842     0.000000    Cartesian    0.00
      3 y          0.000000      0.000000     0.000000    Cartesian    0.00
      3 z         -2.537842     -2.425625     0.112217    Cartesian   -4.42
      4 x          6.344605      6.387420     0.042815    Cartesian    0.67
      4 y          1.268921      1.273532     0.004611    Cartesian    0.36
      4 z          1.268921      1.273532     0.004611    Cartesian    0.36
      5 x          5.075684      5.073573    -0.002110    Cartesian   -0.04
      5 y          2.537842      2.535731    -0.002110    Cartesian   -0.08
      5 z         -2.537842     -2.535731     0.002110    Cartesian   -0.08
      6 x          6.344605      6.351750     0.007146    Cartesian    0.11
      6 y          3.806763      3.813908     0.007146    Cartesian    0.19
      6 z         -1.268921     -1.270447    -0.001526    Cartesian    0.12
      7 x          7.613525      7.593304    -0.020221    Cartesian   -0.27
      7 y          2.537842      2.514160    -0.023682    Cartesian   -0.93
      7 z          0.000000      0.000000     0.000000    Cartesian    0.00
      8 x          6.344605      6.357702     0.013098    Cartesian    0.21
      8 y          3.806763      3.819860     0.013098    Cartesian    0.34
      8 z          3.806763      3.819860     0.013098    Cartesian    0.34
      9 x          3.806763      3.806994     0.000232    Cartesian    0.01
      9 y         -1.268921     -1.269153    -0.000232    Cartesian    0.02
      9 z          6.344605      6.369194     0.024589    Cartesian    0.39
     10 x         -1.268921     -1.272960    -0.004039    Cartesian    0.32
     10 y          1.268921      1.274986     0.006065    Cartesian    0.48
     10 z         -6.344605     -6.353107    -0.008502    Cartesian    0.13
     11 x          7.613525      7.610302    -0.003224    Cartesian   -0.04
     11 y         -2.537842     -2.532656     0.005186    Cartesian   -0.20
     11 z         -5.075684     -5.072460     0.003224    Cartesian   -0.06
     12 x          2.537842      2.537842     0.000000    Cartesian    0.00
     12 y          0.000000      0.000000     0.000000    Cartesian    0.00
     12 z          7.613525      7.614896     0.001370    Cartesian    0.02
     13 x          6.344605      6.347039     0.002434    Cartesian    0.04
     13 y         -3.806763     -3.809197    -0.002434    Cartesian    0.06
     13 z          6.344605      6.351726     0.007121    Cartesian    0.11
     14 x         -5.075684     -5.065620     0.010064    Cartesian   -0.20
     14 y          2.537842      2.533349    -0.004492    Cartesian   -0.18
     14 z          2.537842      2.533349    -0.004492    Cartesian   -0.18
     15 x          8.882446      8.884085     0.001639    Cartesian    0.02
     15 y          6.344605      6.346244     0.001639    Cartesian    0.03
     15 z         -1.268921     -1.268630     0.000291    Cartesian   -0.02
     16 x          3.806763      3.807163     0.000401    Cartesian    0.01
     16 y          8.882446      8.899595     0.017149    Cartesian    0.19
     16 z          1.268921      1.269321     0.000401    Cartesian    0.03
     17 x         10.151367     10.143412    -0.007955    Cartesian   -0.08
     17 y          5.075684      5.067015    -0.008668    Cartesian   -0.17
     17 z          0.000000      0.000000     0.000000    Cartesian    0.00
     18 x          8.882446      8.886777     0.004330    Cartesian    0.05
     18 y          6.344605      6.348935     0.004330    Cartesian    0.07
     18 z          3.806763      3.807567     0.000804    Cartesian    0.02
     19 x         -6.344605     -6.347569    -0.002964    Cartesian    0.05
     19 y         -3.806763     -3.809233    -0.002470    Cartesian    0.06
     19 z         -1.268921     -1.268673     0.000248    Cartesian   -0.02
     20 x         11.420288     11.424486     0.004198    Cartesian    0.04
     20 y          3.806763      3.809108     0.002345    Cartesian    0.06
     20 z          3.806763      3.809108     0.002345    Cartesian    0.06
     21 x          7.613525      7.610931    -0.002594    Cartesian   -0.03
     21 y         -5.075684     -5.073089     0.002594    Cartesian   -0.05
     21 z          7.613525      7.609466    -0.004060    Cartesian   -0.05
     22 x          5.075684      5.073741    -0.001943    Cartesian   -0.04
     22 y          0.000000      0.000000     0.000000    Cartesian    0.00
     22 z         10.151367     10.149864    -0.001504    Cartesian   -0.01
     23 x         -3.806763     -3.808263    -0.001500    Cartesian    0.04
     23 y          6.344605      6.346105     0.001500    Cartesian    0.02
     23 z          6.344605      6.346105     0.001500    Cartesian    0.02
     24 x         11.420288     11.422863     0.002575    Cartesian    0.02
     24 y          6.344605      6.346977     0.002373    Cartesian    0.04
     24 z          1.268921      1.271678     0.002757    Cartesian    0.22
     25 x         10.151367     10.147084    -0.004283    Cartesian   -0.04
     25 y          7.613525      7.609242    -0.004283    Cartesian   -0.06
     25 z         -2.537842     -2.535257     0.002585    Cartesian   -0.10
     26 x          8.882446      8.884598     0.002152    Cartesian    0.02
     26 y         -3.806763     -3.808304    -0.001542    Cartesian    0.04
     26 z          8.882446      8.886201     0.003754    Cartesian    0.04
     27 x          3.806763      3.807615     0.000852    Cartesian    0.02
     27 y         -1.268921     -1.269773    -0.000852    Cartesian    0.07
     27 z         11.420288     11.432262     0.011974    Cartesian    0.10
     28 x         -2.537842     -2.533200     0.004642    Cartesian   -0.18
     28 y         10.151367     10.141368    -0.009999    Cartesian   -0.10
     28 z          2.537842      2.535922    -0.001919    Cartesian   -0.08
     29 x          2.537842      2.537842     0.000000    Cartesian    0.00
     29 y          0.000000      0.000000     0.000000    Cartesian    0.00
     29 z          0.000000      0.000000     0.000000    Cartesian    0.00
     30 x          3.806763      3.916045     0.109282    Cartesian    2.87
     30 y          1.268921      1.378203     0.109282    Cartesian    8.61
     30 z          1.268921      1.378203     0.109282    Cartesian    8.61
     31 x          2.537842      2.537842     0.000000    Cartesian    0.00
     31 y          0.000000      0.000000     0.000000    Cartesian    0.00
     31 z         -2.537842     -2.437823     0.100019    Cartesian   -3.94
     32 x          6.344605      6.389972     0.045367    Cartesian    0.72
     32 y          1.268921      1.274443     0.005522    Cartesian    0.44
     32 z          1.268921      1.274443     0.005522    Cartesian    0.44
     33 x          5.075684      5.082932     0.007249    Cartesian    0.14
     33 y          2.537842      2.545091     0.007249    Cartesian    0.29
     33 z         -2.537842     -2.545091    -0.007249    Cartesian    0.29
     34 x          6.344605      6.351823     0.007218    Cartesian    0.11
     34 y          3.806763      3.813981     0.007218    Cartesian    0.19
     34 z         -1.268921     -1.270792    -0.001871    Cartesian    0.15
     35 x          7.613525      7.598608    -0.014917    Cartesian   -0.20
     35 y          2.537842      2.519102    -0.018740    Cartesian   -0.74
     35 z          0.000000      0.000000     0.000000    Cartesian    0.00
     36 x          6.344605      6.357772     0.013167    Cartesian    0.21
     36 y          3.806763      3.819930     0.013167    Cartesian    0.35
     36 z          3.806763      3.819930     0.013167    Cartesian    0.35
     37 x          3.806763      3.807118     0.000356    Cartesian    0.01
     37 y         -1.268921     -1.269277    -0.000356    Cartesian    0.03
     37 z          6.344605      6.369753     0.025148    Cartesian    0.40
     38 x         -1.268921     -1.273384    -0.004463    Cartesian    0.35
     38 y          1.268921      1.275423     0.006502    Cartesian    0.51
     38 z         -6.344605     -6.353726    -0.009121    Cartesian    0.14
     39 x          7.613525      7.611276    -0.002249    Cartesian   -0.03
     39 y         -2.537842     -2.533652     0.004190    Cartesian   -0.17
     39 z         -5.075684     -5.073434     0.002249    Cartesian   -0.04
     40 x          2.537842      2.537842     0.000000    Cartesian    0.00
     40 y          0.000000      0.000000     0.000000    Cartesian    0.00
     40 z          7.613525      7.617361     0.003835    Cartesian    0.05
     41 x          6.344605      6.347137     0.002533    Cartesian    0.04
     41 y         -3.806763     -3.809296    -0.002533    Cartesian    0.07
     41 z          6.344605      6.352020     0.007415    Cartesian    0.12
     42 x         -5.075684     -5.068347     0.007336    Cartesian   -0.14
     42 y          2.537842      2.534142    -0.003700    Cartesian   -0.15
     42 z          2.537842      2.534142    -0.003700    Cartesian   -0.15
     43 x          8.882446      8.884150     0.001703    Cartesian    0.02
     43 y          6.344605      6.346308     0.001703    Cartesian    0.03
     43 z         -1.268921     -1.268711     0.000210    Cartesian   -0.02
     44 x          3.806763      3.807106     0.000344    Cartesian    0.01
     44 y          8.882446      8.900029     0.017583    Cartesian    0.20
     44 z          1.268921      1.269264     0.000344    Cartesian    0.03
     45 x         10.151367     10.144843    -0.006524    Cartesian   -0.06
     45 y          5.075684      5.068614    -0.007070    Cartesian   -0.14
     45 z          0.000000      0.000000     0.000000    Cartesian    0.00
     46 x          8.882446      8.886987     0.004541    Cartesian    0.05
     46 y          6.344605      6.349145     0.004541    Cartesian    0.07
     46 z          3.806763      3.807646     0.000884    Cartesian    0.02
     47 x         -6.344605     -6.347764    -0.003160    Cartesian    0.05
     47 y         -3.806763     -3.809480    -0.002717    Cartesian    0.07
     47 z         -1.268921     -1.268733     0.000188    Cartesian   -0.01
     48 x         11.420288     11.424861     0.004572    Cartesian    0.04
     48 y          3.806763      3.809280     0.002517    Cartesian    0.07
     48 z          3.806763      3.809280     0.002517    Cartesian    0.07
     49 x          7.613525      7.611469    -0.002056    Cartesian   -0.03
     49 y         -5.075684     -5.073627     0.002056    Cartesian   -0.04
     49 z          7.613525      7.610192    -0.003334    Cartesian   -0.04
     50 x          5.075684      5.074166    -0.001518    Cartesian   -0.03
     50 y          0.000000      0.000000     0.000000    Cartesian    0.00
     50 z         10.151367     10.150929    -0.000438    Cartesian   -0.00
     51 x         -3.806763     -3.808273    -0.001510    Cartesian    0.04
     51 y          6.344605      6.346115     0.001510    Cartesian    0.02
     51 z          6.344605      6.346115     0.001510    Cartesian    0.02
     52 x         11.420288     11.423031     0.002742    Cartesian    0.02
     52 y          6.344605      6.347070     0.002465    Cartesian    0.04
     52 z          1.268921      1.271970     0.003049    Cartesian    0.24
     53 x         10.151367     10.147721    -0.003646    Cartesian   -0.04
     53 y          7.613525      7.609879    -0.003646    Cartesian   -0.05
     53 z         -2.537842     -2.535647     0.002195    Cartesian   -0.09
     54 x          8.882446      8.884586     0.002140    Cartesian    0.02
     54 y         -3.806763     -3.808272    -0.001509    Cartesian    0.04
     54 z          8.882446      8.886315     0.003869    Cartesian    0.04
     55 x          3.806763      3.807629     0.000866    Cartesian    0.02
     55 y         -1.268921     -1.269787    -0.000866    Cartesian    0.07
     55 z         11.420288     11.432541     0.012253    Cartesian    0.11
     56 x         -2.537842     -2.533844     0.003998    Cartesian   -0.16
     56 y         10.151367     10.142811    -0.008557    Cartesian   -0.08
     56 z          2.537842      2.536194    -0.001647    Cartesian   -0.06
--------------------------------------------------------------------------------


  Time to end of optimisation  =        6.1867 seconds


  Peak dynamic memory used =     281.23 MB 


  Timing analysis for GULP :

--------------------------------------------------------------------------------
  Task / Subroutine                                          Time (Seconds)
--------------------------------------------------------------------------------
  Calculation of reciprocal space energy and derivatives          0.0004
  Calculation of reciprocal space energy using symmetry           0.0004
  Calculation of real space energy and derivatives                0.0032
  Calculation of real space energy using symmetry                 0.0126
  Calculation for region 1 energy and derivatives (2-b)           2.7157
  Calculation for region 2a energy                                2.9503
  Calculation for region 2b energy                                0.0002
  Calculation and manipulation of Hessian matrix                  0.0886
  Calculation of matrix inversion                                 0.0008
  Symmetry generation of equivalent positions                     0.0031
--------------------------------------------------------------------------------
  Total CPU time                                                  6.1867
--------------------------------------------------------------------------------


  Dump file written as ZrO2.grs


  Job Finished at 12:37.34  6th October    2020                               

