********************************************************************************
*                       GENERAL UTILITY LATTICE PROGRAM                        *
*                                 Julian Gale                                  *
*                       Curtin Institute for Computation                       *
*                    School of Molecular and Life Sciences                     *
*                    Curtin University, Western Australia                      *
********************************************************************************
* Version = 5.2.0 * Last modified =  10th September 2020                       *
********************************************************************************
* Zirconia doped with calcium                                                  *
*  optimise     - perform optimisation run                                     *
*  conp         - constant pressure calculation                                *
*  property     - calculate properties for final geometry                      *
*  defect       - perform defect calculation after bulk run                    *
*  distance     - calculate distances                                          *
*  compare      - compare initial and final structures                         *
********************************************************************************
* Zirconia doped with calcium                                                  *
********************************************************************************


  Job Started  at 12:34.01  6th October    2020                               

  Number of CPUs =     1


  Total number of configurations input =      1

********************************************************************************
*  Input for Configuration =   1 : ZrO2                                        *
********************************************************************************

  Formula = ZrO2                                                        

  Number of irreducible atoms/shells =       4


  Total number atoms/shells =       6

  Dimensionality = 3               :  Bulk   


  Symmetry :

  Crystal family                   :  Cubic       
  Crystal class  (Groth - 1921)    :  Cubic Hexakisoctahedral              

  Space group (centrosymmetric)    :  F M 3 M         

  Patterson group                  :  F m -3 m 

  Cartesian lattice vectors (Angstroms) :

        0.000000    2.535000    2.535000
        2.535000    0.000000    2.535000
        2.535000    2.535000    0.000000

  Primitive cell parameters :            Full cell parameters :

  a =   3.5850    alpha =  60.0000       a =   5.0700    alpha =  90.0000
  b =   3.5850    beta  =  60.0000       b =   5.0700    beta  =  90.0000
  c =   3.5850    gamma =  60.0000       c =   5.0700    gamma =  90.0000

  Initial volumes (Angstroms**3):

  Primitive cell =          32.580961    Full cell =         130.323843

  Temperature of configuration =   0.00     K 

  Pressure of configuration =         0.000 GPa 

  Fractional coordinates of asymmetric unit :

--------------------------------------------------------------------------------
   No.  Atomic       x           y          z         Charge      Occupancy
        Label      (Frac)      (Frac)     (Frac)        (e)         (Frac)  
--------------------------------------------------------------------------------
      1 Zr    c    0.000000    0.000000    0.000000     2.65000    1.000000    
      2 O     c    0.250000    0.250000    0.250000     0.07700    1.000000    
      3 Zr    s    0.000000    0.000000    0.000000     1.35000    1.000000    
      4 O     s    0.250000    0.250000    0.250000    -2.07700    1.000000    
--------------------------------------------------------------------------------


  Constraints : 

--------------------------------------------------------------------------------
  Constraint no.      Unconstrained     Constrained    Coefficient    Offset
                         Variable         Variable
--------------------------------------------------------------------------------
           1              Strain 1        Strain 2       1.00000      0.0000
           2              Strain 1        Strain 3       1.00000      0.0000
--------------------------------------------------------------------------------


  Distance calculation :


  Cutoff for distances  =      4.000000 Angstroms

--------------------------------------------------------------------------------
  Asymmetric unit site  Full lattice sites    No.  Distance      No.  Distance
      No.   At.No.            At.No.                (Angs)             (Angs) 
--------------------------------------------------------------------------------
       1   Zr    core        Zr    core        12    3.5850
                             Zr    shell       12    3.5850
                             O     core         8    2.1954
                             O     shell        8    2.1954
--------------------------------------------------------------------------------
       2   O     core        Zr    core         4    2.1954
                             Zr    shell        4    2.1954
                             O     core         6    2.5350       12    3.5850
                             O     shell        6    2.5350       12    3.5850
--------------------------------------------------------------------------------
       3   Zr    shell       Zr    core        12    3.5850
                             Zr    shell       12    3.5850
                             O     core         8    2.1954
                             O     shell        8    2.1954
--------------------------------------------------------------------------------
       4   O     shell       Zr    core         4    2.1954
                             Zr    shell        4    2.1954
                             O     core         6    2.5350       12    3.5850
                             O     shell        6    2.5350       12    3.5850
--------------------------------------------------------------------------------



********************************************************************************
*  General input information                                                   *
********************************************************************************

  Species output for all configurations : 

--------------------------------------------------------------------------------
  Species    Type    Atomic    Atomic    Charge       Radii (Angs)     Library
                     Number     Mass       (e)     Cova   Ionic  VDW   Symbol
--------------------------------------------------------------------------------
    Zr       Core       40      91.22   2.650000   1.560  0.000  2.330          
    Zr       Shell      40       0.00   1.350000   1.560  0.000  2.330          
    O        Core        8      16.00   0.077000   0.730  0.000  1.360          
    O        Shell       8       0.00  -2.077000   0.730  0.000  1.360          
--------------------------------------------------------------------------------


  Lattice summation method               =    Ewald          (3-D)
                                         =    Parry          (2-D)
                                         =    Saunders et al (1-D)
  Accuracy factor for lattice sums       =   12.000


  Analytic derivatives to be used

  Time limit = Infinity

  Maximum range for interatomic potentials =    100000.000000 Angstroms

  General interatomic potentials :

--------------------------------------------------------------------------------
Atom  Types   Potential      Parameter       Value         Units   Cutoffs(Ang)
  1     2                                                            Min /  Max 
--------------------------------------------------------------------------------
O    s Zr   s Buckingham    Buckingham A     985.86900    eV        0.000 12.000
                            Buckingham rho  0.37600000    Ang       
                            Buckingham C     0.0000000    eV*Ang^6  
--------------------------------------------------------------------------------
O    s O    s Buckingham    Buckingham A     22764.300    eV        0.000 12.000
                            Buckingham rho  0.14900000    Ang       
                            Buckingham C     27.890000    eV*Ang^6  
--------------------------------------------------------------------------------
Zr   c Zr   s Spring (c-s)  Spring k 2       169.61700    eV*Ang^-2 0.000  0.800
                            Spring k 4       0.0000000    eV*Ang^-4 
--------------------------------------------------------------------------------
O    c O    s Spring (c-s)  Spring k 2       27.290000    eV*Ang^-2 0.000  0.800
                            Spring k 4       0.0000000    eV*Ang^-4 
--------------------------------------------------------------------------------

********************************************************************************
*  Output for configuration   1 : ZrO2                                         *
********************************************************************************


  Components of energy : 

--------------------------------------------------------------------------------
  Interatomic potentials     =          22.43756329 eV    
  Monopole - monopole (real) =         -15.67991073 eV    
  Monopole - monopole (recip)=        -116.52038266 eV    
  Monopole - monopole (total)=        -132.20029339 eV    
--------------------------------------------------------------------------------
  Total lattice energy : 
    Primitive unit cell      =        -109.76273010 eV    
    Non-primitive unit cell  =        -439.05092039 eV    
--------------------------------------------------------------------------------
  Total lattice energy (in kJmol-1): 
    Primitive unit cell      =          -10590.4256 kJ/(mole unit cells)
    Non-primitive unit cell  =          -42361.7023 kJ/(mole unit cells)
--------------------------------------------------------------------------------


  Number of variables =        1

  Maximum number of calculations  =          1000
  Maximum Hessian update interval =            10
  Maximum step size               =   1.000000000
  Maximum parameter tolerance     =   0.000010000
  Maximum function  tolerance     =   0.000010000
  Maximum gradient  tolerance     =   0.001000000
  Maximum gradient  component     =   0.010000000

  Symmetry constrained optimisation

  Symmetry used for second derivatives

  Cell parameters to be optimised using strains

  Newton-Raphson optimiser to be used

  BFGS hessian update to be used

  Lower half triangular hessian to be used

  Start of bulk optimisation :

  Cycle:      0 Energy:      -109.762730  Gnorm:      0.588311  CPU:    0.032
  ** Hessian calculated **
  Cycle:      1 Energy:      -109.763059  Gnorm:      0.000316  CPU:    0.039


  **** Optimisation achieved ****


  Final energy =    -109.76305939 eV
  Final Gnorm  =       0.00000099

  Components of energy : 

--------------------------------------------------------------------------------
  Interatomic potentials     =          22.28919976 eV    
  Monopole - monopole (real) =         -15.66235280 eV    
  Monopole - monopole (recip)=        -116.38990634 eV    
  Monopole - monopole (total)=        -132.05225914 eV    
--------------------------------------------------------------------------------
  Total lattice energy : 
    Primitive unit cell      =        -109.76305939 eV    
    Non-primitive unit cell  =        -439.05223754 eV    
--------------------------------------------------------------------------------
  Total lattice energy (in kJmol-1): 
    Primitive unit cell      =          -10590.4573 kJ/(mole unit cells)
    Non-primitive unit cell  =          -42361.8294 kJ/(mole unit cells)
--------------------------------------------------------------------------------

  Final asymmetric unit coordinates :

--------------------------------------------------------------------------------
   No.  Atomic        x           y           z         Radius
        Label       (Frac)      (Frac)      (Frac)       (Angs) 
--------------------------------------------------------------------------------
     1  Zr    c     0.000000    0.000000    0.000000    0.000000
     2  O     c     0.250000    0.250000    0.250000    0.000000
     3  Zr    s     0.000000    0.000000    0.000000    0.000000
     4  O     s     0.250000    0.250000    0.250000    0.000000
--------------------------------------------------------------------------------

  Final Cartesian lattice vectors (Angstroms) :

        0.000000    2.537842    2.537842
        2.537842    0.000000    2.537842
        2.537842    2.537842    0.000000


  Final cell parameters and derivatives :

--------------------------------------------------------------------------------
       a            3.589050 Angstrom     dE/de1(xx)    -0.000001 eV/strain
       b            3.589050 Angstrom     dE/de2(yy)     0.000000 eV/strain
       c            3.589050 Angstrom     dE/de3(zz)     0.000000 eV/strain
       alpha       60.000000 Degrees      dE/de4(yz)     0.000000 eV/strain
       beta        60.000000 Degrees      dE/de5(xz)     0.000000 eV/strain
       gamma       60.000000 Degrees      dE/de6(xy)     0.000000 eV/strain
--------------------------------------------------------------------------------

  Primitive cell volume =            32.690656 Angs**3

  Density of cell =      6.259124 g/cm**3

  Non-primitive lattice parameters :

  a    =     5.075684  b   =     5.075684  c    =     5.075684
  alpha=    90.000000  beta=    90.000000  gamma=    90.000000

  Non-primitive cell volume =           130.762624 Angs**3


  Final internal derivatives :

--------------------------------------------------------------------------------
   No.  Atomic          a             b             c           Radius
        Label          (eV)          (eV)          (eV)        (eV/Angs)
--------------------------------------------------------------------------------
      1 Zr    c       0.000000      0.000000      0.000000      0.000000
      2 O     c       0.000000      0.000000      0.000000      0.000000
      3 Zr    s       0.000000      0.000000      0.000000      0.000000
      4 O     s       0.000000      0.000000      0.000000      0.000000
--------------------------------------------------------------------------------
  Maximum abs         0.000000      0.000000      0.000000      0.000000
--------------------------------------------------------------------------------

  Comparison of initial and final structures : 

--------------------------------------------------------------------------------
  Parameter   Initial value   Final value   Difference    Units      Percent
--------------------------------------------------------------------------------
    Volume       130.323843    130.762624     0.438781    Angs**3      0.34
    a              5.070000      5.075684     0.005684    Angstroms    0.11
    b              5.070000      5.075684     0.005684    Angstroms    0.11
    c              5.070000      5.075684     0.005684    Angstroms    0.11
    alpha         90.000000     90.000000     0.000000    Degrees      0.00
    beta          90.000000     90.000000     0.000000    Degrees      0.00
    gamma         90.000000     90.000000     0.000000    Degrees      0.00
      1 x          0.000000      0.000000     0.000000    Fractional   0.00
      1 y          0.000000      0.000000     0.000000    Fractional   0.00
      1 z          0.000000      0.000000     0.000000    Fractional   0.00
      2 x          0.250000      0.250000     0.000000    Fractional   0.00
      2 y          0.250000      0.250000     0.000000    Fractional   0.00
      2 z          0.250000      0.250000     0.000000    Fractional   0.00
      3 x          0.000000      0.000000     0.000000    Fractional   0.00
      3 y          0.000000      0.000000     0.000000    Fractional   0.00
      3 z          0.000000      0.000000     0.000000    Fractional   0.00
      4 x          0.250000      0.250000     0.000000    Fractional   0.00
      4 y          0.250000      0.250000     0.000000    Fractional   0.00
      4 z          0.250000      0.250000     0.000000    Fractional   0.00
--------------------------------------------------------------------------------


  Distance calculation :


  Cutoff for distances  =      4.000000 Angstroms

--------------------------------------------------------------------------------
  Asymmetric unit site  Full lattice sites    No.  Distance      No.  Distance
      No.   At.No.            At.No.                (Angs)             (Angs) 
--------------------------------------------------------------------------------
       1   Zr    core        Zr    core        12    3.5891
                             Zr    shell       12    3.5891
                             O     core         8    2.1978
                             O     shell        8    2.1978
--------------------------------------------------------------------------------
       2   O     core        Zr    core         4    2.1978
                             Zr    shell        4    2.1978
                             O     core         6    2.5378       12    3.5891
                             O     shell        6    2.5378       12    3.5891
--------------------------------------------------------------------------------
       3   Zr    shell       Zr    core        12    3.5891
                             Zr    shell       12    3.5891
                             O     core         8    2.1978
                             O     shell        8    2.1978
--------------------------------------------------------------------------------
       4   O     shell       Zr    core         4    2.1978
                             Zr    shell        4    2.1978
                             O     core         6    2.5378       12    3.5891
                             O     shell        6    2.5378       12    3.5891
--------------------------------------------------------------------------------



  Born effective charge tensors : 

-------------------------------------------------------------------------------
  Atom             x           y             z
-------------------------------------------------------------------------------
    1 Zr    x       3.6770      0.0000      0.0000
            y       0.0000      3.6770      0.0000
            z       0.0000      0.0000      3.6770
-------------------------------------------------------------------------------
    2 O     x      -1.8385      0.0000      0.0000
            y       0.0000     -1.8385     -0.0000
            z       0.0000     -0.0000     -1.8385
-------------------------------------------------------------------------------




  Elastic Constant Matrix: (Units=GPa)

-------------------------------------------------------------------------------
  Indices      1         2         3         4         5         6    
-------------------------------------------------------------------------------
       1    616.2933  119.6612  119.6612   -0.0000   -0.0000   -0.0000
       2    119.6612  616.2933  119.6612   -0.0000   -0.0000   -0.0000
       3    119.6612  119.6612  616.2933   -0.0000   -0.0000   -0.0000
       4     -0.0000   -0.0000   -0.0000  100.8598    0.0000   -0.0000
       5     -0.0000   -0.0000   -0.0000    0.0000  100.8598    0.0000
       6     -0.0000   -0.0000   -0.0000   -0.0000    0.0000  100.8598
-------------------------------------------------------------------------------


  Elastic Compliance Matrix: (Units=1/GPa)

-------------------------------------------------------------------------------
  Indices      1         2         3         4         5         6    
-------------------------------------------------------------------------------
       1    0.001732 -0.000282 -0.000282  0.000000  0.000000  0.000000
       2   -0.000282  0.001732 -0.000282 -0.000000  0.000000  0.000000
       3   -0.000282 -0.000282  0.001732  0.000000  0.000000  0.000000
       4    0.000000 -0.000000  0.000000  0.009915 -0.000000  0.000000
       5    0.000000  0.000000  0.000000 -0.000000  0.009915 -0.000000
       6    0.000000  0.000000  0.000000  0.000000 -0.000000  0.009915
-------------------------------------------------------------------------------

  Mechanical properties :

-------------------------------------------------------------------------------
  Convention :                    Reuss         Voigt         Hill
-------------------------------------------------------------------------------
  Bulk  Modulus (GPa)     =     285.20524     285.20524     285.20524
  Shear Modulus (GPa)     =     132.28031     159.84228     146.06129
-------------------------------------------------------------------------------
  Velocity S-wave (km/s)  =       4.59717       5.05346       4.83071
  Velocity P-wave (km/s)  =       8.58749       8.92280       8.75675
-------------------------------------------------------------------------------
  Compressibility (1/GPa) =    0.00350625
-------------------------------------------------------------------------------
  Stress axis :                     x             y             z
-------------------------------------------------------------------------------
  Youngs Moduli (GPa)     =     577.38110     577.38110     577.38110
-------------------------------------------------------------------------------
  Poissons Ratio (x)      =                     0.16259       0.16259
  Poissons Ratio (y)      =       0.16259                     0.16259
  Poissons Ratio (z)      =       0.16259       0.16259
-------------------------------------------------------------------------------


  Piezoelectric Strain Matrix: (Units=C/m**2)

-------------------------------------------------------------------------------
  Indices      1         2         3         4         5         6    
-------------------------------------------------------------------------------
       x    -0.00000   0.00000   0.00000   0.00000   0.00000   0.00000
       y    -0.00000  -0.00000  -0.00000   0.00000   0.00000   0.00000
       z    -0.00000  -0.00000  -0.00000   0.00000   0.00000   0.00000
-------------------------------------------------------------------------------


  Piezoelectric Stress Matrix: (Units=10**-11 C/N)

-------------------------------------------------------------------------------
  Indices      1         2         3         4         5         6    
-------------------------------------------------------------------------------
       x    -0.00000   0.00000   0.00000   0.00000   0.00000   0.00000
       y    -0.00000  -0.00000  -0.00000   0.00000   0.00000   0.00000
       z     0.00000   0.00000  -0.00000   0.00000   0.00000   0.00000
-------------------------------------------------------------------------------


  Static dielectric constant tensor : 

-------------------------------------------------------------------------------
              x         y         z
-------------------------------------------------------------------------------
       x    26.88485   0.00000   0.00000
       y     0.00000  26.88485   0.00000
       z     0.00000   0.00000  26.88485
--------------------------------------------------------------------------------

  High frequency dielectric constant tensor : 

-------------------------------------------------------------------------------
              x         y         z
-------------------------------------------------------------------------------
       x     2.63099   0.00000   0.00000
       y     0.00000   2.63099   0.00000
       z     0.00000   0.00000   2.63099
-------------------------------------------------------------------------------

  Static refractive indices : 

-------------------------------------------------------------------------------
    1 =    5.18506      2 =    5.18506      3 =    5.18506
-------------------------------------------------------------------------------

  High frequency refractive indices : 

-------------------------------------------------------------------------------
    1 =    1.62203      2 =    1.62203      3 =    1.62203
-------------------------------------------------------------------------------


  Time to end of optimisation =       0.0478 seconds

********************************************************************************
*  Defect calculation for configuration   1 :                                  *
********************************************************************************

  Total number of defects =      1

  Total charge on defect  =  -2.00

  Defect centre is at   0.2500   0.2500   0.0000  Frac

  Region 1 radius =  12.0000      Number of ions =   1362

  Number of symmetry inequivalent region 1 ions  =    224

  Region 2 radius =  24.0000      Number of ions =   9264

  Number of symmetry inequivalent region 2a ions =   1296

  Region 2a mode = 4 : screened electrostatics due to region 1 
                       neglect correction to region 1 forces from 2a
                       region 2a displacements based on defects only

  Region 2a ions will only interact with defects in region 1

  Interstitials:

--------------------------------------------------------------------------------
    Specification type     Symbol/Number         x          y          z
--------------------------------------------------------------------------------
    Atom/Fractional         O                0.250000   0.250000   0.000000
--------------------------------------------------------------------------------


  Symmetry reduced region 1 (Relative to defect centre) :

--------------------------------------------------------------------------------
   No.   Atomic       x            y             z       Radius  Multiplicity   
         Label      (Angs)       (Angs)        (Angs)    (Angs)     
--------------------------------------------------------------------------------
     1  O     c      0.0000       0.0000       0.0000    0.0000     1    Defect
     2  O     c      0.0000       0.0000       1.2689 *  0.0000     2          
     3  Zr    c      1.2689 *     1.2689       0.0000    0.0000     2          
     4  O     c      0.0000 *     2.5378 *    -1.2689 *  0.0000     8          
     5  Zr    c      1.2689 *    -1.2689       2.5378 *  0.0000     4          
     6  O     c      2.5378 *     2.5378       1.2689 *  0.0000     4          
     7  O     c     -2.5378 *     2.5378       1.2689 *  0.0000     4          
     8  O     c      0.0000       0.0000      -3.8068 *  0.0000     2          
     9  Zr    c     -3.8068 *     1.2689 *     0.0000    0.0000     4          
    10  O     c      2.5378 *     0.0000 *     3.8068 *  0.0000     8          
    11  Zr    c      1.2689 *     3.8068 *    -2.5378 *  0.0000     8          
    12  O     c     -0.0000 *     5.0757 *    -1.2689 *  0.0000     8          
    13  O     c     -2.5378 *     2.5378      -3.8068 *  0.0000     4          
    14  O     c     -2.5378 *    -2.5378      -3.8068 *  0.0000     4          
    15  Zr    c      3.8068 *     3.8068       0.0000    0.0000     2          
    16  Zr    c      1.2689 *     1.2689       5.0757 *  0.0000     4          
    17  O     c      2.5378 *     5.0757 *     1.2689 *  0.0000     8          
    18  O     c      2.5378 *    -5.0757 *    -1.2689 *  0.0000     8          
    19  Zr    c     -3.8068 *     3.8068       2.5378 *  0.0000     4          
    20  O     c      0.0000       0.0000       6.3446 *  0.0000     2          
    21  O     c     -0.0000 *     5.0757 *     3.8068 *  0.0000     8          
    22  Zr    c      3.8068 *    -1.2689 *    -5.0757 *  0.0000     8          
    23  Zr    c      1.2689 *     6.3446 *     0.0000    0.0000     4          
    24  O     c      2.5378 *     5.0757 *    -3.8068 *  0.0000     8          
    25  O     c     -2.5378 *     0.0000 *    -6.3446 *  0.0000     8          
    26  O     c     -2.5378 *     5.0757 *     3.8068 *  0.0000     8          
    27  Zr    c     -6.3446 *     1.2689 *    -2.5378 *  0.0000     8          
    28  O     c      2.5378 *    -2.5378       6.3446 *  0.0000     4          
    29  O     c      2.5378 *     2.5378       6.3446 *  0.0000     4          
    30  O     c      5.0757 *     5.0757      -1.2689 *  0.0000     4          
    31  O     c     -5.0757 *     5.0757       1.2689 *  0.0000     4          
    32  Zr    c     -6.3446 *     3.8068 *     0.0000    0.0000     4          
    33  Zr    c      3.8068 *     3.8068       5.0757 *  0.0000     4          
    34  O     c      7.6135 *     0.0000 *    -1.2689 *  0.0000     8          
    35  Zr    c      3.8068 *     6.3446 *    -2.5378 *  0.0000     8          
    36  Zr    c      1.2689 *    -1.2689       7.6135 *  0.0000     4          
    37  O     c      2.5378 *     7.6135 *     1.2689 *  0.0000     8          
    38  O     c     -7.6135 *     2.5378 *     1.2689 *  0.0000     8          
    39  O     c      5.0757 *     5.0757       3.8068 *  0.0000     4          
    40  O     c      5.0757 *     0.0000 *     6.3446 *  0.0000     8          
    41  O     c     -5.0757 *     5.0757      -3.8068 *  0.0000     4          
    42  Zr    c      6.3446 *     1.2689 *    -5.0757 *  0.0000     8          
    43  O     c     -5.0757 *     2.5378 *    -6.3446 *  0.0000     8          
    44  O     c      5.0757 *     2.5378 *     6.3446 *  0.0000     8          
    45  O     c      0.0000 *     7.6135 *     3.8068 *  0.0000     8          
    46  Zr    c      3.8068 *     1.2689 *     7.6135 *  0.0000     8          
    47  O     c      2.5378 *     7.6135 *    -3.8068 *  0.0000     8          
    48  O     c     -7.6135 *     2.5378 *    -3.8068 *  0.0000     8          
    49  O     c      0.0000       0.0000      -8.8824 *  0.0000     2          
    50  Zr    c      6.3446 *     6.3446       0.0000    0.0000     2          
    51  Zr    c     -6.3446 *     3.8068 *     5.0757 *  0.0000     8          
    52  Zr    c     -1.2689 *     8.8824 *     0.0000    0.0000     4          
    53  O     c      5.0757 *     7.6135 *    -1.2689 *  0.0000     8          
    54  O     c     -7.6135 *     5.0757 *    -1.2689 *  0.0000     8          
    55  O     c      2.5378 *     0.0000 *     8.8824 *  0.0000     8          
    56  Zr    c      3.8068 *    -3.8068       7.6135 *  0.0000     4          
    57  Zr    c     -6.3446 *     6.3446      -2.5378 *  0.0000     4          
    58  Zr    c      1.2689 *     8.8824 *    -2.5378 *  0.0000     8          
    59  O     c      5.0757 *     5.0757       6.3446 *  0.0000     4          
    60  O     c     -5.0757 *     5.0757       6.3446 *  0.0000     4          
    61  O     c     -2.5378 *     2.5378      -8.8824 *  0.0000     4          
    62  O     c     -2.5378 *    -2.5378      -8.8824 *  0.0000     4          
    63  Zr    c      3.8068 *     8.8824 *     0.0000    0.0000     4          
    64  O     c      7.6135 *     5.0757 *     3.8068 *  0.0000     8          
    65  O     c     -7.6135 *     0.0000 *    -6.3446 *  0.0000     8          
    66  O     c     -5.0757 *     7.6135 *     3.8068 *  0.0000     8          
    67  Zr    c      6.3446 *    -1.2689 *     7.6135 *  0.0000     8          
    68  Zr    c     -3.8068 *     8.8824 *    -2.5378 *  0.0000     8          
    69  O     c      7.6135 *     2.5378 *     6.3446 *  0.0000     8          
    70  O     c     -2.5378 *     7.6135 *     6.3446 *  0.0000     8          
    71  O     c      0.0000 *    10.1514 *     1.2689 *  0.0000     8          
    72  O     c     -5.0757 *     0.0000 *    -8.8824 *  0.0000     8          
    73  Zr    c      6.3446 *     6.3446       5.0757 *  0.0000     4          
    74  Zr    c     -1.2689 *     8.8824 *    -5.0757 *  0.0000     8          
    75  Zr    c      1.2689 *     1.2689      10.1514 *  0.0000     4          
    76  O     c      5.0757 *    -2.5378 *     8.8824 *  0.0000     8          
    77  O     c      5.0757 *     2.5378 *     8.8824 *  0.0000     8          
    78  O     c      2.5378 *    10.1514 *    -1.2689 *  0.0000     8          
    79  O     c     -2.5378 *    10.1514 *    -1.2689 *  0.0000     8          
    80  Zr    c      6.3446 *     3.8068 *     7.6135 *  0.0000     8          
    81  O     c      7.6135 *     7.6135       1.2689 *  0.0000     4          
    82  O     c     -7.6135 *     7.6135       1.2689 *  0.0000     4          
    83  O     c      0.0000 *    10.1514 *    -3.8068 *  0.0000     8          
    84  Zr    c      8.8824 *     3.8068 *     5.0757 *  0.0000     8          
    85  Zr    c      3.8068 *    -1.2689 *    10.1514 *  0.0000     8          
    86  Zr    c     -6.3446 *     8.8824 *     0.0000    0.0000     4          
    87  O     c     -7.6135 *     5.0757 *    -6.3446 *  0.0000     8          
    88  O     c      2.5378 *    10.1514 *     3.8068 *  0.0000     8          
    89  O     c     -2.5378 *    10.1514 *     3.8068 *  0.0000     8          
    90  O     c      5.0757 *     7.6135 *    -6.3446 *  0.0000     8          
    91  Zr    c      6.3446 *     8.8824 *    -2.5378 *  0.0000     8          
    92  O     c     -7.6135 *     7.6135      -3.8068 *  0.0000     4          
    93  O     c      7.6135 *     7.6135      -3.8068 *  0.0000     4          
    94  O     c      5.0757 *     5.0757       8.8824 *  0.0000     4          
    95  O     c     -5.0757 *     5.0757      -8.8824 *  0.0000     4          
    96  O     c      5.0757 *    10.1514 *     1.2689 *  0.0000     8          
    97  O     c      0.0000       0.0000      11.4203 *  0.0000     2          
    98  O     c     -5.0757 *    10.1514 *     1.2689 *  0.0000     8          
    99  Zr    c      3.8068 *     3.8068      10.1514 *  0.0000     4          
   100  Zr    c      1.2689 *    11.4203 *     0.0000    0.0000     4          
   101  O     c      7.6135 *     0.0000 *     8.8824 *  0.0000     8          
   102  O     c     -2.5378 *     0.0000 *   -11.4203 *  0.0000     8          
   103  Zr    c     -6.3446 *     6.3446      -7.6135 *  0.0000     4          
   104  Zr    c      8.8824 *     1.2689 *     7.6135 *  0.0000     8          
   105  Zr    c     11.4203 *    -1.2689 *    -2.5378 *  0.0000     8          
   106  O     c      5.0757 *    10.1514 *    -3.8068 *  0.0000     8          
   107  O     c     -7.6135 *     2.5378 *    -8.8824 *  0.0000     8          
   108  O     c      2.5378 *    -2.5378      11.4203 *  0.0000     4          
   109  O     c      2.5378 *     2.5378      11.4203 *  0.0000     4          
   110  O     c    -10.1514 *     5.0757 *    -3.8068 *  0.0000     8          
   111  O     c      0.0000 *    10.1514 *     6.3446 *  0.0000     8          
   112  O     c     -7.6135 *    -2.5378 *    -8.8824 *  0.0000     8          
   113  O     s      0.0000       0.0000       0.0000    0.0000     1    Defect
   114  O     s      0.0000       0.0000       1.2689 *  0.0000     2          
   115  Zr    s      1.2689 *     1.2689       0.0000    0.0000     2          
   116  O     s      0.0000 *     2.5378 *    -1.2689 *  0.0000     8          
   117  Zr    s      1.2689 *    -1.2689       2.5378 *  0.0000     4          
   118  O     s      2.5378 *     2.5378       1.2689 *  0.0000     4          
   119  O     s     -2.5378 *     2.5378       1.2689 *  0.0000     4          
   120  O     s      0.0000       0.0000      -3.8068 *  0.0000     2          
   121  Zr    s     -3.8068 *     1.2689 *     0.0000    0.0000     4          
   122  O     s      2.5378 *     0.0000 *     3.8068 *  0.0000     8          
   123  Zr    s      1.2689 *     3.8068 *    -2.5378 *  0.0000     8          
   124  O     s     -0.0000 *     5.0757 *    -1.2689 *  0.0000     8          
   125  O     s     -2.5378 *     2.5378      -3.8068 *  0.0000     4          
   126  O     s     -2.5378 *    -2.5378      -3.8068 *  0.0000     4          
   127  Zr    s      3.8068 *     3.8068       0.0000    0.0000     2          
   128  Zr    s      1.2689 *     1.2689       5.0757 *  0.0000     4          
   129  O     s      2.5378 *     5.0757 *     1.2689 *  0.0000     8          
   130  O     s      2.5378 *    -5.0757 *    -1.2689 *  0.0000     8          
   131  Zr    s     -3.8068 *     3.8068       2.5378 *  0.0000     4          
   132  O     s      0.0000       0.0000       6.3446 *  0.0000     2          
   133  O     s     -0.0000 *     5.0757 *     3.8068 *  0.0000     8          
   134  Zr    s      3.8068 *    -1.2689 *    -5.0757 *  0.0000     8          
   135  Zr    s      1.2689 *     6.3446 *     0.0000    0.0000     4          
   136  O     s      2.5378 *     5.0757 *    -3.8068 *  0.0000     8          
   137  O     s     -2.5378 *     0.0000 *    -6.3446 *  0.0000     8          
   138  O     s     -2.5378 *     5.0757 *     3.8068 *  0.0000     8          
   139  Zr    s     -6.3446 *     1.2689 *    -2.5378 *  0.0000     8          
   140  O     s      2.5378 *    -2.5378       6.3446 *  0.0000     4          
   141  O     s      2.5378 *     2.5378       6.3446 *  0.0000     4          
   142  O     s      5.0757 *     5.0757      -1.2689 *  0.0000     4          
   143  O     s     -5.0757 *     5.0757       1.2689 *  0.0000     4          
   144  Zr    s     -6.3446 *     3.8068 *     0.0000    0.0000     4          
   145  Zr    s      3.8068 *     3.8068       5.0757 *  0.0000     4          
   146  O     s      7.6135 *     0.0000 *    -1.2689 *  0.0000     8          
   147  Zr    s      3.8068 *     6.3446 *    -2.5378 *  0.0000     8          
   148  Zr    s      1.2689 *    -1.2689       7.6135 *  0.0000     4          
   149  O     s      2.5378 *     7.6135 *     1.2689 *  0.0000     8          
   150  O     s     -7.6135 *     2.5378 *     1.2689 *  0.0000     8          
   151  O     s      5.0757 *     5.0757       3.8068 *  0.0000     4          
   152  O     s      5.0757 *     0.0000 *     6.3446 *  0.0000     8          
   153  O     s     -5.0757 *     5.0757      -3.8068 *  0.0000     4          
   154  Zr    s      6.3446 *     1.2689 *    -5.0757 *  0.0000     8          
   155  O     s     -5.0757 *     2.5378 *    -6.3446 *  0.0000     8          
   156  O     s      5.0757 *     2.5378 *     6.3446 *  0.0000     8          
   157  O     s      0.0000 *     7.6135 *     3.8068 *  0.0000     8          
   158  Zr    s      3.8068 *     1.2689 *     7.6135 *  0.0000     8          
   159  O     s      2.5378 *     7.6135 *    -3.8068 *  0.0000     8          
   160  O     s     -7.6135 *     2.5378 *    -3.8068 *  0.0000     8          
   161  O     s      0.0000       0.0000      -8.8824 *  0.0000     2          
   162  Zr    s      6.3446 *     6.3446       0.0000    0.0000     2          
   163  Zr    s     -6.3446 *     3.8068 *     5.0757 *  0.0000     8          
   164  Zr    s     -1.2689 *     8.8824 *     0.0000    0.0000     4          
   165  O     s      5.0757 *     7.6135 *    -1.2689 *  0.0000     8          
   166  O     s     -7.6135 *     5.0757 *    -1.2689 *  0.0000     8          
   167  O     s      2.5378 *     0.0000 *     8.8824 *  0.0000     8          
   168  Zr    s      3.8068 *    -3.8068       7.6135 *  0.0000     4          
   169  Zr    s     -6.3446 *     6.3446      -2.5378 *  0.0000     4          
   170  Zr    s      1.2689 *     8.8824 *    -2.5378 *  0.0000     8          
   171  O     s      5.0757 *     5.0757       6.3446 *  0.0000     4          
   172  O     s     -5.0757 *     5.0757       6.3446 *  0.0000     4          
   173  O     s     -2.5378 *     2.5378      -8.8824 *  0.0000     4          
   174  O     s     -2.5378 *    -2.5378      -8.8824 *  0.0000     4          
   175  Zr    s      3.8068 *     8.8824 *     0.0000    0.0000     4          
   176  O     s      7.6135 *     5.0757 *     3.8068 *  0.0000     8          
   177  O     s     -7.6135 *     0.0000 *    -6.3446 *  0.0000     8          
   178  O     s     -5.0757 *     7.6135 *     3.8068 *  0.0000     8          
   179  Zr    s      6.3446 *    -1.2689 *     7.6135 *  0.0000     8          
   180  Zr    s     -3.8068 *     8.8824 *    -2.5378 *  0.0000     8          
   181  O     s      7.6135 *     2.5378 *     6.3446 *  0.0000     8          
   182  O     s     -2.5378 *     7.6135 *     6.3446 *  0.0000     8          
   183  O     s      0.0000 *    10.1514 *     1.2689 *  0.0000     8          
   184  O     s     -5.0757 *     0.0000 *    -8.8824 *  0.0000     8          
   185  Zr    s      6.3446 *     6.3446       5.0757 *  0.0000     4          
   186  Zr    s     -1.2689 *     8.8824 *    -5.0757 *  0.0000     8          
   187  Zr    s      1.2689 *     1.2689      10.1514 *  0.0000     4          
   188  O     s      5.0757 *    -2.5378 *     8.8824 *  0.0000     8          
   189  O     s      5.0757 *     2.5378 *     8.8824 *  0.0000     8          
   190  O     s      2.5378 *    10.1514 *    -1.2689 *  0.0000     8          
   191  O     s     -2.5378 *    10.1514 *    -1.2689 *  0.0000     8          
   192  Zr    s      6.3446 *     3.8068 *     7.6135 *  0.0000     8          
   193  O     s      7.6135 *     7.6135       1.2689 *  0.0000     4          
   194  O     s     -7.6135 *     7.6135       1.2689 *  0.0000     4          
   195  O     s      0.0000 *    10.1514 *    -3.8068 *  0.0000     8          
   196  Zr    s      8.8824 *     3.8068 *     5.0757 *  0.0000     8          
   197  Zr    s      3.8068 *    -1.2689 *    10.1514 *  0.0000     8          
   198  Zr    s     -6.3446 *     8.8824 *     0.0000    0.0000     4          
   199  O     s     -7.6135 *     5.0757 *    -6.3446 *  0.0000     8          
   200  O     s      2.5378 *    10.1514 *     3.8068 *  0.0000     8          
   201  O     s     -2.5378 *    10.1514 *     3.8068 *  0.0000     8          
   202  O     s      5.0757 *     7.6135 *    -6.3446 *  0.0000     8          
   203  Zr    s      6.3446 *     8.8824 *    -2.5378 *  0.0000     8          
   204  O     s     -7.6135 *     7.6135      -3.8068 *  0.0000     4          
   205  O     s      7.6135 *     7.6135      -3.8068 *  0.0000     4          
   206  O     s      5.0757 *     5.0757       8.8824 *  0.0000     4          
   207  O     s     -5.0757 *     5.0757      -8.8824 *  0.0000     4          
   208  O     s      5.0757 *    10.1514 *     1.2689 *  0.0000     8          
   209  O     s      0.0000       0.0000      11.4203 *  0.0000     2          
   210  O     s     -5.0757 *    10.1514 *     1.2689 *  0.0000     8          
   211  Zr    s      3.8068 *     3.8068      10.1514 *  0.0000     4          
   212  Zr    s      1.2689 *    11.4203 *     0.0000    0.0000     4          
   213  O     s      7.6135 *     0.0000 *     8.8824 *  0.0000     8          
   214  O     s     -2.5378 *     0.0000 *   -11.4203 *  0.0000     8          
   215  Zr    s     -6.3446 *     6.3446      -7.6135 *  0.0000     4          
   216  Zr    s      8.8824 *     1.2689 *     7.6135 *  0.0000     8          
   217  Zr    s     11.4203 *    -1.2689 *    -2.5378 *  0.0000     8          
   218  O     s      5.0757 *    10.1514 *    -3.8068 *  0.0000     8          
   219  O     s     -7.6135 *     2.5378 *    -8.8824 *  0.0000     8          
   220  O     s      2.5378 *    -2.5378      11.4203 *  0.0000     4          
   221  O     s      2.5378 *     2.5378      11.4203 *  0.0000     4          
   222  O     s    -10.1514 *     5.0757 *    -3.8068 *  0.0000     8          
   223  O     s      0.0000 *    10.1514 *     6.3446 *  0.0000     8          
   224  O     s     -7.6135 *    -2.5378 *    -8.8824 *  0.0000     8          
--------------------------------------------------------------------------------


  Constraints on symmetry reduced coordinates :

--------------------------------------------------------------------------------
  Constraint no.      Unconstrained     Constrained    Coefficient    
                         Variable         Variable
--------------------------------------------------------------------------------
           1                 3 x             3 y         1.00000
           2                 5 x             5 y        -1.00000
           3                 6 x             6 y         1.00000
           4                 7 x             7 y        -1.00000
           5                13 x            13 y        -1.00000
           6                14 x            14 y         1.00000
           7                15 x            15 y         1.00000
           8                16 x            16 y         1.00000
           9                19 x            19 y        -1.00000
          10                28 x            28 y        -1.00000
          11                29 x            29 y         1.00000
          12                30 x            30 y         1.00000
          13                31 x            31 y        -1.00000
          14                33 x            33 y         1.00000
          15                36 x            36 y        -1.00000
          16                39 x            39 y         1.00000
          17                41 x            41 y        -1.00000
          18                50 x            50 y         1.00000
          19                56 x            56 y        -1.00000
          20                57 x            57 y        -1.00000
          21                59 x            59 y         1.00000
          22                60 x            60 y        -1.00000
          23                61 x            61 y        -1.00000
          24                62 x            62 y         1.00000
          25                73 x            73 y         1.00000
          26                75 x            75 y         1.00000
          27                81 x            81 y         1.00000
          28                82 x            82 y        -1.00000
          29                92 x            92 y        -1.00000
          30                93 x            93 y         1.00000
          31                94 x            94 y         1.00000
          32                95 x            95 y        -1.00000
          33                99 x            99 y         1.00000
          34               103 x           103 y        -1.00000
          35               108 x           108 y        -1.00000
          36               109 x           109 y         1.00000
          37               115 x           115 y         1.00000
          38               117 x           117 y        -1.00000
          39               118 x           118 y         1.00000
          40               119 x           119 y        -1.00000
          41               125 x           125 y        -1.00000
          42               126 x           126 y         1.00000
          43               127 x           127 y         1.00000
          44               128 x           128 y         1.00000
          45               131 x           131 y        -1.00000
          46               140 x           140 y        -1.00000
          47               141 x           141 y         1.00000
          48               142 x           142 y         1.00000
          49               143 x           143 y        -1.00000
          50               145 x           145 y         1.00000
          51               148 x           148 y        -1.00000
          52               151 x           151 y         1.00000
          53               153 x           153 y        -1.00000
          54               162 x           162 y         1.00000
          55               168 x           168 y        -1.00000
          56               169 x           169 y        -1.00000
          57               171 x           171 y         1.00000
          58               172 x           172 y        -1.00000
          59               173 x           173 y        -1.00000
          60               174 x           174 y         1.00000
          61               185 x           185 y         1.00000
          62               187 x           187 y         1.00000
          63               193 x           193 y         1.00000
          64               194 x           194 y        -1.00000
          65               204 x           204 y        -1.00000
          66               205 x           205 y         1.00000
          67               206 x           206 y         1.00000
          68               207 x           207 y        -1.00000
          69               211 x           211 y         1.00000
          70               215 x           215 y        -1.00000
          71               220 x           220 y        -1.00000
          72               221 x           221 y         1.00000
--------------------------------------------------------------------------------


  Components of defect energy : 

--------------------------------------------------------------------------------
  Region 1 - region 1                   =    207.55698204 eV
  Region 1 - region 2a (unrelaxed)      =   -183.55144608 eV
  Region 1 - 2a (relaxed - correction)  =     -2.29338070 eV
  Region 1 (Total)                      =     21.71215526 eV
  Region 2a                             =      1.14667818 eV
  Region 2b                             =     -1.15562361 eV
--------------------------------------------------------------------------------
  Total defect energy                   =     21.70320982 eV
--------------------------------------------------------------------------------

  Largest displacement in region 2 =   0.0045 Angstroms


  Number of variables =      554

  Maximum number of calculations  =        1000
  Maximum Hessian update interval =          10
  Maximum step size               =   1.0000000
  Maximum parameter tolerance     =   0.0000100
  Maximum function  tolerance     =   0.0000100
  Maximum gradient  tolerance     =   0.0010000

  Symmetry adapted optimisation

  Symmetry to be used for second derivatives

  Newton-Raphson optimiser to be used

  BFGS hessian update to be used

  Lower half triangular hessian to be used

  Start of defect optimisation :

  Cycle:      0 Defect Energy:  21.703210  Gnorm:     0.274373  CPU:    3.084
  ** Hessian calculated **
  Cycle:      1 Defect Energy:  -4.219991  Gnorm:     0.035656  CPU:    8.625
  ** Hessian calculated **
  Cycle:      2 Defect Energy:  -8.584167  Gnorm:     0.062804  CPU:   14.229
  Cycle:      3 Defect Energy:  -9.399830  Gnorm:     0.011462  CPU:   17.069
  Cycle:      4 Defect Energy:  -9.634784  Gnorm:     0.005245  CPU:   20.598
  Cycle:      5 Defect Energy:  -9.652086  Gnorm:     0.004246  CPU:   21.360
  Cycle:      6 Defect Energy:  -9.662107  Gnorm:     0.002887  CPU:   22.122
  Cycle:      7 Defect Energy:  -9.667021  Gnorm:     0.002141  CPU:   22.885
  Cycle:      8 Defect Energy:  -9.669558  Gnorm:     0.001465  CPU:   23.646
  Cycle:      9 Defect Energy:  -9.670805  Gnorm:     0.001054  CPU:   24.408
  Cycle:     10 Defect Energy:  -9.671418  Gnorm:     0.000728  CPU:   25.170
  Cycle:     11 Defect Energy:  -9.671718  Gnorm:     0.000517  CPU:   25.931
  ** Hessian calculated **
  Cycle:     12 Defect Energy:  -9.671863  Gnorm:     0.000362  CPU:   28.065
  Cycle:     13 Defect Energy:  -9.671933  Gnorm:     0.000254  CPU:   28.827
  Cycle:     14 Defect Energy:  -9.671967  Gnorm:     0.000178  CPU:   29.587
  Cycle:     15 Defect Energy:  -9.671982  Gnorm:     0.000124  CPU:   30.350
  Cycle:     16 Defect Energy:  -9.671989  Gnorm:     0.000087  CPU:   31.111
  Cycle:     17 Defect Energy:  -9.671992  Gnorm:     0.000061  CPU:   31.874
  Cycle:     18 Defect Energy:  -9.671994  Gnorm:     0.000043  CPU:   32.636
  Cycle:     19 Defect Energy:  -9.671994  Gnorm:     0.000030  CPU:   33.397


  **** Optimisation achieved ****


  Final defect energy  =       -9.67199415
  Final defect Gnorm   =        0.00002092

  Components of defect energy : 

--------------------------------------------------------------------------------
  Region 1 - region 1                   =    158.06910088 eV
  Region 1 - region 2a (unrelaxed)      =   -165.57150643 eV
  Region 1 - 2a (relaxed - correction)  =     -2.02785261 eV
  Region 1 (Total)                      =     -9.53025816 eV
  Region 2a                             =      1.01388763 eV
  Region 2b                             =     -1.15562361 eV
--------------------------------------------------------------------------------
  Total defect energy                   =     -9.67199415 eV
--------------------------------------------------------------------------------

  Largest displacement in region 2 =   0.0045 Angstroms

  Final coordinates of region 1 :

--------------------------------------------------------------------------------
   No.  Atomic        x           y           z          Radius      Charge
        Label       (Angs)      (Angs)      (Angs)       (Angs)       (e) 
--------------------------------------------------------------------------------
     1  O     c     1.268921    1.268921    0.000000    0.000000    0.077000
     2  O     c     1.268921    1.268921    2.211715    0.000000    0.077000
     3  O     c     1.268921    1.268921   -2.211715    0.000000    0.077000
     4  Zr    c     2.504084    2.504084    0.000000    0.000000    2.650000
     5  Zr    c     0.033758    0.033758    0.000000    0.000000    2.650000
     6  O     c     1.272652    3.834270   -1.273098    0.000000    0.077000
     7  O     c     3.834270    1.272652   -1.273098    0.000000    0.077000
     8  O     c     1.272652    3.834270    1.273098    0.000000    0.077000
     9  O     c     3.834270    1.272652    1.273098    0.000000    0.077000
    10  O     c    -1.296428    1.265190   -1.273098    0.000000    0.077000
    11  O     c     1.265190   -1.296428   -1.273098    0.000000    0.077000
    12  O     c    -1.296428    1.265190    1.273098    0.000000    0.077000
    13  O     c     1.265190   -1.296428    1.273098    0.000000    0.077000
    14  Zr    c     2.505333    0.032508    2.566700    0.000000    2.650000
    15  Zr    c     0.032508    2.505333    2.566700    0.000000    2.650000
    16  Zr    c     0.032508    2.505333   -2.566700    0.000000    2.650000
    17  Zr    c     2.505333    0.032508   -2.566700    0.000000    2.650000
    18  O     c     3.840129    3.840129    1.296661    0.000000    0.077000
    19  O     c     3.840129    3.840129   -1.296661    0.000000    0.077000
    20  O     c    -1.302287   -1.302287    1.296661    0.000000    0.077000
    21  O     c    -1.302287   -1.302287   -1.296661    0.000000    0.077000
    22  O     c    -1.292190    3.830032    1.266436    0.000000    0.077000
    23  O     c     3.830032   -1.292190    1.266436    0.000000    0.077000
    24  O     c    -1.292190    3.830032   -1.266436    0.000000    0.077000
    25  O     c     3.830032   -1.292190   -1.266436    0.000000    0.077000
    26  O     c     1.268921    1.268921   -4.460933    0.000000    0.077000
    27  O     c     1.268921    1.268921    4.460933    0.000000    0.077000
    28  Zr    c    -2.518585    2.532415    0.000000    0.000000    2.650000
    29  Zr    c     2.532415   -2.518585    0.000000    0.000000    2.650000
    30  Zr    c     0.005427    5.056427    0.000000    0.000000    2.650000
    31  Zr    c     5.056427    0.005427    0.000000    0.000000    2.650000
    32  O     c     3.829003    1.261605    3.816770    0.000000    0.077000
    33  O     c     1.276237   -1.291161    3.816770    0.000000    0.077000
    34  O     c     1.261605    3.829003    3.816770    0.000000    0.077000
    35  O     c    -1.291161    1.276237    3.816770    0.000000    0.077000
    36  O     c     1.261605    3.829003   -3.816770    0.000000    0.077000
    37  O     c     3.829003    1.261605   -3.816770    0.000000    0.077000
    38  O     c    -1.291161    1.276237   -3.816770    0.000000    0.077000
    39  O     c     1.276237   -1.291161   -3.816770    0.000000    0.077000
    40  Zr    c     2.533365    5.060469   -2.546133    0.000000    2.650000
    41  Zr    c    -2.522627    0.004476   -2.546133    0.000000    2.650000
    42  Zr    c     5.060469    2.533365    2.546133    0.000000    2.650000
    43  Zr    c     0.004476   -2.522627    2.546133    0.000000    2.650000
    44  Zr    c     2.533365    5.060469    2.546133    0.000000    2.650000
    45  Zr    c    -2.522627    0.004476    2.546133    0.000000    2.650000
    46  Zr    c     5.060469    2.533365   -2.546133    0.000000    2.650000
    47  Zr    c     0.004476   -2.522627   -2.546133    0.000000    2.650000
    48  O     c     1.267054    6.358859   -1.271771    0.000000    0.077000
    49  O     c     6.358859    1.267054   -1.271771    0.000000    0.077000
    50  O     c     1.267054    6.358859    1.271771    0.000000    0.077000
    51  O     c    -3.821017    1.270788    1.271771    0.000000    0.077000
    52  O     c     6.358859    1.267054    1.271771    0.000000    0.077000
    53  O     c     1.270788   -3.821017    1.271771    0.000000    0.077000
    54  O     c    -3.821017    1.270788   -1.271771    0.000000    0.077000
    55  O     c     1.270788   -3.821017   -1.271771    0.000000    0.077000
    56  O     c    -1.303306    3.841148   -3.851386    0.000000    0.077000
    57  O     c     3.841148   -1.303306   -3.851386    0.000000    0.077000
    58  O     c    -1.303306    3.841148    3.851386    0.000000    0.077000
    59  O     c     3.841148   -1.303306    3.851386    0.000000    0.077000
    60  O     c    -1.281485   -1.281485   -3.825936    0.000000    0.077000
    61  O     c     3.819327    3.819327   -3.825936    0.000000    0.077000
    62  O     c     3.819327    3.819327    3.825936    0.000000    0.077000
    63  O     c    -1.281485   -1.281485    3.825936    0.000000    0.077000
    64  Zr    c     5.071862    5.071862    0.000000    0.000000    2.650000
    65  Zr    c    -2.534020   -2.534020    0.000000    0.000000    2.650000
    66  Zr    c     2.510873    2.510873    5.115791    0.000000    2.650000
    67  Zr    c     0.026969    0.026969   -5.115791    0.000000    2.650000
    68  Zr    c     2.510873    2.510873   -5.115791    0.000000    2.650000
    69  Zr    c     0.026969    0.026969    5.115791    0.000000    2.650000
    70  O     c     3.807667    6.365866    1.266401    0.000000    0.077000
    71  O     c     6.365866    3.807667    1.266401    0.000000    0.077000
    72  O     c     3.807667    6.365866   -1.266401    0.000000    0.077000
    73  O     c    -3.828025   -1.269825   -1.266401    0.000000    0.077000
    74  O     c     6.365866    3.807667   -1.266401    0.000000    0.077000
    75  O     c    -1.269825   -3.828025   -1.266401    0.000000    0.077000
    76  O     c    -3.828025   -1.269825    1.266401    0.000000    0.077000
    77  O     c    -1.269825   -3.828025    1.266401    0.000000    0.077000
    78  O     c     3.810962   -3.821010   -1.272675    0.000000    0.077000
    79  O     c     6.358852   -1.273120   -1.272675    0.000000    0.077000
    80  O     c    -3.821010    3.810962   -1.272675    0.000000    0.077000
    81  O     c    -1.273120    6.358852   -1.272675    0.000000    0.077000
    82  O     c    -3.821010    3.810962    1.272675    0.000000    0.077000
    83  O     c    -1.273120    6.358852    1.272675    0.000000    0.077000
    84  O     c     3.810962   -3.821010    1.272675    0.000000    0.077000
    85  O     c     6.358852   -1.273120    1.272675    0.000000    0.077000
    86  Zr    c    -2.533652    5.071493    2.538752    0.000000    2.650000
    87  Zr    c     5.071493   -2.533652    2.538752    0.000000    2.650000
    88  Zr    c     5.071493   -2.533652   -2.538752    0.000000    2.650000
    89  Zr    c    -2.533652    5.071493   -2.538752    0.000000    2.650000
    90  O     c     1.268921    1.268921    6.766233    0.000000    0.077000
    91  O     c     1.268921    1.268921   -6.766233    0.000000    0.077000
    92  O     c     1.272787    6.356998    3.813733    0.000000    0.077000
    93  O     c     6.356998    1.272787    3.813733    0.000000    0.077000
    94  O     c    -3.819156    1.265055   -3.813733    0.000000    0.077000
    95  O     c     1.272787    6.356998   -3.813733    0.000000    0.077000
    96  O     c     1.265055   -3.819156   -3.813733    0.000000    0.077000
    97  O     c     6.356998    1.272787   -3.813733    0.000000    0.077000
    98  O     c    -3.819156    1.265055    3.813733    0.000000    0.077000
    99  O     c     1.265055   -3.819156    3.813733    0.000000    0.077000
   100  Zr    c     5.068780    0.000184   -5.088796    0.000000    2.650000
   101  Zr    c     5.068780    0.000184    5.088796    0.000000    2.650000
   102  Zr    c     2.537657   -2.530938    5.088796    0.000000    2.650000
   103  Zr    c    -2.530938    2.537657   -5.088796    0.000000    2.650000
   104  Zr    c     0.000184    5.068780   -5.088796    0.000000    2.650000
   105  Zr    c     0.000184    5.068780    5.088796    0.000000    2.650000
   106  Zr    c    -2.530938    2.537657    5.088796    0.000000    2.650000
   107  Zr    c     2.537657   -2.530938   -5.088796    0.000000    2.650000
   108  Zr    c     2.535583    7.601454    0.000000    0.000000    2.650000
   109  Zr    c    -5.063612    0.002259    0.000000    0.000000    2.650000
   110  Zr    c     7.601454    2.535583    0.000000    0.000000    2.650000
   111  Zr    c     0.002259   -5.063612    0.000000    0.000000    2.650000
   112  O     c     3.811040    6.353107   -3.810309    0.000000    0.077000
   113  O     c     6.353107    3.811040   -3.810309    0.000000    0.077000
   114  O     c     6.353107    3.811040    3.810309    0.000000    0.077000
   115  O     c    -1.273198   -3.815265    3.810309    0.000000    0.077000
   116  O     c     3.811040    6.353107    3.810309    0.000000    0.077000
   117  O     c    -3.815265   -1.273198    3.810309    0.000000    0.077000
   118  O     c    -3.815265   -1.273198   -3.810309    0.000000    0.077000
   119  O     c    -1.273198   -3.815265   -3.810309    0.000000    0.077000
   120  O     c    -1.286258    1.263971   -6.355540    0.000000    0.077000
   121  O     c     1.273871    3.824100   -6.355540    0.000000    0.077000
   122  O     c     1.263971   -1.286258   -6.355540    0.000000    0.077000
   123  O     c     3.824100    1.273871   -6.355540    0.000000    0.077000
   124  O     c     3.824100    1.273871    6.355540    0.000000    0.077000
   125  O     c     1.273871    3.824100    6.355540    0.000000    0.077000
   126  O     c     1.263971   -1.286258    6.355540    0.000000    0.077000
   127  O     c    -1.286258    1.263971    6.355540    0.000000    0.077000
   128  O     c    -1.267763    6.367856    3.805929    0.000000    0.077000
   129  O     c    -3.830014    3.805604    3.805929    0.000000    0.077000
   130  O     c     6.367856   -1.267763    3.805929    0.000000    0.077000
   131  O     c     3.805604   -3.830014    3.805929    0.000000    0.077000
   132  O     c    -1.267763    6.367856   -3.805929    0.000000    0.077000
   133  O     c     6.367856   -1.267763   -3.805929    0.000000    0.077000
   134  O     c    -3.830014    3.805604   -3.805929    0.000000    0.077000
   135  O     c     3.805604   -3.830014   -3.805929    0.000000    0.077000
   136  Zr    c    -5.065346    2.535590   -2.537214    0.000000    2.650000
   137  Zr    c    -5.065346    2.535590    2.537214    0.000000    2.650000
   138  Zr    c     2.535590   -5.065346    2.537214    0.000000    2.650000
   139  Zr    c     2.535590   -5.065346   -2.537214    0.000000    2.650000
   140  Zr    c     0.002252    7.603187   -2.537214    0.000000    2.650000
   141  Zr    c     0.002252    7.603187    2.537214    0.000000    2.650000
   142  Zr    c     7.603187    0.002252    2.537214    0.000000    2.650000
   143  Zr    c     7.603187    0.002252   -2.537214    0.000000    2.650000
   144  O     c     3.813400   -1.275558    6.374763    0.000000    0.077000
   145  O     c    -1.275558    3.813400    6.374763    0.000000    0.077000
   146  O     c    -1.275558    3.813400   -6.374763    0.000000    0.077000
   147  O     c     3.813400   -1.275558   -6.374763    0.000000    0.077000
   148  O     c     3.829312    3.829312    6.390794    0.000000    0.077000
   149  O     c    -1.291470   -1.291470    6.390794    0.000000    0.077000
   150  O     c     3.829312    3.829312   -6.390794    0.000000    0.077000
   151  O     c    -1.291470   -1.291470   -6.390794    0.000000    0.077000
   152  O     c     6.347216    6.347216   -1.270314    0.000000    0.077000
   153  O     c     6.347216    6.347216    1.270314    0.000000    0.077000
   154  O     c    -3.809375   -3.809375    1.270314    0.000000    0.077000
   155  O     c    -3.809375   -3.809375   -1.270314    0.000000    0.077000
   156  O     c    -3.811740    6.349582    1.269813    0.000000    0.077000
   157  O     c     6.349582   -3.811740    1.269813    0.000000    0.077000
   158  O     c    -3.811740    6.349582   -1.269813    0.000000    0.077000
   159  O     c     6.349582   -3.811740   -1.269813    0.000000    0.077000
   160  Zr    c    -5.067838    5.067804    0.000000    0.000000    2.650000
   161  Zr    c     5.067804   -5.067838    0.000000    0.000000    2.650000
   162  Zr    c    -2.529962    7.605679    0.000000    0.000000    2.650000
   163  Zr    c     7.605679   -2.529962    0.000000    0.000000    2.650000
   164  Zr    c     5.069746    5.069746    5.078256    0.000000    2.650000
   165  Zr    c     5.069746    5.069746   -5.078256    0.000000    2.650000
   166  Zr    c    -2.531904   -2.531904   -5.078256    0.000000    2.650000
   167  Zr    c    -2.531904   -2.531904    5.078256    0.000000    2.650000
   168  O     c     8.891969    1.268667   -1.270388    0.000000    0.077000
   169  O     c     1.269175   -6.354127   -1.270388    0.000000    0.077000
   170  O     c     1.268667    8.891969   -1.270388    0.000000    0.077000
   171  O     c    -6.354127    1.269175   -1.270388    0.000000    0.077000
   172  O     c     1.268667    8.891969    1.270388    0.000000    0.077000
   173  O     c     8.891969    1.268667    1.270388    0.000000    0.077000
   174  O     c    -6.354127    1.269175    1.270388    0.000000    0.077000
   175  O     c     1.269175   -6.354127    1.270388    0.000000    0.077000
   176  Zr    c     5.068167    7.606067   -2.535804    0.000000    2.650000
   177  Zr    c    -5.068225   -2.530325   -2.535804    0.000000    2.650000
   178  Zr    c     7.606067    5.068167    2.535804    0.000000    2.650000
   179  Zr    c     5.068167    7.606067    2.535804    0.000000    2.650000
   180  Zr    c     7.606067    5.068167   -2.535804    0.000000    2.650000
   181  Zr    c    -2.530325   -5.068225   -2.535804    0.000000    2.650000
   182  Zr    c    -2.530325   -5.068225    2.535804    0.000000    2.650000
   183  Zr    c    -5.068225   -2.530325    2.535804    0.000000    2.650000
   184  Zr    c     2.517386    0.020455    7.648113    0.000000    2.650000
   185  Zr    c     0.020455    2.517386    7.648113    0.000000    2.650000
   186  Zr    c     0.020455    2.517386   -7.648113    0.000000    2.650000
   187  Zr    c     2.517386    0.020455   -7.648113    0.000000    2.650000
   188  O     c     3.810082    8.895439    1.271999    0.000000    0.077000
   189  O     c     8.895439    3.810082    1.271999    0.000000    0.077000
   190  O     c     3.810082    8.895439   -1.271999    0.000000    0.077000
   191  O     c     8.895439    3.810082   -1.271999    0.000000    0.077000
   192  O     c    -6.357597   -1.272240    1.271999    0.000000    0.077000
   193  O     c    -1.272240   -6.357597    1.271999    0.000000    0.077000
   194  O     c    -6.357597   -1.272240   -1.271999    0.000000    0.077000
   195  O     c    -1.272240   -6.357597   -1.271999    0.000000    0.077000
   196  O     c    -6.353136    3.809043    1.268871    0.000000    0.077000
   197  O     c     3.809043   -6.353136    1.268871    0.000000    0.077000
   198  O     c    -1.271201    8.890978    1.268871    0.000000    0.077000
   199  O     c     8.890978   -1.271201    1.268871    0.000000    0.077000
   200  O     c    -1.271201    8.890978   -1.268871    0.000000    0.077000
   201  O     c     8.890978   -1.271201   -1.268871    0.000000    0.077000
   202  O     c    -6.353136    3.809043   -1.268871    0.000000    0.077000
   203  O     c     3.809043   -6.353136   -1.268871    0.000000    0.077000
   204  O     c     6.350043    6.350043    3.807969    0.000000    0.077000
   205  O     c     6.350043    6.350043   -3.807969    0.000000    0.077000
   206  O     c    -3.812202   -3.812202   -3.807969    0.000000    0.077000
   207  O     c    -3.812202   -3.812202    3.807969    0.000000    0.077000
   208  O     c     6.358751    1.263385    6.352232    0.000000    0.077000
   209  O     c     1.274456   -3.820909    6.352232    0.000000    0.077000
   210  O     c     1.263385    6.358751    6.352232    0.000000    0.077000
   211  O     c    -3.820909    1.274456    6.352232    0.000000    0.077000
   212  O     c     1.263385    6.358751   -6.352232    0.000000    0.077000
   213  O     c     6.358751    1.263385   -6.352232    0.000000    0.077000
   214  O     c    -3.820909    1.274456   -6.352232    0.000000    0.077000
   215  O     c     1.274456   -3.820909   -6.352232    0.000000    0.077000
   216  O     c    -3.809274    6.347116   -3.811487    0.000000    0.077000
   217  O     c     6.347116   -3.809274   -3.811487    0.000000    0.077000
   218  O     c    -3.809274    6.347116    3.811487    0.000000    0.077000
   219  O     c     6.347116   -3.809274    3.811487    0.000000    0.077000
   220  Zr    c     7.606021    2.535696   -5.075114    0.000000    2.650000
   221  Zr    c     0.002146   -5.068179   -5.075114    0.000000    2.650000
   222  Zr    c     7.606021    2.535696    5.075114    0.000000    2.650000
   223  Zr    c     0.002146   -5.068179    5.075114    0.000000    2.650000
   224  Zr    c     2.535696    7.606021   -5.075114    0.000000    2.650000
   225  Zr    c    -5.068179    0.002146   -5.075114    0.000000    2.650000
   226  Zr    c     2.535696    7.606021    5.075114    0.000000    2.650000
   227  Zr    c    -5.068179    0.002146    5.075114    0.000000    2.650000
   228  O     c    -3.809485    3.811470   -6.347303    0.000000    0.077000
   229  O     c     3.811470   -3.809485   -6.347303    0.000000    0.077000
   230  O     c    -1.273628    6.347327   -6.347303    0.000000    0.077000
   231  O     c     6.347327   -1.273628   -6.347303    0.000000    0.077000
   232  O     c    -1.273628    6.347327    6.347303    0.000000    0.077000
   233  O     c     6.347327   -1.273628    6.347303    0.000000    0.077000
   234  O     c    -3.809485    3.811470    6.347303    0.000000    0.077000
   235  O     c     3.811470   -3.809485    6.347303    0.000000    0.077000
   236  O     c     6.357584    3.803690    6.344431    0.000000    0.077000
   237  O     c     3.803690    6.357584    6.344431    0.000000    0.077000
   238  O     c    -3.819742   -1.265848   -6.344431    0.000000    0.077000
   239  O     c     3.803690    6.357584   -6.344431    0.000000    0.077000
   240  O     c    -1.265848   -3.819742   -6.344431    0.000000    0.077000
   241  O     c     6.357584    3.803690   -6.344431    0.000000    0.077000
   242  O     c    -1.265848   -3.819742    6.344431    0.000000    0.077000
   243  O     c    -3.819742   -1.265848    6.344431    0.000000    0.077000
   244  O     c     1.267749    8.890473    3.810713    0.000000    0.077000
   245  O     c    -6.352631    1.270092    3.810713    0.000000    0.077000
   246  O     c     8.890473    1.267749    3.810713    0.000000    0.077000
   247  O     c     1.270092   -6.352631    3.810713    0.000000    0.077000
   248  O     c     1.267749    8.890473   -3.810713    0.000000    0.077000
   249  O     c     8.890473    1.267749   -3.810713    0.000000    0.077000
   250  O     c    -6.352631    1.270092   -3.810713    0.000000    0.077000
   251  O     c     1.270092   -6.352631   -3.810713    0.000000    0.077000
   252  Zr    c     5.073144    2.538954    7.624481    0.000000    2.650000
   253  Zr    c     2.538954    5.073144    7.624481    0.000000    2.650000
   254  Zr    c    -2.535303   -0.001112   -7.624481    0.000000    2.650000
   255  Zr    c     2.538954    5.073144   -7.624481    0.000000    2.650000
   256  Zr    c    -0.001112   -2.535303   -7.624481    0.000000    2.650000
   257  Zr    c     5.073144    2.538954   -7.624481    0.000000    2.650000
   258  Zr    c    -0.001112   -2.535303    7.624481    0.000000    2.650000
   259  Zr    c    -2.535303   -0.001112    7.624481    0.000000    2.650000
   260  O     c     3.806976    8.888422   -3.809315    0.000000    0.077000
   261  O     c     8.888422    3.806976   -3.809315    0.000000    0.077000
   262  O     c     3.806976    8.888422    3.809315    0.000000    0.077000
   263  O     c     8.888422    3.806976    3.809315    0.000000    0.077000
   264  O     c    -6.350580   -1.269134   -3.809315    0.000000    0.077000
   265  O     c    -1.269134   -6.350580   -3.809315    0.000000    0.077000
   266  O     c    -6.350580   -1.269134    3.809315    0.000000    0.077000
   267  O     c    -1.269134   -6.350580    3.809315    0.000000    0.077000
   268  O     c    -6.360045    3.812070   -3.812083    0.000000    0.077000
   269  O     c    -1.274228    8.897887   -3.812083    0.000000    0.077000
   270  O     c     3.812070   -6.360045   -3.812083    0.000000    0.077000
   271  O     c     8.897887   -1.274228   -3.812083    0.000000    0.077000
   272  O     c    -1.274228    8.897887    3.812083    0.000000    0.077000
   273  O     c     8.897887   -1.274228    3.812083    0.000000    0.077000
   274  O     c    -6.360045    3.812070    3.812083    0.000000    0.077000
   275  O     c     3.812070   -6.360045    3.812083    0.000000    0.077000
   276  O     c     1.268921    1.268921   -9.124569    0.000000    0.077000
   277  O     c     1.268921    1.268921    9.124569    0.000000    0.077000
   278  Zr    c     7.610655    7.610655    0.000000    0.000000    2.650000
   279  Zr    c    -5.072813   -5.072813    0.000000    0.000000    2.650000
   280  Zr    c    -5.072608    5.070129    5.073068    0.000000    2.650000
   281  Zr    c     5.070129   -5.072608    5.073068    0.000000    2.650000
   282  Zr    c     5.070129   -5.072608   -5.073068    0.000000    2.650000
   283  Zr    c     7.610450   -2.532287   -5.073068    0.000000    2.650000
   284  Zr    c    -5.072608    5.070129   -5.073068    0.000000    2.650000
   285  Zr    c    -2.532287    7.610450   -5.073068    0.000000    2.650000
   286  Zr    c    -2.532287    7.610450    5.073068    0.000000    2.650000
   287  Zr    c     7.610450   -2.532287    5.073068    0.000000    2.650000
   288  Zr    c     0.000499   10.143535    0.000000    0.000000    2.650000
   289  Zr    c    -7.605694    2.537342    0.000000    0.000000    2.650000
   290  Zr    c    10.143535    0.000499    0.000000    0.000000    2.650000
   291  Zr    c     2.537342   -7.605694    0.000000    0.000000    2.650000
   292  O     c     6.348093    8.886039   -1.268550    0.000000    0.077000
   293  O     c    -6.348198   -3.810251   -1.268550    0.000000    0.077000
   294  O     c     8.886039    6.348093   -1.268550    0.000000    0.077000
   295  O     c    -3.810251   -6.348198   -1.268550    0.000000    0.077000
   296  O     c     6.348093    8.886039    1.268550    0.000000    0.077000
   297  O     c     8.886039    6.348093    1.268550    0.000000    0.077000
   298  O     c    -6.348198   -3.810251    1.268550    0.000000    0.077000
   299  O     c    -3.810251   -6.348198    1.268550    0.000000    0.077000
   300  O     c    -6.350695    6.347530   -1.270064    0.000000    0.077000
   301  O     c    -3.809688    8.888536   -1.270064    0.000000    0.077000
   302  O     c     6.347530   -6.350695   -1.270064    0.000000    0.077000
   303  O     c     8.888536   -3.809688   -1.270064    0.000000    0.077000
   304  O     c    -3.809688    8.888536    1.270064    0.000000    0.077000
   305  O     c     8.888536   -3.809688    1.270064    0.000000    0.077000
   306  O     c    -6.350695    6.347530    1.270064    0.000000    0.077000
   307  O     c     6.347530   -6.350695    1.270064    0.000000    0.077000
   308  O     c     3.816949    1.264707    8.890269    0.000000    0.077000
   309  O     c     1.273135   -1.279107    8.890269    0.000000    0.077000
   310  O     c     1.264707    3.816949    8.890269    0.000000    0.077000
   311  O     c    -1.279107    1.273135    8.890269    0.000000    0.077000
   312  O     c    -1.279107    1.273135   -8.890269    0.000000    0.077000
   313  O     c     1.264707    3.816949   -8.890269    0.000000    0.077000
   314  O     c     1.273135   -1.279107   -8.890269    0.000000    0.077000
   315  O     c     3.816949    1.264707   -8.890269    0.000000    0.077000
   316  Zr    c     5.070042   -2.532200    7.615432    0.000000    2.650000
   317  Zr    c    -2.532200    5.070042   -7.615432    0.000000    2.650000
   318  Zr    c    -2.532200    5.070042    7.615432    0.000000    2.650000
   319  Zr    c     5.070042   -2.532200   -7.615432    0.000000    2.650000
   320  Zr    c    -5.073260    7.611102   -2.536751    0.000000    2.650000
   321  Zr    c    -5.073260    7.611102    2.536751    0.000000    2.650000
   322  Zr    c     7.611102   -5.073260    2.536751    0.000000    2.650000
   323  Zr    c     7.611102   -5.073260   -2.536751    0.000000    2.650000
   324  Zr    c     2.537420   10.145580   -2.536504    0.000000    2.650000
   325  Zr    c    -7.607738    0.000421   -2.536504    0.000000    2.650000
   326  Zr    c     2.537420   10.145580    2.536504    0.000000    2.650000
   327  Zr    c    -7.607738    0.000421    2.536504    0.000000    2.650000
   328  Zr    c    10.145580    2.537420    2.536504    0.000000    2.650000
   329  Zr    c     0.000421   -7.607738    2.536504    0.000000    2.650000
   330  Zr    c    10.145580    2.537420   -2.536504    0.000000    2.650000
   331  Zr    c     0.000421   -7.607738   -2.536504    0.000000    2.650000
   332  O     c     6.345356    6.345356    6.348487    0.000000    0.077000
   333  O     c    -3.807514   -3.807514    6.348487    0.000000    0.077000
   334  O     c     6.345356    6.345356   -6.348487    0.000000    0.077000
   335  O     c    -3.807514   -3.807514   -6.348487    0.000000    0.077000
   336  O     c    -3.812592    6.350434    6.350237    0.000000    0.077000
   337  O     c     6.350434   -3.812592   -6.350237    0.000000    0.077000
   338  O     c     6.350434   -3.812592    6.350237    0.000000    0.077000
   339  O     c    -3.812592    6.350434   -6.350237    0.000000    0.077000
   340  O     c    -1.285545    3.823387   -8.921325    0.000000    0.077000
   341  O     c     3.823387   -1.285545   -8.921325    0.000000    0.077000
   342  O     c     3.823387   -1.285545    8.921325    0.000000    0.077000
   343  O     c    -1.285545    3.823387    8.921325    0.000000    0.077000
   344  O     c    -1.275303   -1.275303   -8.907986    0.000000    0.077000
[...]
    144 y          5.075684      5.069558    -0.006125    Cartesian   -0.12
    144 z          0.000000      0.000000     0.000000    Cartesian    0.00
    145 x          5.075684      5.071340    -0.004344    Cartesian   -0.09
    145 y          5.075684      5.071340    -0.004344    Cartesian   -0.09
    145 z          5.075684      5.079097     0.003413    Cartesian    0.07
    146 x          8.882446      8.892349     0.009903    Cartesian    0.11
    146 y          1.268921      1.268635    -0.000286    Cartesian   -0.02
    146 z         -1.268921     -1.270421    -0.001500    Cartesian    0.12
    147 x          5.075684      5.069768    -0.005916    Cartesian   -0.12
    147 y          7.613525      7.607940    -0.005586    Cartesian   -0.07
    147 z         -2.537842     -2.536460     0.001382    Cartesian   -0.05
    148 x          2.537842      2.529558    -0.008284    Cartesian   -0.33
    148 y         -0.000000      0.008284     0.008284    Cartesian *******
    148 z          7.613525      7.654719     0.041193    Cartesian    0.54
    149 x          3.806763      3.810261     0.003499    Cartesian    0.09
    149 y          8.882446      8.895907     0.013460    Cartesian    0.15
    149 z          1.268921      1.272174     0.003253    Cartesian    0.26
    150 x         -6.344605     -6.353481    -0.008876    Cartesian    0.14
    150 y          3.806763      3.809146     0.002383    Cartesian    0.06
    150 z          1.268921      1.268766    -0.000155    Cartesian   -0.01
    151 x          6.344605      6.350306     0.005702    Cartesian    0.09
    151 y          6.344605      6.350306     0.005702    Cartesian    0.09
    151 z          3.806763      3.807981     0.001218    Cartesian    0.03
    152 x          6.344605      6.359190     0.014585    Cartesian    0.23
    152 y          1.268921      1.263083    -0.005838    Cartesian   -0.46
    152 z          6.344605      6.352237     0.007632    Cartesian    0.12
    153 x         -3.806763     -3.809354    -0.002591    Cartesian    0.07
    153 y          6.344605      6.347196     0.002591    Cartesian    0.04
    153 z         -3.806763     -3.811592    -0.004829    Cartesian    0.13
    154 x          7.613525      7.608464    -0.005061    Cartesian   -0.07
    154 y          2.537842      2.535883    -0.001959    Cartesian   -0.08
    154 z         -5.075684     -5.075790    -0.000107    Cartesian    0.00
    155 x         -3.806763     -3.809483    -0.002720    Cartesian    0.07
    155 y          3.806763      3.811476     0.004714    Cartesian    0.12
    155 z         -6.344605     -6.347252    -0.002648    Cartesian    0.04
    156 x          6.344605      6.358036     0.013432    Cartesian    0.21
    156 y          3.806763      3.803746    -0.003017    Cartesian   -0.08
    156 z          6.344605      6.344335    -0.000269    Cartesian   -0.00
    157 x          1.268921      1.267733    -0.001188    Cartesian   -0.09
    157 y          8.882446      8.890775     0.008329    Cartesian    0.09
    157 z          3.806763      3.810826     0.004064    Cartesian    0.11
    158 x          5.075684      5.074878    -0.000806    Cartesian   -0.02
    158 y          2.537842      2.538637     0.000795    Cartesian    0.03
    158 z          7.613525      7.624742     0.011216    Cartesian    0.15
    159 x          3.806763      3.807043     0.000281    Cartesian    0.01
    159 y          8.882446      8.888702     0.006255    Cartesian    0.07
    159 z         -3.806763     -3.809346    -0.002584    Cartesian    0.07
    160 x         -6.344605     -6.360532    -0.015927    Cartesian    0.25
    160 y          3.806763      3.812309     0.005546    Cartesian    0.15
    160 z         -3.806763     -3.812331    -0.005568    Cartesian    0.15
    161 x          1.268921      1.268921     0.000000    Cartesian    0.00
    161 y          1.268921      1.268921     0.000000    Cartesian    0.00
    161 z         -8.882446     -9.130208    -0.247761    Cartesian    2.79
    162 x          7.613525      7.611272    -0.002254    Cartesian   -0.03
    162 y          7.613525      7.611272    -0.002254    Cartesian   -0.03
    162 z          0.000000      0.000000     0.000000    Cartesian    0.00
    163 x         -5.075684     -5.073817     0.001867    Cartesian   -0.04
    163 y          5.075684      5.071542    -0.004142    Cartesian   -0.08
    163 z          5.075684      5.073932    -0.001751    Cartesian   -0.03
    164 x          0.000000      0.000297     0.000297    Cartesian *******
    164 y         10.151367     10.145296    -0.006071    Cartesian   -0.06
    164 z          0.000000      0.000000     0.000000    Cartesian    0.00
    165 x          6.344605      6.348338     0.003734    Cartesian    0.06
    165 y          8.882446      8.886271     0.003825    Cartesian    0.04
    165 z         -1.268921     -1.268541     0.000380    Cartesian   -0.03
    166 x         -6.344605     -6.351024    -0.006419    Cartesian    0.10
    166 y          6.344605      6.347762     0.003157    Cartesian    0.05
    166 z         -1.268921     -1.270137    -0.001216    Cartesian    0.10
    167 x          3.806763      3.817004     0.010241    Cartesian    0.27
    167 y          1.268921      1.264023    -0.004898    Cartesian   -0.39
    167 z          8.882446      8.889907     0.007461    Cartesian    0.08
    168 x          5.075684      5.071716    -0.003968    Cartesian   -0.08
    168 y         -2.537842     -2.533874     0.003968    Cartesian   -0.16
    168 z          7.613525      7.616803     0.003278    Cartesian    0.04
    169 x         -5.075684     -5.074028     0.001655    Cartesian   -0.03
    169 y          7.613525      7.611870    -0.001655    Cartesian   -0.02
    169 z         -2.537842     -2.537252     0.000590    Cartesian   -0.02
    170 x          2.537842      2.537546    -0.000296    Cartesian   -0.01
    170 y         10.151367     10.147196    -0.004171    Cartesian   -0.04
    170 z         -2.537842     -2.537193     0.000649    Cartesian   -0.03
    171 x          6.344605      6.345422     0.000817    Cartesian    0.01
    171 y          6.344605      6.345422     0.000817    Cartesian    0.01
    171 z          6.344605      6.348654     0.004050    Cartesian    0.06
    172 x         -3.806763     -3.813002    -0.006239    Cartesian    0.16
    172 y          6.344605      6.350843     0.006239    Cartesian    0.10
    172 z          6.344605      6.350531     0.005927    Cartesian    0.09
    173 x         -1.268921     -1.285732    -0.016811    Cartesian    1.32
    173 y          3.806763      3.823574     0.016811    Cartesian    0.44
    173 z         -8.882446     -8.922043    -0.039597    Cartesian    0.45
    174 x         -1.268921     -1.276032    -0.007111    Cartesian    0.56
    174 y         -1.268921     -1.276032    -0.007111    Cartesian    0.56
    174 z         -8.882446     -8.908251    -0.025805    Cartesian    0.29
    175 x          5.075684      5.071969    -0.003715    Cartesian   -0.07
    175 y         10.151367     10.148676    -0.002691    Cartesian   -0.03
    175 z          0.000000      0.000000     0.000000    Cartesian    0.00
    176 x          8.882446      8.890233     0.007787    Cartesian    0.09
    176 y          6.344605      6.346684     0.002079    Cartesian    0.03
    176 z          3.806763      3.808648     0.001885    Cartesian    0.05
    177 x         -6.344605     -6.357618    -0.013014    Cartesian    0.21
    177 y          1.268921      1.267313    -0.001608    Cartesian   -0.13
    177 z         -6.344605     -6.350235    -0.005631    Cartesian    0.09
    178 x         -3.806763     -3.811197    -0.004434    Cartesian    0.12
    178 y          8.882446      8.886325     0.003878    Cartesian    0.04
    178 z          3.806763      3.805471    -0.001292    Cartesian   -0.03
    179 x          7.613525      7.612637    -0.000888    Cartesian   -0.01
    179 y          0.000000     -0.000183    -0.000183    Cartesian    0.00
    179 z          7.613525      7.615076     0.001550    Cartesian    0.02
    180 x         -2.537842     -2.535880     0.001961    Cartesian   -0.08
    180 y         10.151367     10.148595    -0.002772    Cartesian   -0.03
    180 z         -2.537842     -2.537319     0.000523    Cartesian   -0.02
    181 x          8.882446      8.889673     0.007226    Cartesian    0.08
    181 y          3.806763      3.809390     0.002627    Cartesian    0.07
    181 z          6.344605      6.350961     0.006357    Cartesian    0.10
    182 x         -1.268921     -1.268176     0.000745    Cartesian   -0.06
    182 y          8.882446      8.882820     0.000374    Cartesian    0.00
    182 z          6.344605      6.349731     0.005127    Cartesian    0.08
    183 x          1.268921      1.268678    -0.000243    Cartesian   -0.02
    183 y         11.420288     11.424296     0.004008    Cartesian    0.04
    183 z          1.268921      1.269628     0.000707    Cartesian    0.06
    184 x         -3.806763     -3.814876    -0.008113    Cartesian    0.21
    184 y          1.268921      1.266997    -0.001924    Cartesian   -0.15
    184 z         -8.882446     -8.887617    -0.005170    Cartesian    0.06
    185 x          7.613525      7.611075    -0.002451    Cartesian   -0.03
    185 y          7.613525      7.611075    -0.002451    Cartesian   -0.03
    185 z          5.075684      5.074320    -0.001363    Cartesian   -0.03
    186 x          0.000000     -0.000001    -0.000001    Cartesian *******
    186 y         10.151367     10.149244    -0.002123    Cartesian   -0.02
    186 z         -5.075684     -5.074065     0.001618    Cartesian   -0.03
    187 x          2.537842      2.528536    -0.009306    Cartesian   -0.37
    187 y          2.537842      2.528536    -0.009306    Cartesian   -0.37
    187 z         10.151367     10.178282     0.026915    Cartesian    0.27
    188 x          6.344605      6.358439     0.013834    Cartesian    0.22
    188 y         -1.268921     -1.267411     0.001510    Cartesian   -0.12
    188 z          8.882446      8.881716    -0.000730    Cartesian   -0.01
    189 x          6.344605      6.349381     0.004777    Cartesian    0.08
    189 y          3.806763      3.807967     0.001204    Cartesian    0.03
    189 z          8.882446      8.884144     0.001697    Cartesian    0.02
    190 x          3.806763      3.806841     0.000079    Cartesian    0.00
    190 y         11.420288     11.425683     0.005395    Cartesian    0.05
    190 z         -1.268921     -1.267956     0.000965    Cartesian   -0.08
    191 x         -1.268921     -1.269600    -0.000680    Cartesian    0.05
    191 y         11.420288     11.424244     0.003955    Cartesian    0.03
    191 z         -1.268921     -1.270861    -0.001941    Cartesian    0.15
    192 x          7.613525      7.611334    -0.002192    Cartesian   -0.03
    192 y          5.075684      5.074749    -0.000935    Cartesian   -0.02
    192 z          7.613525      7.612555    -0.000970    Cartesian   -0.01
    193 x          8.882446      8.884880     0.002434    Cartesian    0.03
    193 y          8.882446      8.884880     0.002434    Cartesian    0.03
    193 z          1.268921      1.270442     0.001521    Cartesian    0.12
    194 x         -6.344605     -6.346214    -0.001610    Cartesian    0.03
    194 y          8.882446      8.884056     0.001610    Cartesian    0.02
    194 z          1.268921      1.269073     0.000153    Cartesian    0.01
    195 x          1.268921      1.266758    -0.002163    Cartesian   -0.17
    195 y         11.420288     11.424234     0.003946    Cartesian    0.03
    195 z         -3.806763     -3.807695    -0.000933    Cartesian    0.02
    196 x         10.151367     10.148129    -0.003238    Cartesian   -0.03
    196 y          5.075684      5.073191    -0.002493    Cartesian   -0.05
    196 z          5.075684      5.074402    -0.001282    Cartesian   -0.03
    197 x          5.075684      5.076494     0.000811    Cartesian    0.02
    197 y         -0.000000     -0.000378    -0.000378    Cartesian *******
    197 z         10.151367     10.155906     0.004539    Cartesian    0.04
    198 x         -5.075684     -5.071490     0.004193    Cartesian   -0.08
    198 y         10.151367     10.146839    -0.004528    Cartesian   -0.04
    198 z          0.000000      0.000000     0.000000    Cartesian    0.00
    199 x         -6.344605     -6.350011    -0.005407    Cartesian    0.09
    199 y          6.344605      6.346792     0.002188    Cartesian    0.03
    199 z         -6.344605     -6.347295    -0.002690    Cartesian    0.04
    200 x          3.806763      3.809108     0.002345    Cartesian    0.06
    200 y         11.420288     11.426157     0.005869    Cartesian    0.05
    200 z          3.806763      3.809013     0.002251    Cartesian    0.06
    201 x         -1.268921     -1.271333    -0.002412    Cartesian    0.19
    201 y         11.420288     11.427625     0.007336    Cartesian    0.06
    201 z          3.806763      3.806640    -0.000122    Cartesian   -0.00
    202 x          6.344605      6.347460     0.002856    Cartesian    0.05
    202 y          8.882446      8.884308     0.001862    Cartesian    0.02
    202 z         -6.344605     -6.346641    -0.002036    Cartesian    0.03
    203 x          7.613525      7.609379    -0.004147    Cartesian   -0.05
    203 y         10.151367     10.147065    -0.004302    Cartesian   -0.04
    203 z         -2.537842     -2.536847     0.000995    Cartesian   -0.04
    204 x         -6.344605     -6.351656    -0.007052    Cartesian    0.11
    204 y          8.882446      8.889498     0.007052    Cartesian    0.08
    204 z         -3.806763     -3.810408    -0.003645    Cartesian    0.10
    205 x          8.882446      8.885014     0.002567    Cartesian    0.03
    205 y          8.882446      8.885014     0.002567    Cartesian    0.03
    205 z         -3.806763     -3.808136    -0.001373    Cartesian    0.04
    206 x          6.344605      6.347997     0.003393    Cartesian    0.05
    206 y          6.344605      6.347997     0.003393    Cartesian    0.05
    206 z          8.882446      8.884090     0.001644    Cartesian    0.02
    207 x         -3.806763     -3.808889    -0.002126    Cartesian    0.06
    207 y          6.344605      6.346731     0.002126    Cartesian    0.03
    207 z         -8.882446     -8.890480    -0.008034    Cartesian    0.09
    208 x          6.344605      6.347207     0.002603    Cartesian    0.04
    208 y         11.420288     11.426390     0.006102    Cartesian    0.05
    208 z          1.268921      1.270950     0.002029    Cartesian    0.16
    209 x          1.268921      1.268921     0.000000    Cartesian    0.00
    209 y          1.268921      1.268921     0.000000    Cartesian    0.00
    209 z         11.420288     11.516577     0.096289    Cartesian    0.84
    210 x         -3.806763     -3.808803    -0.002040    Cartesian    0.05
    210 y         11.420288     11.427209     0.006921    Cartesian    0.06
    210 z          1.268921      1.269636     0.000715    Cartesian    0.06
    211 x          5.075684      5.070422    -0.005262    Cartesian   -0.10
    211 y          5.075684      5.070422    -0.005262    Cartesian   -0.10
    211 z         10.151367     10.151428     0.000061    Cartesian    0.00
    212 x          2.537842      2.536916    -0.000926    Cartesian   -0.04
    212 y         12.689209     12.681664    -0.007545    Cartesian   -0.06
    212 z          0.000000      0.000000     0.000000    Cartesian    0.00
    213 x          8.882446      8.887424     0.004977    Cartesian    0.06
    213 y          1.268921      1.268733    -0.000188    Cartesian   -0.01
    213 z          8.882446      8.888260     0.005814    Cartesian    0.07
    214 x         -1.268921     -1.279322    -0.010401    Cartesian    0.82
    214 y          1.268921      1.271042     0.002122    Cartesian    0.17
    214 z        -11.420288    -11.423813    -0.003525    Cartesian    0.03
    215 x         -5.075684     -5.069913     0.005771    Cartesian   -0.11
    215 y          7.613525      7.607755    -0.005771    Cartesian   -0.08
    215 z         -7.613525     -7.607505     0.006021    Cartesian   -0.08
    216 x         10.151367     10.146827    -0.004540    Cartesian   -0.04
    216 y          2.537842      2.536669    -0.001173    Cartesian   -0.05
    216 z          7.613525      7.609300    -0.004225    Cartesian   -0.06
    217 x         12.689209     12.680578    -0.008631    Cartesian   -0.07
    217 y          0.000000      0.000618     0.000618    Cartesian *******
    217 z         -2.537842     -2.536131     0.001711    Cartesian   -0.07
    218 x          6.344605      6.347962     0.003357    Cartesian    0.05
    218 y         11.420288     11.429874     0.009586    Cartesian    0.08
    218 z         -3.806763     -3.808978    -0.002215    Cartesian    0.06
    219 x         -6.344605     -6.356140    -0.011536    Cartesian    0.18
    219 y          3.806763      3.810731     0.003968    Cartesian    0.10
    219 z         -8.882446     -8.891869    -0.009423    Cartesian    0.11
    220 x          3.806763      3.809668     0.002905    Cartesian    0.08
    220 y         -1.268921     -1.271826    -0.002905    Cartesian    0.23
    220 z         11.420288     11.440290     0.020001    Cartesian    0.18
    221 x          3.806763      3.813127     0.006364    Cartesian    0.17
    221 y          3.806763      3.813127     0.006364    Cartesian    0.17
    221 z         11.420288     11.445554     0.025266    Cartesian    0.22
    222 x         -8.882446     -8.892132    -0.009686    Cartesian    0.11
    222 y          6.344605      6.351273     0.006668    Cartesian    0.11
    222 z         -3.806763     -3.812465    -0.005702    Cartesian    0.15
    223 x          1.268921      1.269700     0.000779    Cartesian    0.06
    223 y         11.420288     11.432385     0.012097    Cartesian    0.11
    223 z          6.344605      6.348292     0.003688    Cartesian    0.06
    224 x         -6.344605     -6.349240    -0.004635    Cartesian    0.07
    224 y         -1.268921     -1.270168    -0.001247    Cartesian    0.10
    224 z         -8.882446     -8.890671    -0.008224    Cartesian    0.09
--------------------------------------------------------------------------------


  Time to end of optimisation  =       34.1660 seconds


  Peak dynamic memory used =     351.23 MB 


  Timing analysis for GULP :

--------------------------------------------------------------------------------
  Task / Subroutine                                          Time (Seconds)
--------------------------------------------------------------------------------
  Calculation of reciprocal space energy and derivatives          0.0003
  Calculation of reciprocal space energy using symmetry           0.0007
  Calculation of real space energy and derivatives                0.0029
  Calculation of real space energy using symmetry                 0.0158
  Calculation for region 1 energy and derivatives (2-b)          10.5646
  Calculation for region 2a energy                               21.5834
  Calculation for region 2b energy                                0.0002
  Calculation and manipulation of Hessian matrix                  1.5472
  Calculation of matrix inversion                                 0.1099
  Symmetry generation of equivalent positions                     0.0074
--------------------------------------------------------------------------------
  Total CPU time                                                 34.1661
--------------------------------------------------------------------------------


  Dump file written as ZrO2.grs


  Job Finished at 12:34.35  6th October    2020                               

