********************************************************************************
*                       GENERAL UTILITY LATTICE PROGRAM                        *
*                                 Julian Gale                                  *
*                       Curtin Institute for Computation                       *
*                    School of Molecular and Life Sciences                     *
*                    Curtin University, Western Australia                      *
********************************************************************************
* Version = 5.2.0 * Last modified =  10th September 2020                       *
********************************************************************************
* Zirconia doped with calcium                                                  *
*  optimise     - perform optimisation run                                     *
*  conp         - constant pressure calculation                                *
*  property     - calculate properties for final geometry                      *
*  defect       - perform defect calculation after bulk run                    *
*  distance     - calculate distances                                          *
*  compare      - compare initial and final structures                         *
********************************************************************************
* Zirconia doped with calcium                                                  *
********************************************************************************


  Job Started  at 13:14.34  6th October    2020                               

  Number of CPUs =     1


  Total number of configurations input =      1

********************************************************************************
*  Input for Configuration =   1 : ZrO2                                        *
********************************************************************************

  Formula = ZrO2                                                        

  Number of irreducible atoms/shells =       4


  Total number atoms/shells =       6

  Dimensionality = 3               :  Bulk   


  Symmetry :

  Crystal family                   :  Cubic       
  Crystal class  (Groth - 1921)    :  Cubic Hexakisoctahedral              

  Space group (centrosymmetric)    :  F M 3 M         

  Patterson group                  :  F m -3 m 

  Cartesian lattice vectors (Angstroms) :

        0.000000    2.535000    2.535000
        2.535000    0.000000    2.535000
        2.535000    2.535000    0.000000

  Primitive cell parameters :            Full cell parameters :

  a =   3.5850    alpha =  60.0000       a =   5.0700    alpha =  90.0000
  b =   3.5850    beta  =  60.0000       b =   5.0700    beta  =  90.0000
  c =   3.5850    gamma =  60.0000       c =   5.0700    gamma =  90.0000

  Initial volumes (Angstroms**3):

  Primitive cell =          32.580961    Full cell =         130.323843

  Temperature of configuration =   0.00     K 

  Pressure of configuration =         0.000 GPa 

  Fractional coordinates of asymmetric unit :

--------------------------------------------------------------------------------
   No.  Atomic       x           y          z         Charge      Occupancy
        Label      (Frac)      (Frac)     (Frac)        (e)         (Frac)  
--------------------------------------------------------------------------------
      1 Zr    c    0.000000    0.000000    0.000000     2.65000    1.000000    
      2 O     c    0.250000    0.250000    0.250000     0.07700    1.000000    
      3 Zr    s    0.000000    0.000000    0.000000     1.35000    1.000000    
      4 O     s    0.250000    0.250000    0.250000    -2.07700    1.000000    
--------------------------------------------------------------------------------


  Constraints : 

--------------------------------------------------------------------------------
  Constraint no.      Unconstrained     Constrained    Coefficient    Offset
                         Variable         Variable
--------------------------------------------------------------------------------
           1              Strain 1        Strain 2       1.00000      0.0000
           2              Strain 1        Strain 3       1.00000      0.0000
--------------------------------------------------------------------------------


  Distance calculation :


  Cutoff for distances  =      4.000000 Angstroms

--------------------------------------------------------------------------------
  Asymmetric unit site  Full lattice sites    No.  Distance      No.  Distance
      No.   At.No.            At.No.                (Angs)             (Angs) 
--------------------------------------------------------------------------------
       1   Zr    core        Zr    core        12    3.5850
                             Zr    shell       12    3.5850
                             O     core         8    2.1954
                             O     shell        8    2.1954
--------------------------------------------------------------------------------
       2   O     core        Zr    core         4    2.1954
                             Zr    shell        4    2.1954
                             O     core         6    2.5350       12    3.5850
                             O     shell        6    2.5350       12    3.5850
--------------------------------------------------------------------------------
       3   Zr    shell       Zr    core        12    3.5850
                             Zr    shell       12    3.5850
                             O     core         8    2.1954
                             O     shell        8    2.1954
--------------------------------------------------------------------------------
       4   O     shell       Zr    core         4    2.1954
                             Zr    shell        4    2.1954
                             O     core         6    2.5350       12    3.5850
                             O     shell        6    2.5350       12    3.5850
--------------------------------------------------------------------------------



********************************************************************************
*  General input information                                                   *
********************************************************************************

  Species output for all configurations : 

--------------------------------------------------------------------------------
  Species    Type    Atomic    Atomic    Charge       Radii (Angs)     Library
                     Number     Mass       (e)     Cova   Ionic  VDW   Symbol
--------------------------------------------------------------------------------
    Zr       Core       40      91.22   2.650000   1.560  0.000  2.330          
    Zr       Shell      40       0.00   1.350000   1.560  0.000  2.330          
    O        Core        8      16.00   0.077000   0.730  0.000  1.360          
    O        Shell       8       0.00  -2.077000   0.730  0.000  1.360          
--------------------------------------------------------------------------------


  Lattice summation method               =    Ewald          (3-D)
                                         =    Parry          (2-D)
                                         =    Saunders et al (1-D)
  Accuracy factor for lattice sums       =   12.000


  Analytic derivatives to be used

  Time limit = Infinity

  Maximum range for interatomic potentials =    100000.000000 Angstroms

  General interatomic potentials :

--------------------------------------------------------------------------------
Atom  Types   Potential      Parameter       Value         Units   Cutoffs(Ang)
  1     2                                                            Min /  Max 
--------------------------------------------------------------------------------
O    s Zr   s Buckingham    Buckingham A     985.86900    eV        0.000 12.000
                            Buckingham rho  0.37600000    Ang       
                            Buckingham C     0.0000000    eV*Ang^6  
--------------------------------------------------------------------------------
O    s O    s Buckingham    Buckingham A     22764.300    eV        0.000 12.000
                            Buckingham rho  0.14900000    Ang       
                            Buckingham C     27.890000    eV*Ang^6  
--------------------------------------------------------------------------------
Zr   c Zr   s Spring (c-s)  Spring k 2       169.61700    eV*Ang^-2 0.000  0.800
                            Spring k 4       0.0000000    eV*Ang^-4 
--------------------------------------------------------------------------------
O    c O    s Spring (c-s)  Spring k 2       27.290000    eV*Ang^-2 0.000  0.800
                            Spring k 4       0.0000000    eV*Ang^-4 
--------------------------------------------------------------------------------

********************************************************************************
*  Output for configuration   1 : ZrO2                                         *
********************************************************************************


  Components of energy : 

--------------------------------------------------------------------------------
  Interatomic potentials     =          22.43756329 eV    
  Monopole - monopole (real) =         -15.67991073 eV    
  Monopole - monopole (recip)=        -116.52038266 eV    
  Monopole - monopole (total)=        -132.20029339 eV    
--------------------------------------------------------------------------------
  Total lattice energy : 
    Primitive unit cell      =        -109.76273010 eV    
    Non-primitive unit cell  =        -439.05092039 eV    
--------------------------------------------------------------------------------
  Total lattice energy (in kJmol-1): 
    Primitive unit cell      =          -10590.4256 kJ/(mole unit cells)
    Non-primitive unit cell  =          -42361.7023 kJ/(mole unit cells)
--------------------------------------------------------------------------------


  Number of variables =        1

  Maximum number of calculations  =          1000
  Maximum Hessian update interval =            10
  Maximum step size               =   1.000000000
  Maximum parameter tolerance     =   0.000010000
  Maximum function  tolerance     =   0.000010000
  Maximum gradient  tolerance     =   0.001000000
  Maximum gradient  component     =   0.010000000

  Symmetry constrained optimisation

  Symmetry used for second derivatives

  Cell parameters to be optimised using strains

  Newton-Raphson optimiser to be used

  BFGS hessian update to be used

  Lower half triangular hessian to be used

  Start of bulk optimisation :

  Cycle:      0 Energy:      -109.762730  Gnorm:      0.588311  CPU:    0.009
  ** Hessian calculated **
  Cycle:      1 Energy:      -109.763059  Gnorm:      0.000316  CPU:    0.012


  **** Optimisation achieved ****


  Final energy =    -109.76305939 eV
  Final Gnorm  =       0.00000099

  Components of energy : 

--------------------------------------------------------------------------------
  Interatomic potentials     =          22.28919976 eV    
  Monopole - monopole (real) =         -15.66235280 eV    
  Monopole - monopole (recip)=        -116.38990634 eV    
  Monopole - monopole (total)=        -132.05225914 eV    
--------------------------------------------------------------------------------
  Total lattice energy : 
    Primitive unit cell      =        -109.76305939 eV    
    Non-primitive unit cell  =        -439.05223754 eV    
--------------------------------------------------------------------------------
  Total lattice energy (in kJmol-1): 
    Primitive unit cell      =          -10590.4573 kJ/(mole unit cells)
    Non-primitive unit cell  =          -42361.8294 kJ/(mole unit cells)
--------------------------------------------------------------------------------

  Final asymmetric unit coordinates :

--------------------------------------------------------------------------------
   No.  Atomic        x           y           z         Radius
        Label       (Frac)      (Frac)      (Frac)       (Angs) 
--------------------------------------------------------------------------------
     1  Zr    c     0.000000    0.000000    0.000000    0.000000
     2  O     c     0.250000    0.250000    0.250000    0.000000
     3  Zr    s     0.000000    0.000000    0.000000    0.000000
     4  O     s     0.250000    0.250000    0.250000    0.000000
--------------------------------------------------------------------------------

  Final Cartesian lattice vectors (Angstroms) :

        0.000000    2.537842    2.537842
        2.537842    0.000000    2.537842
        2.537842    2.537842    0.000000


  Final cell parameters and derivatives :

--------------------------------------------------------------------------------
       a            3.589050 Angstrom     dE/de1(xx)    -0.000001 eV/strain
       b            3.589050 Angstrom     dE/de2(yy)     0.000000 eV/strain
       c            3.589050 Angstrom     dE/de3(zz)     0.000000 eV/strain
       alpha       60.000000 Degrees      dE/de4(yz)     0.000000 eV/strain
       beta        60.000000 Degrees      dE/de5(xz)     0.000000 eV/strain
       gamma       60.000000 Degrees      dE/de6(xy)     0.000000 eV/strain
--------------------------------------------------------------------------------

  Primitive cell volume =            32.690656 Angs**3

  Density of cell =      6.259124 g/cm**3

  Non-primitive lattice parameters :

  a    =     5.075684  b   =     5.075684  c    =     5.075684
  alpha=    90.000000  beta=    90.000000  gamma=    90.000000

  Non-primitive cell volume =           130.762624 Angs**3


  Final internal derivatives :

--------------------------------------------------------------------------------
   No.  Atomic          a             b             c           Radius
        Label          (eV)          (eV)          (eV)        (eV/Angs)
--------------------------------------------------------------------------------
      1 Zr    c       0.000000      0.000000      0.000000      0.000000
      2 O     c       0.000000      0.000000      0.000000      0.000000
      3 Zr    s       0.000000      0.000000      0.000000      0.000000
      4 O     s       0.000000      0.000000      0.000000      0.000000
--------------------------------------------------------------------------------
  Maximum abs         0.000000      0.000000      0.000000      0.000000
--------------------------------------------------------------------------------

  Comparison of initial and final structures : 

--------------------------------------------------------------------------------
  Parameter   Initial value   Final value   Difference    Units      Percent
--------------------------------------------------------------------------------
    Volume       130.323843    130.762624     0.438781    Angs**3      0.34
    a              5.070000      5.075684     0.005684    Angstroms    0.11
    b              5.070000      5.075684     0.005684    Angstroms    0.11
    c              5.070000      5.075684     0.005684    Angstroms    0.11
    alpha         90.000000     90.000000     0.000000    Degrees      0.00
    beta          90.000000     90.000000     0.000000    Degrees      0.00
    gamma         90.000000     90.000000     0.000000    Degrees      0.00
      1 x          0.000000      0.000000     0.000000    Fractional   0.00
      1 y          0.000000      0.000000     0.000000    Fractional   0.00
      1 z          0.000000      0.000000     0.000000    Fractional   0.00
      2 x          0.250000      0.250000     0.000000    Fractional   0.00
      2 y          0.250000      0.250000     0.000000    Fractional   0.00
      2 z          0.250000      0.250000     0.000000    Fractional   0.00
      3 x          0.000000      0.000000     0.000000    Fractional   0.00
      3 y          0.000000      0.000000     0.000000    Fractional   0.00
      3 z          0.000000      0.000000     0.000000    Fractional   0.00
      4 x          0.250000      0.250000     0.000000    Fractional   0.00
      4 y          0.250000      0.250000     0.000000    Fractional   0.00
      4 z          0.250000      0.250000     0.000000    Fractional   0.00
--------------------------------------------------------------------------------


  Distance calculation :


  Cutoff for distances  =      4.000000 Angstroms

--------------------------------------------------------------------------------
  Asymmetric unit site  Full lattice sites    No.  Distance      No.  Distance
      No.   At.No.            At.No.                (Angs)             (Angs) 
--------------------------------------------------------------------------------
       1   Zr    core        Zr    core        12    3.5891
                             Zr    shell       12    3.5891
                             O     core         8    2.1978
                             O     shell        8    2.1978
--------------------------------------------------------------------------------
       2   O     core        Zr    core         4    2.1978
                             Zr    shell        4    2.1978
                             O     core         6    2.5378       12    3.5891
                             O     shell        6    2.5378       12    3.5891
--------------------------------------------------------------------------------
       3   Zr    shell       Zr    core        12    3.5891
                             Zr    shell       12    3.5891
                             O     core         8    2.1978
                             O     shell        8    2.1978
--------------------------------------------------------------------------------
       4   O     shell       Zr    core         4    2.1978
                             Zr    shell        4    2.1978
                             O     core         6    2.5378       12    3.5891
                             O     shell        6    2.5378       12    3.5891
--------------------------------------------------------------------------------



  Born effective charge tensors : 

-------------------------------------------------------------------------------
  Atom             x           y             z
-------------------------------------------------------------------------------
    1 Zr    x       3.6770      0.0000      0.0000
            y       0.0000      3.6770      0.0000
            z       0.0000      0.0000      3.6770
-------------------------------------------------------------------------------
    2 O     x      -1.8385      0.0000      0.0000
            y       0.0000     -1.8385     -0.0000
            z       0.0000     -0.0000     -1.8385
-------------------------------------------------------------------------------




  Elastic Constant Matrix: (Units=GPa)

-------------------------------------------------------------------------------
  Indices      1         2         3         4         5         6    
-------------------------------------------------------------------------------
       1    616.2933  119.6612  119.6612   -0.0000   -0.0000   -0.0000
       2    119.6612  616.2933  119.6612   -0.0000   -0.0000   -0.0000
       3    119.6612  119.6612  616.2933   -0.0000   -0.0000   -0.0000
       4     -0.0000   -0.0000   -0.0000  100.8598    0.0000   -0.0000
       5     -0.0000   -0.0000   -0.0000    0.0000  100.8598    0.0000
       6     -0.0000   -0.0000   -0.0000   -0.0000    0.0000  100.8598
-------------------------------------------------------------------------------


  Elastic Compliance Matrix: (Units=1/GPa)

-------------------------------------------------------------------------------
  Indices      1         2         3         4         5         6    
-------------------------------------------------------------------------------
       1    0.001732 -0.000282 -0.000282  0.000000  0.000000  0.000000
       2   -0.000282  0.001732 -0.000282 -0.000000  0.000000  0.000000
       3   -0.000282 -0.000282  0.001732  0.000000  0.000000  0.000000
       4    0.000000 -0.000000  0.000000  0.009915 -0.000000  0.000000
       5    0.000000  0.000000  0.000000 -0.000000  0.009915 -0.000000
       6    0.000000  0.000000  0.000000  0.000000 -0.000000  0.009915
-------------------------------------------------------------------------------

  Mechanical properties :

-------------------------------------------------------------------------------
  Convention :                    Reuss         Voigt         Hill
-------------------------------------------------------------------------------
  Bulk  Modulus (GPa)     =     285.20524     285.20524     285.20524
  Shear Modulus (GPa)     =     132.28031     159.84228     146.06129
-------------------------------------------------------------------------------
  Velocity S-wave (km/s)  =       4.59717       5.05346       4.83071
  Velocity P-wave (km/s)  =       8.58749       8.92280       8.75675
-------------------------------------------------------------------------------
  Compressibility (1/GPa) =    0.00350625
-------------------------------------------------------------------------------
  Stress axis :                     x             y             z
-------------------------------------------------------------------------------
  Youngs Moduli (GPa)     =     577.38110     577.38110     577.38110
-------------------------------------------------------------------------------
  Poissons Ratio (x)      =                     0.16259       0.16259
  Poissons Ratio (y)      =       0.16259                     0.16259
  Poissons Ratio (z)      =       0.16259       0.16259
-------------------------------------------------------------------------------


  Piezoelectric Strain Matrix: (Units=C/m**2)

-------------------------------------------------------------------------------
  Indices      1         2         3         4         5         6    
-------------------------------------------------------------------------------
       x    -0.00000   0.00000   0.00000   0.00000   0.00000   0.00000
       y    -0.00000  -0.00000  -0.00000   0.00000   0.00000   0.00000
       z    -0.00000  -0.00000  -0.00000   0.00000   0.00000   0.00000
-------------------------------------------------------------------------------


  Piezoelectric Stress Matrix: (Units=10**-11 C/N)

-------------------------------------------------------------------------------
  Indices      1         2         3         4         5         6    
-------------------------------------------------------------------------------
       x    -0.00000   0.00000   0.00000   0.00000   0.00000   0.00000
       y    -0.00000  -0.00000  -0.00000   0.00000   0.00000   0.00000
       z     0.00000   0.00000  -0.00000   0.00000   0.00000   0.00000
-------------------------------------------------------------------------------


  Static dielectric constant tensor : 

-------------------------------------------------------------------------------
              x         y         z
-------------------------------------------------------------------------------
       x    26.88485   0.00000   0.00000
       y     0.00000  26.88485   0.00000
       z     0.00000   0.00000  26.88485
--------------------------------------------------------------------------------

  High frequency dielectric constant tensor : 

-------------------------------------------------------------------------------
              x         y         z
-------------------------------------------------------------------------------
       x     2.63099   0.00000   0.00000
       y     0.00000   2.63099   0.00000
       z     0.00000   0.00000   2.63099
-------------------------------------------------------------------------------

  Static refractive indices : 

-------------------------------------------------------------------------------
    1 =    5.18506      2 =    5.18506      3 =    5.18506
-------------------------------------------------------------------------------

  High frequency refractive indices : 

-------------------------------------------------------------------------------
    1 =    1.62203      2 =    1.62203      3 =    1.62203
-------------------------------------------------------------------------------


  Time to end of optimisation =       0.0181 seconds

********************************************************************************
*  Defect calculation for configuration   1 :                                  *
********************************************************************************

  Total number of defects =      1

  Total charge on defect  =   4.00

  Defect centre is at   0.2500   0.2500   0.0000  Frac

  Region 1 radius =  12.0000      Number of ions =   1362

  Number of symmetry inequivalent region 1 ions  =    224

  Region 2 radius =  24.0000      Number of ions =   9264

  Number of symmetry inequivalent region 2a ions =   1296

  Region 2a mode = 4 : screened electrostatics due to region 1 
                       neglect correction to region 1 forces from 2a
                       region 2a displacements based on defects only

  Region 2a ions will only interact with defects in region 1

  Interstitials:

--------------------------------------------------------------------------------
    Specification type     Symbol/Number         x          y          z
--------------------------------------------------------------------------------
    Atom/Fractional         Zr               0.250000   0.250000   0.000000
--------------------------------------------------------------------------------


  Symmetry reduced region 1 (Relative to defect centre) :

--------------------------------------------------------------------------------
   No.   Atomic       x            y             z       Radius  Multiplicity   
         Label      (Angs)       (Angs)        (Angs)    (Angs)     
--------------------------------------------------------------------------------
     1  Zr    c      0.0000       0.0000       0.0000    0.0000     1    Defect
     2  O     c      0.0000       0.0000       1.2689 *  0.0000     2          
     3  Zr    c      1.2689 *     1.2689       0.0000    0.0000     2          
     4  O     c      0.0000 *     2.5378 *    -1.2689 *  0.0000     8          
     5  Zr    c      1.2689 *    -1.2689       2.5378 *  0.0000     4          
     6  O     c      2.5378 *     2.5378       1.2689 *  0.0000     4          
     7  O     c     -2.5378 *     2.5378       1.2689 *  0.0000     4          
     8  O     c      0.0000       0.0000      -3.8068 *  0.0000     2          
     9  Zr    c     -3.8068 *     1.2689 *     0.0000    0.0000     4          
    10  O     c      2.5378 *     0.0000 *     3.8068 *  0.0000     8          
    11  Zr    c      1.2689 *     3.8068 *    -2.5378 *  0.0000     8          
    12  O     c     -0.0000 *     5.0757 *    -1.2689 *  0.0000     8          
    13  O     c     -2.5378 *     2.5378      -3.8068 *  0.0000     4          
    14  O     c     -2.5378 *    -2.5378      -3.8068 *  0.0000     4          
    15  Zr    c      3.8068 *     3.8068       0.0000    0.0000     2          
    16  Zr    c      1.2689 *     1.2689       5.0757 *  0.0000     4          
    17  O     c      2.5378 *     5.0757 *     1.2689 *  0.0000     8          
    18  O     c      2.5378 *    -5.0757 *    -1.2689 *  0.0000     8          
    19  Zr    c     -3.8068 *     3.8068       2.5378 *  0.0000     4          
    20  O     c      0.0000       0.0000       6.3446 *  0.0000     2          
    21  O     c     -0.0000 *     5.0757 *     3.8068 *  0.0000     8          
    22  Zr    c      3.8068 *    -1.2689 *    -5.0757 *  0.0000     8          
    23  Zr    c      1.2689 *     6.3446 *     0.0000    0.0000     4          
    24  O     c      2.5378 *     5.0757 *    -3.8068 *  0.0000     8          
    25  O     c     -2.5378 *     0.0000 *    -6.3446 *  0.0000     8          
    26  O     c     -2.5378 *     5.0757 *     3.8068 *  0.0000     8          
    27  Zr    c     -6.3446 *     1.2689 *    -2.5378 *  0.0000     8          
    28  O     c      2.5378 *    -2.5378       6.3446 *  0.0000     4          
    29  O     c      2.5378 *     2.5378       6.3446 *  0.0000     4          
    30  O     c      5.0757 *     5.0757      -1.2689 *  0.0000     4          
    31  O     c     -5.0757 *     5.0757       1.2689 *  0.0000     4          
    32  Zr    c     -6.3446 *     3.8068 *     0.0000    0.0000     4          
    33  Zr    c      3.8068 *     3.8068       5.0757 *  0.0000     4          
    34  O     c      7.6135 *     0.0000 *    -1.2689 *  0.0000     8          
    35  Zr    c      3.8068 *     6.3446 *    -2.5378 *  0.0000     8          
    36  Zr    c      1.2689 *    -1.2689       7.6135 *  0.0000     4          
    37  O     c      2.5378 *     7.6135 *     1.2689 *  0.0000     8          
    38  O     c     -7.6135 *     2.5378 *     1.2689 *  0.0000     8          
    39  O     c      5.0757 *     5.0757       3.8068 *  0.0000     4          
    40  O     c      5.0757 *     0.0000 *     6.3446 *  0.0000     8          
    41  O     c     -5.0757 *     5.0757      -3.8068 *  0.0000     4          
    42  Zr    c      6.3446 *     1.2689 *    -5.0757 *  0.0000     8          
    43  O     c     -5.0757 *     2.5378 *    -6.3446 *  0.0000     8          
    44  O     c      5.0757 *     2.5378 *     6.3446 *  0.0000     8          
    45  O     c      0.0000 *     7.6135 *     3.8068 *  0.0000     8          
    46  Zr    c      3.8068 *     1.2689 *     7.6135 *  0.0000     8          
    47  O     c      2.5378 *     7.6135 *    -3.8068 *  0.0000     8          
    48  O     c     -7.6135 *     2.5378 *    -3.8068 *  0.0000     8          
    49  O     c      0.0000       0.0000      -8.8824 *  0.0000     2          
    50  Zr    c      6.3446 *     6.3446       0.0000    0.0000     2          
    51  Zr    c     -6.3446 *     3.8068 *     5.0757 *  0.0000     8          
    52  Zr    c     -1.2689 *     8.8824 *     0.0000    0.0000     4          
    53  O     c      5.0757 *     7.6135 *    -1.2689 *  0.0000     8          
    54  O     c     -7.6135 *     5.0757 *    -1.2689 *  0.0000     8          
    55  O     c      2.5378 *     0.0000 *     8.8824 *  0.0000     8          
    56  Zr    c      3.8068 *    -3.8068       7.6135 *  0.0000     4          
    57  Zr    c     -6.3446 *     6.3446      -2.5378 *  0.0000     4          
    58  Zr    c      1.2689 *     8.8824 *    -2.5378 *  0.0000     8          
    59  O     c      5.0757 *     5.0757       6.3446 *  0.0000     4          
    60  O     c     -5.0757 *     5.0757       6.3446 *  0.0000     4          
    61  O     c     -2.5378 *     2.5378      -8.8824 *  0.0000     4          
    62  O     c     -2.5378 *    -2.5378      -8.8824 *  0.0000     4          
    63  Zr    c      3.8068 *     8.8824 *     0.0000    0.0000     4          
    64  O     c      7.6135 *     5.0757 *     3.8068 *  0.0000     8          
    65  O     c     -7.6135 *     0.0000 *    -6.3446 *  0.0000     8          
    66  O     c     -5.0757 *     7.6135 *     3.8068 *  0.0000     8          
    67  Zr    c      6.3446 *    -1.2689 *     7.6135 *  0.0000     8          
    68  Zr    c     -3.8068 *     8.8824 *    -2.5378 *  0.0000     8          
    69  O     c      7.6135 *     2.5378 *     6.3446 *  0.0000     8          
    70  O     c     -2.5378 *     7.6135 *     6.3446 *  0.0000     8          
    71  O     c      0.0000 *    10.1514 *     1.2689 *  0.0000     8          
    72  O     c     -5.0757 *     0.0000 *    -8.8824 *  0.0000     8          
    73  Zr    c      6.3446 *     6.3446       5.0757 *  0.0000     4          
    74  Zr    c     -1.2689 *     8.8824 *    -5.0757 *  0.0000     8          
    75  Zr    c      1.2689 *     1.2689      10.1514 *  0.0000     4          
    76  O     c      5.0757 *    -2.5378 *     8.8824 *  0.0000     8          
    77  O     c      5.0757 *     2.5378 *     8.8824 *  0.0000     8          
    78  O     c      2.5378 *    10.1514 *    -1.2689 *  0.0000     8          
    79  O     c     -2.5378 *    10.1514 *    -1.2689 *  0.0000     8          
    80  Zr    c      6.3446 *     3.8068 *     7.6135 *  0.0000     8          
    81  O     c      7.6135 *     7.6135       1.2689 *  0.0000     4          
    82  O     c     -7.6135 *     7.6135       1.2689 *  0.0000     4          
    83  O     c      0.0000 *    10.1514 *    -3.8068 *  0.0000     8          
    84  Zr    c      8.8824 *     3.8068 *     5.0757 *  0.0000     8          
    85  Zr    c      3.8068 *    -1.2689 *    10.1514 *  0.0000     8          
    86  Zr    c     -6.3446 *     8.8824 *     0.0000    0.0000     4          
    87  O     c     -7.6135 *     5.0757 *    -6.3446 *  0.0000     8          
    88  O     c      2.5378 *    10.1514 *     3.8068 *  0.0000     8          
    89  O     c     -2.5378 *    10.1514 *     3.8068 *  0.0000     8          
    90  O     c      5.0757 *     7.6135 *    -6.3446 *  0.0000     8          
    91  Zr    c      6.3446 *     8.8824 *    -2.5378 *  0.0000     8          
    92  O     c     -7.6135 *     7.6135      -3.8068 *  0.0000     4          
    93  O     c      7.6135 *     7.6135      -3.8068 *  0.0000     4          
    94  O     c      5.0757 *     5.0757       8.8824 *  0.0000     4          
    95  O     c     -5.0757 *     5.0757      -8.8824 *  0.0000     4          
    96  O     c      5.0757 *    10.1514 *     1.2689 *  0.0000     8          
    97  O     c      0.0000       0.0000      11.4203 *  0.0000     2          
    98  O     c     -5.0757 *    10.1514 *     1.2689 *  0.0000     8          
    99  Zr    c      3.8068 *     3.8068      10.1514 *  0.0000     4          
   100  Zr    c      1.2689 *    11.4203 *     0.0000    0.0000     4          
   101  O     c      7.6135 *     0.0000 *     8.8824 *  0.0000     8          
   102  O     c     -2.5378 *     0.0000 *   -11.4203 *  0.0000     8          
   103  Zr    c     -6.3446 *     6.3446      -7.6135 *  0.0000     4          
   104  Zr    c      8.8824 *     1.2689 *     7.6135 *  0.0000     8          
   105  Zr    c     11.4203 *    -1.2689 *    -2.5378 *  0.0000     8          
   106  O     c      5.0757 *    10.1514 *    -3.8068 *  0.0000     8          
   107  O     c     -7.6135 *     2.5378 *    -8.8824 *  0.0000     8          
   108  O     c      2.5378 *    -2.5378      11.4203 *  0.0000     4          
   109  O     c      2.5378 *     2.5378      11.4203 *  0.0000     4          
   110  O     c    -10.1514 *     5.0757 *    -3.8068 *  0.0000     8          
   111  O     c      0.0000 *    10.1514 *     6.3446 *  0.0000     8          
   112  O     c     -7.6135 *    -2.5378 *    -8.8824 *  0.0000     8          
   113  Zr    s      0.0000       0.0000       0.0000    0.0000     1    Defect
   114  O     s      0.0000       0.0000       1.2689 *  0.0000     2          
   115  Zr    s      1.2689 *     1.2689       0.0000    0.0000     2          
   116  O     s      0.0000 *     2.5378 *    -1.2689 *  0.0000     8          
   117  Zr    s      1.2689 *    -1.2689       2.5378 *  0.0000     4          
   118  O     s      2.5378 *     2.5378       1.2689 *  0.0000     4          
   119  O     s     -2.5378 *     2.5378       1.2689 *  0.0000     4          
   120  O     s      0.0000       0.0000      -3.8068 *  0.0000     2          
   121  Zr    s     -3.8068 *     1.2689 *     0.0000    0.0000     4          
   122  O     s      2.5378 *     0.0000 *     3.8068 *  0.0000     8          
   123  Zr    s      1.2689 *     3.8068 *    -2.5378 *  0.0000     8          
   124  O     s     -0.0000 *     5.0757 *    -1.2689 *  0.0000     8          
   125  O     s     -2.5378 *     2.5378      -3.8068 *  0.0000     4          
   126  O     s     -2.5378 *    -2.5378      -3.8068 *  0.0000     4          
   127  Zr    s      3.8068 *     3.8068       0.0000    0.0000     2          
   128  Zr    s      1.2689 *     1.2689       5.0757 *  0.0000     4          
   129  O     s      2.5378 *     5.0757 *     1.2689 *  0.0000     8          
   130  O     s      2.5378 *    -5.0757 *    -1.2689 *  0.0000     8          
   131  Zr    s     -3.8068 *     3.8068       2.5378 *  0.0000     4          
   132  O     s      0.0000       0.0000       6.3446 *  0.0000     2          
   133  O     s     -0.0000 *     5.0757 *     3.8068 *  0.0000     8          
   134  Zr    s      3.8068 *    -1.2689 *    -5.0757 *  0.0000     8          
   135  Zr    s      1.2689 *     6.3446 *     0.0000    0.0000     4          
   136  O     s      2.5378 *     5.0757 *    -3.8068 *  0.0000     8          
   137  O     s     -2.5378 *     0.0000 *    -6.3446 *  0.0000     8          
   138  O     s     -2.5378 *     5.0757 *     3.8068 *  0.0000     8          
   139  Zr    s     -6.3446 *     1.2689 *    -2.5378 *  0.0000     8          
   140  O     s      2.5378 *    -2.5378       6.3446 *  0.0000     4          
   141  O     s      2.5378 *     2.5378       6.3446 *  0.0000     4          
   142  O     s      5.0757 *     5.0757      -1.2689 *  0.0000     4          
   143  O     s     -5.0757 *     5.0757       1.2689 *  0.0000     4          
   144  Zr    s     -6.3446 *     3.8068 *     0.0000    0.0000     4          
   145  Zr    s      3.8068 *     3.8068       5.0757 *  0.0000     4          
   146  O     s      7.6135 *     0.0000 *    -1.2689 *  0.0000     8          
   147  Zr    s      3.8068 *     6.3446 *    -2.5378 *  0.0000     8          
   148  Zr    s      1.2689 *    -1.2689       7.6135 *  0.0000     4          
   149  O     s      2.5378 *     7.6135 *     1.2689 *  0.0000     8          
   150  O     s     -7.6135 *     2.5378 *     1.2689 *  0.0000     8          
   151  O     s      5.0757 *     5.0757       3.8068 *  0.0000     4          
   152  O     s      5.0757 *     0.0000 *     6.3446 *  0.0000     8          
   153  O     s     -5.0757 *     5.0757      -3.8068 *  0.0000     4          
   154  Zr    s      6.3446 *     1.2689 *    -5.0757 *  0.0000     8          
   155  O     s     -5.0757 *     2.5378 *    -6.3446 *  0.0000     8          
   156  O     s      5.0757 *     2.5378 *     6.3446 *  0.0000     8          
   157  O     s      0.0000 *     7.6135 *     3.8068 *  0.0000     8          
   158  Zr    s      3.8068 *     1.2689 *     7.6135 *  0.0000     8          
   159  O     s      2.5378 *     7.6135 *    -3.8068 *  0.0000     8          
   160  O     s     -7.6135 *     2.5378 *    -3.8068 *  0.0000     8          
   161  O     s      0.0000       0.0000      -8.8824 *  0.0000     2          
   162  Zr    s      6.3446 *     6.3446       0.0000    0.0000     2          
   163  Zr    s     -6.3446 *     3.8068 *     5.0757 *  0.0000     8          
   164  Zr    s     -1.2689 *     8.8824 *     0.0000    0.0000     4          
   165  O     s      5.0757 *     7.6135 *    -1.2689 *  0.0000     8          
   166  O     s     -7.6135 *     5.0757 *    -1.2689 *  0.0000     8          
   167  O     s      2.5378 *     0.0000 *     8.8824 *  0.0000     8          
   168  Zr    s      3.8068 *    -3.8068       7.6135 *  0.0000     4          
   169  Zr    s     -6.3446 *     6.3446      -2.5378 *  0.0000     4          
   170  Zr    s      1.2689 *     8.8824 *    -2.5378 *  0.0000     8          
   171  O     s      5.0757 *     5.0757       6.3446 *  0.0000     4          
   172  O     s     -5.0757 *     5.0757       6.3446 *  0.0000     4          
   173  O     s     -2.5378 *     2.5378      -8.8824 *  0.0000     4          
   174  O     s     -2.5378 *    -2.5378      -8.8824 *  0.0000     4          
   175  Zr    s      3.8068 *     8.8824 *     0.0000    0.0000     4          
   176  O     s      7.6135 *     5.0757 *     3.8068 *  0.0000     8          
   177  O     s     -7.6135 *     0.0000 *    -6.3446 *  0.0000     8          
   178  O     s     -5.0757 *     7.6135 *     3.8068 *  0.0000     8          
   179  Zr    s      6.3446 *    -1.2689 *     7.6135 *  0.0000     8          
   180  Zr    s     -3.8068 *     8.8824 *    -2.5378 *  0.0000     8          
   181  O     s      7.6135 *     2.5378 *     6.3446 *  0.0000     8          
   182  O     s     -2.5378 *     7.6135 *     6.3446 *  0.0000     8          
   183  O     s      0.0000 *    10.1514 *     1.2689 *  0.0000     8          
   184  O     s     -5.0757 *     0.0000 *    -8.8824 *  0.0000     8          
   185  Zr    s      6.3446 *     6.3446       5.0757 *  0.0000     4          
   186  Zr    s     -1.2689 *     8.8824 *    -5.0757 *  0.0000     8          
   187  Zr    s      1.2689 *     1.2689      10.1514 *  0.0000     4          
   188  O     s      5.0757 *    -2.5378 *     8.8824 *  0.0000     8          
   189  O     s      5.0757 *     2.5378 *     8.8824 *  0.0000     8          
   190  O     s      2.5378 *    10.1514 *    -1.2689 *  0.0000     8          
   191  O     s     -2.5378 *    10.1514 *    -1.2689 *  0.0000     8          
   192  Zr    s      6.3446 *     3.8068 *     7.6135 *  0.0000     8          
   193  O     s      7.6135 *     7.6135       1.2689 *  0.0000     4          
   194  O     s     -7.6135 *     7.6135       1.2689 *  0.0000     4          
   195  O     s      0.0000 *    10.1514 *    -3.8068 *  0.0000     8          
   196  Zr    s      8.8824 *     3.8068 *     5.0757 *  0.0000     8          
   197  Zr    s      3.8068 *    -1.2689 *    10.1514 *  0.0000     8          
   198  Zr    s     -6.3446 *     8.8824 *     0.0000    0.0000     4          
   199  O     s     -7.6135 *     5.0757 *    -6.3446 *  0.0000     8          
   200  O     s      2.5378 *    10.1514 *     3.8068 *  0.0000     8          
   201  O     s     -2.5378 *    10.1514 *     3.8068 *  0.0000     8          
   202  O     s      5.0757 *     7.6135 *    -6.3446 *  0.0000     8          
   203  Zr    s      6.3446 *     8.8824 *    -2.5378 *  0.0000     8          
   204  O     s     -7.6135 *     7.6135      -3.8068 *  0.0000     4          
   205  O     s      7.6135 *     7.6135      -3.8068 *  0.0000     4          
   206  O     s      5.0757 *     5.0757       8.8824 *  0.0000     4          
   207  O     s     -5.0757 *     5.0757      -8.8824 *  0.0000     4          
   208  O     s      5.0757 *    10.1514 *     1.2689 *  0.0000     8          
   209  O     s      0.0000       0.0000      11.4203 *  0.0000     2          
   210  O     s     -5.0757 *    10.1514 *     1.2689 *  0.0000     8          
   211  Zr    s      3.8068 *     3.8068      10.1514 *  0.0000     4          
   212  Zr    s      1.2689 *    11.4203 *     0.0000    0.0000     4          
   213  O     s      7.6135 *     0.0000 *     8.8824 *  0.0000     8          
   214  O     s     -2.5378 *     0.0000 *   -11.4203 *  0.0000     8          
   215  Zr    s     -6.3446 *     6.3446      -7.6135 *  0.0000     4          
   216  Zr    s      8.8824 *     1.2689 *     7.6135 *  0.0000     8          
   217  Zr    s     11.4203 *    -1.2689 *    -2.5378 *  0.0000     8          
   218  O     s      5.0757 *    10.1514 *    -3.8068 *  0.0000     8          
   219  O     s     -7.6135 *     2.5378 *    -8.8824 *  0.0000     8          
   220  O     s      2.5378 *    -2.5378      11.4203 *  0.0000     4          
   221  O     s      2.5378 *     2.5378      11.4203 *  0.0000     4          
   222  O     s    -10.1514 *     5.0757 *    -3.8068 *  0.0000     8          
   223  O     s      0.0000 *    10.1514 *     6.3446 *  0.0000     8          
   224  O     s     -7.6135 *    -2.5378 *    -8.8824 *  0.0000     8          
--------------------------------------------------------------------------------


  Constraints on symmetry reduced coordinates :

--------------------------------------------------------------------------------
  Constraint no.      Unconstrained     Constrained    Coefficient    
                         Variable         Variable
--------------------------------------------------------------------------------
           1                 3 x             3 y         1.00000
           2                 5 x             5 y        -1.00000
           3                 6 x             6 y         1.00000
           4                 7 x             7 y        -1.00000
           5                13 x            13 y        -1.00000
           6                14 x            14 y         1.00000
           7                15 x            15 y         1.00000
           8                16 x            16 y         1.00000
           9                19 x            19 y        -1.00000
          10                28 x            28 y        -1.00000
          11                29 x            29 y         1.00000
          12                30 x            30 y         1.00000
          13                31 x            31 y        -1.00000
          14                33 x            33 y         1.00000
          15                36 x            36 y        -1.00000
          16                39 x            39 y         1.00000
          17                41 x            41 y        -1.00000
          18                50 x            50 y         1.00000
          19                56 x            56 y        -1.00000
          20                57 x            57 y        -1.00000
          21                59 x            59 y         1.00000
          22                60 x            60 y        -1.00000
          23                61 x            61 y        -1.00000
          24                62 x            62 y         1.00000
          25                73 x            73 y         1.00000
          26                75 x            75 y         1.00000
          27                81 x            81 y         1.00000
          28                82 x            82 y        -1.00000
          29                92 x            92 y        -1.00000
          30                93 x            93 y         1.00000
          31                94 x            94 y         1.00000
          32                95 x            95 y        -1.00000
          33                99 x            99 y         1.00000
          34               103 x           103 y        -1.00000
          35               108 x           108 y        -1.00000
          36               109 x           109 y         1.00000
          37               115 x           115 y         1.00000
          38               117 x           117 y        -1.00000
          39               118 x           118 y         1.00000
          40               119 x           119 y        -1.00000
          41               125 x           125 y        -1.00000
          42               126 x           126 y         1.00000
          43               127 x           127 y         1.00000
          44               128 x           128 y         1.00000
          45               131 x           131 y        -1.00000
          46               140 x           140 y        -1.00000
          47               141 x           141 y         1.00000
          48               142 x           142 y         1.00000
          49               143 x           143 y        -1.00000
          50               145 x           145 y         1.00000
          51               148 x           148 y        -1.00000
          52               151 x           151 y         1.00000
          53               153 x           153 y        -1.00000
          54               162 x           162 y         1.00000
          55               168 x           168 y        -1.00000
          56               169 x           169 y        -1.00000
          57               171 x           171 y         1.00000
          58               172 x           172 y        -1.00000
          59               173 x           173 y        -1.00000
          60               174 x           174 y         1.00000
          61               185 x           185 y         1.00000
          62               187 x           187 y         1.00000
          63               193 x           193 y         1.00000
          64               194 x           194 y        -1.00000
          65               204 x           204 y        -1.00000
          66               205 x           205 y         1.00000
          67               206 x           206 y         1.00000
          68               207 x           207 y        -1.00000
          69               211 x           211 y         1.00000
          70               215 x           215 y        -1.00000
          71               220 x           220 y        -1.00000
          72               221 x           221 y         1.00000
--------------------------------------------------------------------------------


  Components of defect energy : 

--------------------------------------------------------------------------------
  Region 1 - region 1                   =   -317.08752477 eV
  Region 1 - region 2a (unrelaxed)      =    367.10289147 eV
  Region 1 - 2a (relaxed - correction)  =     -9.17381798 eV
  Region 1 (Total)                      =     40.84154872 eV
  Region 2a                             =      4.58700841 eV
  Region 2b                             =     -4.62249446 eV
--------------------------------------------------------------------------------
  Total defect energy                   =     40.80606268 eV
--------------------------------------------------------------------------------

  Largest displacement in region 2 =   0.0089 Angstroms


  Number of variables =      554

  Maximum number of calculations  =        1000
  Maximum Hessian update interval =          10
  Maximum step size               =   1.0000000
  Maximum parameter tolerance     =   0.0000100
  Maximum function  tolerance     =   0.0000100
  Maximum gradient  tolerance     =   0.0010000

  Symmetry adapted optimisation

  Symmetry to be used for second derivatives

  Newton-Raphson optimiser to be used

  BFGS hessian update to be used

  Lower half triangular hessian to be used

  Start of defect optimisation :

  Cycle:      0 Defect Energy:  40.806063  Gnorm:     0.484852  CPU:    3.808
  ** Hessian calculated **
  Cycle:      1 Defect Energy:  -0.824885  Gnorm:     0.344288  CPU:   12.823
  ** Hessian calculated **
  Cycle:      2 Defect Energy: -47.046012  Gnorm:     0.137914  CPU:   21.932
  ** Hessian calculated **
  Cycle:      3 Defect Energy: -57.170984  Gnorm:     0.021504  CPU:   29.477
  ** Hessian calculated **
  Cycle:      4 Defect Energy: -57.454334  Gnorm:     0.001043  CPU:   36.360
  Cycle:      5 Defect Energy: -57.454539  Gnorm:     0.000742  CPU:   37.353
  Cycle:      6 Defect Energy: -57.454642  Gnorm:     0.000518  CPU:   38.352
  Cycle:      7 Defect Energy: -57.454687  Gnorm:     0.000362  CPU:   39.327
  Cycle:      8 Defect Energy: -57.454704  Gnorm:     0.000254  CPU:   40.298
  Cycle:      9 Defect Energy: -57.454710  Gnorm:     0.000178  CPU:   41.273
  Cycle:     10 Defect Energy: -57.454710  Gnorm:     0.000124  CPU:   42.243
  Cycle:     11 Defect Energy: -57.454708  Gnorm:     0.000087  CPU:   43.209
  Cycle:     12 Defect Energy: -57.454706  Gnorm:     0.000061  CPU:   44.186


  **** Optimisation achieved ****


  Final defect energy  =      -57.45470434
  Final defect Gnorm   =        0.00004262

  Components of defect energy : 

--------------------------------------------------------------------------------
  Region 1 - region 1                   =   -378.75647878 eV
  Region 1 - region 2a (unrelaxed)      =    330.00513348 eV
  Region 1 - 2a (relaxed - correction)  =     -8.16079443 eV
  Region 1 (Total)                      =    -56.91213972 eV
  Region 2a                             =      4.07992983 eV
  Region 2b                             =     -4.62249446 eV
--------------------------------------------------------------------------------
  Total defect energy                   =    -57.45470434 eV
--------------------------------------------------------------------------------

  Largest displacement in region 2 =   0.0089 Angstroms

  Final coordinates of region 1 :

--------------------------------------------------------------------------------
   No.  Atomic        x           y           z          Radius      Charge
        Label       (Angs)      (Angs)      (Angs)       (Angs)       (e) 
--------------------------------------------------------------------------------
     1  Zr    c     1.268921    1.268921    0.000000    0.000000    2.650000
     2  O     c     1.268921    1.268921    1.780386    0.000000    0.077000
     3  O     c     1.268921    1.268921   -1.780386    0.000000    0.077000
     4  Zr    c     3.185889    3.185889    0.000000    0.000000    2.650000
     5  Zr    c    -0.648047   -0.648047    0.000000    0.000000    2.650000
     6  O     c     1.468879    3.540438   -1.110573    0.000000    0.077000
     7  O     c     3.540438    1.468879   -1.110573    0.000000    0.077000
     8  O     c     1.468879    3.540438    1.110573    0.000000    0.077000
     9  O     c     3.540438    1.468879    1.110573    0.000000    0.077000
    10  O     c    -1.002596    1.068963   -1.110573    0.000000    0.077000
    11  O     c     1.068963   -1.002596   -1.110573    0.000000    0.077000
    12  O     c    -1.002596    1.068963    1.110573    0.000000    0.077000
    13  O     c     1.068963   -1.002596    1.110573    0.000000    0.077000
    14  Zr    c     2.531329    0.006512    2.731175    0.000000    2.650000
    15  Zr    c     0.006512    2.531329    2.731175    0.000000    2.650000
    16  Zr    c     0.006512    2.531329   -2.731175    0.000000    2.650000
    17  Zr    c     2.531329    0.006512   -2.731175    0.000000    2.650000
    18  O     c     4.066210    4.066210    1.288760    0.000000    0.077000
    19  O     c     4.066210    4.066210   -1.288760    0.000000    0.077000
    20  O     c    -1.528368   -1.528368    1.288760    0.000000    0.077000
    21  O     c    -1.528368   -1.528368   -1.288760    0.000000    0.077000
    22  O     c    -1.142974    3.680815    1.287574    0.000000    0.077000
    23  O     c     3.680815   -1.142974    1.287574    0.000000    0.077000
    24  O     c    -1.142974    3.680815   -1.287574    0.000000    0.077000
    25  O     c     3.680815   -1.142974   -1.287574    0.000000    0.077000
    26  O     c     1.268921    1.268921   -4.139442    0.000000    0.077000
    27  O     c     1.268921    1.268921    4.139442    0.000000    0.077000
    28  Zr    c    -2.482765    2.468071    0.000000    0.000000    2.650000
    29  Zr    c     2.468071   -2.482765    0.000000    0.000000    2.650000
    30  Zr    c     0.069771    5.020607    0.000000    0.000000    2.650000
    31  Zr    c     5.020607    0.069771    0.000000    0.000000    2.650000
    32  O     c     3.857533    1.244647    3.765181    0.000000    0.077000
    33  O     c     1.293195   -1.319691    3.765181    0.000000    0.077000
    34  O     c     1.244647    3.857533    3.765181    0.000000    0.077000
    35  O     c    -1.319691    1.293195    3.765181    0.000000    0.077000
    36  O     c     1.244647    3.857533   -3.765181    0.000000    0.077000
    37  O     c     3.857533    1.244647   -3.765181    0.000000    0.077000
    38  O     c    -1.319691    1.293195   -3.765181    0.000000    0.077000
    39  O     c     1.293195   -1.319691   -3.765181    0.000000    0.077000
    40  Zr    c     2.575395    5.176847   -2.692526    0.000000    2.650000
    41  Zr    c    -2.639005   -0.037553   -2.692526    0.000000    2.650000
    42  Zr    c     5.176847    2.575395    2.692526    0.000000    2.650000
    43  Zr    c    -0.037553   -2.639005    2.692526    0.000000    2.650000
    44  Zr    c     2.575395    5.176847    2.692526    0.000000    2.650000
    45  Zr    c    -2.639005   -0.037553    2.692526    0.000000    2.650000
    46  Zr    c     5.176847    2.575395   -2.692526    0.000000    2.650000
    47  Zr    c    -0.037553   -2.639005   -2.692526    0.000000    2.650000
    48  O     c     1.334813    6.150706   -1.275428    0.000000    0.077000
    49  O     c     6.150706    1.334813   -1.275428    0.000000    0.077000
    50  O     c     1.334813    6.150706    1.275428    0.000000    0.077000
    51  O     c    -3.612864    1.203029    1.275428    0.000000    0.077000
    52  O     c     6.150706    1.334813    1.275428    0.000000    0.077000
    53  O     c     1.203029   -3.612864    1.275428    0.000000    0.077000
    54  O     c    -3.612864    1.203029   -1.275428    0.000000    0.077000
    55  O     c     1.203029   -3.612864   -1.275428    0.000000    0.077000
    56  O     c    -1.266076    3.803918   -3.852257    0.000000    0.077000
    57  O     c     3.803918   -1.266076   -3.852257    0.000000    0.077000
    58  O     c    -1.266076    3.803918    3.852257    0.000000    0.077000
    59  O     c     3.803918   -1.266076    3.852257    0.000000    0.077000
    60  O     c    -1.253321   -1.253321   -3.835200    0.000000    0.077000
    61  O     c     3.791163    3.791163   -3.835200    0.000000    0.077000
    62  O     c     3.791163    3.791163    3.835200    0.000000    0.077000
    63  O     c    -1.253321   -1.253321    3.835200    0.000000    0.077000
    64  Zr    c     5.360993    5.360993    0.000000    0.000000    2.650000
    65  Zr    c    -2.823151   -2.823151    0.000000    0.000000    2.650000
    66  Zr    c     2.553099    2.553099    5.178594    0.000000    2.650000
    67  Zr    c    -0.015257   -0.015257   -5.178594    0.000000    2.650000
    68  Zr    c     2.553099    2.553099   -5.178594    0.000000    2.650000
    69  Zr    c    -0.015257   -0.015257    5.178594    0.000000    2.650000
    70  O     c     3.878377    6.515487    1.263150    0.000000    0.077000
    71  O     c     6.515487    3.878377    1.263150    0.000000    0.077000
    72  O     c     3.878377    6.515487   -1.263150    0.000000    0.077000
    73  O     c    -3.977645   -1.340535   -1.263150    0.000000    0.077000
    74  O     c     6.515487    3.878377   -1.263150    0.000000    0.077000
    75  O     c    -1.340535   -3.977645   -1.263150    0.000000    0.077000
    76  O     c    -3.977645   -1.340535    1.263150    0.000000    0.077000
    77  O     c    -1.340535   -3.977645    1.263150    0.000000    0.077000
    78  O     c     3.762618   -3.733999   -1.272372    0.000000    0.077000
    79  O     c     6.271841   -1.224776   -1.272372    0.000000    0.077000
    80  O     c    -3.733999    3.762618   -1.272372    0.000000    0.077000
    81  O     c    -1.224776    6.271841   -1.272372    0.000000    0.077000
    82  O     c    -3.733999    3.762618    1.272372    0.000000    0.077000
    83  O     c    -1.224776    6.271841    1.272372    0.000000    0.077000
    84  O     c     3.762618   -3.733999    1.272372    0.000000    0.077000
    85  O     c     6.271841   -1.224776    1.272372    0.000000    0.077000
    86  Zr    c    -2.535327    5.073168    2.550425    0.000000    2.650000
    87  Zr    c     5.073168   -2.535327    2.550425    0.000000    2.650000
    88  Zr    c     5.073168   -2.535327   -2.550425    0.000000    2.650000
    89  Zr    c    -2.535327    5.073168   -2.550425    0.000000    2.650000
    90  O     c     1.268921    1.268921    6.558199    0.000000    0.077000
    91  O     c     1.268921    1.268921   -6.558199    0.000000    0.077000
    92  O     c     1.327528    6.373592    3.801119    0.000000    0.077000
    93  O     c     6.373592    1.327528    3.801119    0.000000    0.077000
    94  O     c    -3.835750    1.210314   -3.801119    0.000000    0.077000
    95  O     c     1.327528    6.373592   -3.801119    0.000000    0.077000
    96  O     c     1.210314   -3.835750   -3.801119    0.000000    0.077000
    97  O     c     6.373592    1.327528   -3.801119    0.000000    0.077000
    98  O     c    -3.835750    1.210314    3.801119    0.000000    0.077000
    99  O     c     1.210314   -3.835750    3.801119    0.000000    0.077000
   100  Zr    c     5.105941   -0.016887   -5.133535    0.000000    2.650000
   101  Zr    c     5.105941   -0.016887    5.133535    0.000000    2.650000
   102  Zr    c     2.554729   -2.568100    5.133535    0.000000    2.650000
   103  Zr    c    -2.568100    2.554729   -5.133535    0.000000    2.650000
   104  Zr    c    -0.016887    5.105941   -5.133535    0.000000    2.650000
   105  Zr    c    -0.016887    5.105941    5.133535    0.000000    2.650000
   106  Zr    c    -2.568100    2.554729    5.133535    0.000000    2.650000
   107  Zr    c     2.554729   -2.568100   -5.133535    0.000000    2.650000
   108  Zr    c     2.607470    7.622153    0.000000    0.000000    2.650000
   109  Zr    c    -5.084311   -0.069629    0.000000    0.000000    2.650000
   110  Zr    c     7.622153    2.607470    0.000000    0.000000    2.650000
   111  Zr    c    -0.069629   -5.084311    0.000000    0.000000    2.650000
   112  O     c     3.805229    6.316049   -3.824267    0.000000    0.077000
   113  O     c     6.316049    3.805229   -3.824267    0.000000    0.077000
   114  O     c     6.316049    3.805229    3.824267    0.000000    0.077000
   115  O     c    -1.267387   -3.778207    3.824267    0.000000    0.077000
   116  O     c     3.805229    6.316049    3.824267    0.000000    0.077000
   117  O     c    -3.778207   -1.267387    3.824267    0.000000    0.077000
   118  O     c    -3.778207   -1.267387   -3.824267    0.000000    0.077000
   119  O     c    -1.267387   -3.778207   -3.824267    0.000000    0.077000
   120  O     c    -1.266899    1.257211   -6.308552    0.000000    0.077000
   121  O     c     1.280631    3.804741   -6.308552    0.000000    0.077000
   122  O     c     1.257211   -1.266899   -6.308552    0.000000    0.077000
   123  O     c     3.804741    1.280631   -6.308552    0.000000    0.077000
   124  O     c     3.804741    1.280631    6.308552    0.000000    0.077000
   125  O     c     1.280631    3.804741    6.308552    0.000000    0.077000
   126  O     c     1.257211   -1.266899    6.308552    0.000000    0.077000
   127  O     c    -1.266899    1.257211    6.308552    0.000000    0.077000
   128  O     c    -1.231945    6.341899    3.809079    0.000000    0.077000
   129  O     c    -3.804057    3.769787    3.809079    0.000000    0.077000
   130  O     c     6.341899   -1.231945    3.809079    0.000000    0.077000
   131  O     c     3.769787   -3.804057    3.809079    0.000000    0.077000
   132  O     c    -1.231945    6.341899   -3.809079    0.000000    0.077000
   133  O     c     6.341899   -1.231945   -3.809079    0.000000    0.077000
   134  O     c    -3.804057    3.769787   -3.809079    0.000000    0.077000
   135  O     c     3.769787   -3.804057   -3.809079    0.000000    0.077000
   136  Zr    c    -5.084172    2.544323   -2.551882    0.000000    2.650000
   137  Zr    c    -5.084172    2.544323    2.551882    0.000000    2.650000
   138  Zr    c     2.544323   -5.084172    2.551882    0.000000    2.650000
   139  Zr    c     2.544323   -5.084172   -2.551882    0.000000    2.650000
   140  Zr    c    -0.006481    7.622014   -2.551882    0.000000    2.650000
   141  Zr    c    -0.006481    7.622014    2.551882    0.000000    2.650000
   142  Zr    c     7.622014   -0.006481    2.551882    0.000000    2.650000
   143  Zr    c     7.622014   -0.006481   -2.551882    0.000000    2.650000
   144  O     c     3.808453   -1.270612    6.370138    0.000000    0.077000
   145  O     c    -1.270612    3.808453    6.370138    0.000000    0.077000
   146  O     c    -1.270612    3.808453   -6.370138    0.000000    0.077000
   147  O     c     3.808453   -1.270612   -6.370138    0.000000    0.077000
   148  O     c     3.810185    3.810185    6.371414    0.000000    0.077000
   149  O     c    -1.272344   -1.272344    6.371414    0.000000    0.077000
   150  O     c     3.810185    3.810185   -6.371414    0.000000    0.077000
   151  O     c    -1.272344   -1.272344   -6.371414    0.000000    0.077000
   152  O     c     6.417009    6.417009   -1.239227    0.000000    0.077000
   153  O     c     6.417009    6.417009    1.239227    0.000000    0.077000
   154  O     c    -3.879167   -3.879167    1.239227    0.000000    0.077000
   155  O     c    -3.879167   -3.879167   -1.239227    0.000000    0.077000
   156  O     c    -3.767063    6.304905    1.265382    0.000000    0.077000
   157  O     c     6.304905   -3.767063    1.265382    0.000000    0.077000
   158  O     c    -3.767063    6.304905   -1.265382    0.000000    0.077000
   159  O     c     6.304905   -3.767063   -1.265382    0.000000    0.077000
   160  Zr    c    -5.056237    5.061599    0.000000    0.000000    2.650000
   161  Zr    c     5.061599   -5.056237    0.000000    0.000000    2.650000
   162  Zr    c    -2.523757    7.594079    0.000000    0.000000    2.650000
   163  Zr    c     7.594079   -2.523757    0.000000    0.000000    2.650000
   164  Zr    c     5.116348    5.116348    5.125405    0.000000    2.650000
   165  Zr    c     5.116348    5.116348   -5.125405    0.000000    2.650000
   166  Zr    c    -2.578506   -2.578506   -5.125405    0.000000    2.650000
   167  Zr    c    -2.578506   -2.578506    5.125405    0.000000    2.650000
   168  O     c     8.781947    1.275298   -1.276000    0.000000    0.077000
   169  O     c     1.262544   -6.244105   -1.276000    0.000000    0.077000
   170  O     c     1.275298    8.781947   -1.276000    0.000000    0.077000
   171  O     c    -6.244105    1.262544   -1.276000    0.000000    0.077000
   172  O     c     1.275298    8.781947    1.276000    0.000000    0.077000
   173  O     c     8.781947    1.275298    1.276000    0.000000    0.077000
   174  O     c    -6.244105    1.262544    1.276000    0.000000    0.077000
   175  O     c     1.262544   -6.244105    1.276000    0.000000    0.077000
   176  Zr    c     5.102031    7.685857   -2.565132    0.000000    2.650000
   177  Zr    c    -5.148015   -2.564189   -2.565132    0.000000    2.650000
   178  Zr    c     7.685857    5.102031    2.565132    0.000000    2.650000
   179  Zr    c     5.102031    7.685857    2.565132    0.000000    2.650000
   180  Zr    c     7.685857    5.102031   -2.565132    0.000000    2.650000
   181  Zr    c    -2.564189   -5.148015   -2.565132    0.000000    2.650000
   182  Zr    c    -2.564189   -5.148015    2.565132    0.000000    2.650000
   183  Zr    c    -5.148015   -2.564189    2.565132    0.000000    2.650000
   184  Zr    c     2.532963    0.004878    7.657876    0.000000    2.650000
   185  Zr    c     0.004878    2.532963    7.657876    0.000000    2.650000
   186  Zr    c     0.004878    2.532963   -7.657876    0.000000    2.650000
   187  Zr    c     2.532963    0.004878   -7.657876    0.000000    2.650000
   188  O     c     3.813522    8.973320    1.271009    0.000000    0.077000
   189  O     c     8.973320    3.813522    1.271009    0.000000    0.077000
   190  O     c     3.813522    8.973320   -1.271009    0.000000    0.077000
   191  O     c     8.973320    3.813522   -1.271009    0.000000    0.077000
   192  O     c    -6.435479   -1.275680    1.271009    0.000000    0.077000
   193  O     c    -1.275680   -6.435479    1.271009    0.000000    0.077000
   194  O     c    -6.435479   -1.275680   -1.271009    0.000000    0.077000
   195  O     c    -1.275680   -6.435479   -1.271009    0.000000    0.077000
   196  O     c    -6.298434    3.794049    1.266426    0.000000    0.077000
   197  O     c     3.794049   -6.298434    1.266426    0.000000    0.077000
   198  O     c    -1.256207    8.836276    1.266426    0.000000    0.077000
   199  O     c     8.836276   -1.256207    1.266426    0.000000    0.077000
   200  O     c    -1.256207    8.836276   -1.266426    0.000000    0.077000
   201  O     c     8.836276   -1.256207   -1.266426    0.000000    0.077000
   202  O     c    -6.298434    3.794049   -1.266426    0.000000    0.077000
   203  O     c     3.794049   -6.298434   -1.266426    0.000000    0.077000
   204  O     c     6.355969    6.355969    3.810826    0.000000    0.077000
   205  O     c     6.355969    6.355969   -3.810826    0.000000    0.077000
   206  O     c    -3.818127   -3.818127   -3.810826    0.000000    0.077000
   207  O     c    -3.818127   -3.818127    3.810826    0.000000    0.077000
   208  O     c     6.342208    1.262295    6.346516    0.000000    0.077000
   209  O     c     1.275547   -3.804366    6.346516    0.000000    0.077000
   210  O     c     1.262295    6.342208    6.346516    0.000000    0.077000
   211  O     c    -3.804366    1.275547    6.346516    0.000000    0.077000
   212  O     c     1.262295    6.342208   -6.346516    0.000000    0.077000
   213  O     c     6.342208    1.262295   -6.346516    0.000000    0.077000
   214  O     c    -3.804366    1.275547   -6.346516    0.000000    0.077000
   215  O     c     1.275547   -3.804366   -6.346516    0.000000    0.077000
   216  O     c    -3.772146    6.309988   -3.791421    0.000000    0.077000
   217  O     c     6.309988   -3.772146   -3.791421    0.000000    0.077000
   218  O     c    -3.772146    6.309988    3.791421    0.000000    0.077000
   219  O     c     6.309988   -3.772146    3.791421    0.000000    0.077000
   220  Zr    c     7.662827    2.539916   -5.117391    0.000000    2.650000
   221  Zr    c    -0.002074   -5.124986   -5.117391    0.000000    2.650000
   222  Zr    c     7.662827    2.539916    5.117391    0.000000    2.650000
   223  Zr    c    -0.002074   -5.124986    5.117391    0.000000    2.650000
   224  Zr    c     2.539916    7.662827   -5.117391    0.000000    2.650000
   225  Zr    c    -5.124986   -0.002074   -5.117391    0.000000    2.650000
   226  Zr    c     2.539916    7.662827    5.117391    0.000000    2.650000
   227  Zr    c    -5.124986   -0.002074    5.117391    0.000000    2.650000
   228  O     c    -3.799147    3.798928   -6.342374    0.000000    0.077000
   229  O     c     3.798928   -3.799147   -6.342374    0.000000    0.077000
   230  O     c    -1.261087    6.336989   -6.342374    0.000000    0.077000
   231  O     c     6.336989   -1.261087   -6.342374    0.000000    0.077000
   232  O     c    -1.261087    6.336989    6.342374    0.000000    0.077000
   233  O     c     6.336989   -1.261087    6.342374    0.000000    0.077000
   234  O     c    -3.799147    3.798928    6.342374    0.000000    0.077000
   235  O     c     3.798928   -3.799147    6.342374    0.000000    0.077000
   236  O     c     6.357562    3.818447    6.359234    0.000000    0.077000
   237  O     c     3.818447    6.357562    6.359234    0.000000    0.077000
   238  O     c    -3.819720   -1.280605   -6.359234    0.000000    0.077000
   239  O     c     3.818447    6.357562   -6.359234    0.000000    0.077000
   240  O     c    -1.280605   -3.819720   -6.359234    0.000000    0.077000
   241  O     c     6.357562    3.818447   -6.359234    0.000000    0.077000
   242  O     c    -1.280605   -3.819720    6.359234    0.000000    0.077000
   243  O     c    -3.819720   -1.280605    6.359234    0.000000    0.077000
   244  O     c     1.267110    8.902356    3.814985    0.000000    0.077000
   245  O     c    -6.364514    1.270732    3.814985    0.000000    0.077000
   246  O     c     8.902356    1.267110    3.814985    0.000000    0.077000
   247  O     c     1.270732   -6.364514    3.814985    0.000000    0.077000
   248  O     c     1.267110    8.902356   -3.814985    0.000000    0.077000
   249  O     c     8.902356    1.267110   -3.814985    0.000000    0.077000
   250  O     c    -6.364514    1.270732   -3.814985    0.000000    0.077000
   251  O     c     1.270732   -6.364514   -3.814985    0.000000    0.077000
   252  Zr    c     5.091403    2.549172    7.648535    0.000000    2.650000
   253  Zr    c     2.549172    5.091403    7.648535    0.000000    2.650000
   254  Zr    c    -2.553561   -0.011331   -7.648535    0.000000    2.650000
   255  Zr    c     2.549172    5.091403   -7.648535    0.000000    2.650000
   256  Zr    c    -0.011331   -2.553561   -7.648535    0.000000    2.650000
   257  Zr    c     5.091403    2.549172   -7.648535    0.000000    2.650000
   258  Zr    c    -0.011331   -2.553561    7.648535    0.000000    2.650000
   259  Zr    c    -2.553561   -0.011331    7.648535    0.000000    2.650000
   260  O     c     3.817620    8.863117   -3.809813    0.000000    0.077000
   261  O     c     8.863117    3.817620   -3.809813    0.000000    0.077000
   262  O     c     3.817620    8.863117    3.809813    0.000000    0.077000
   263  O     c     8.863117    3.817620    3.809813    0.000000    0.077000
   264  O     c    -6.325275   -1.279778   -3.809813    0.000000    0.077000
   265  O     c    -1.279778   -6.325275   -3.809813    0.000000    0.077000
   266  O     c    -6.325275   -1.279778    3.809813    0.000000    0.077000
   267  O     c    -1.279778   -6.325275    3.809813    0.000000    0.077000
   268  O     c    -6.334182    3.799603   -3.789454    0.000000    0.077000
   269  O     c    -1.261761    8.872023   -3.789454    0.000000    0.077000
   270  O     c     3.799603   -6.334182   -3.789454    0.000000    0.077000
   271  O     c     8.872023   -1.261761   -3.789454    0.000000    0.077000
   272  O     c    -1.261761    8.872023    3.789454    0.000000    0.077000
   273  O     c     8.872023   -1.261761    3.789454    0.000000    0.077000
   274  O     c    -6.334182    3.799603    3.789454    0.000000    0.077000
   275  O     c     3.799603   -6.334182    3.789454    0.000000    0.077000
   276  O     c     1.268921    1.268921   -9.001157    0.000000    0.077000
   277  O     c     1.268921    1.268921    9.001157    0.000000    0.077000
   278  Zr    c     7.708195    7.708195    0.000000    0.000000    2.650000
   279  Zr    c    -5.170353   -5.170353    0.000000    0.000000    2.650000
   280  Zr    c    -5.084097    5.085513    5.085030    0.000000    2.650000
   281  Zr    c     5.085513   -5.084097    5.085030    0.000000    2.650000
   282  Zr    c     5.085513   -5.084097   -5.085030    0.000000    2.650000
   283  Zr    c     7.621938   -2.547671   -5.085030    0.000000    2.650000
   284  Zr    c    -5.084097    5.085513   -5.085030    0.000000    2.650000
   285  Zr    c    -2.547671    7.621938   -5.085030    0.000000    2.650000
   286  Zr    c    -2.547671    7.621938    5.085030    0.000000    2.650000
   287  Zr    c     7.621938   -2.547671    5.085030    0.000000    2.650000
   288  Zr    c    -0.000939   10.156806    0.000000    0.000000    2.650000
   289  Zr    c    -7.618964    2.538781    0.000000    0.000000    2.650000
   290  Zr    c    10.156806   -0.000939    0.000000    0.000000    2.650000
   291  Zr    c     2.538781   -7.618964    0.000000    0.000000    2.650000
   292  O     c     6.360637    8.919618   -1.280896    0.000000    0.077000
   293  O     c    -6.381777   -3.822795   -1.280896    0.000000    0.077000
   294  O     c     8.919618    6.360637   -1.280896    0.000000    0.077000
   295  O     c    -3.822795   -6.381777   -1.280896    0.000000    0.077000
   296  O     c     6.360637    8.919618    1.280896    0.000000    0.077000
   297  O     c     8.919618    6.360637    1.280896    0.000000    0.077000
   298  O     c    -6.381777   -3.822795    1.280896    0.000000    0.077000
   299  O     c    -3.822795   -6.381777    1.280896    0.000000    0.077000
   300  O     c    -6.315937    6.333142   -1.271001    0.000000    0.077000
   301  O     c    -3.795300    8.853779   -1.271001    0.000000    0.077000
   302  O     c     6.333142   -6.315937   -1.271001    0.000000    0.077000
   303  O     c     8.853779   -3.795300   -1.271001    0.000000    0.077000
   304  O     c    -3.795300    8.853779    1.271001    0.000000    0.077000
   305  O     c     8.853779   -3.795300    1.271001    0.000000    0.077000
   306  O     c    -6.315937    6.333142    1.271001    0.000000    0.077000
   307  O     c     6.333142   -6.315937    1.271001    0.000000    0.077000
   308  O     c     3.811955    1.270659    8.854566    0.000000    0.077000
   309  O     c     1.267183   -1.274113    8.854566    0.000000    0.077000
   310  O     c     1.270659    3.811955    8.854566    0.000000    0.077000
   311  O     c    -1.274113    1.267183    8.854566    0.000000    0.077000
   312  O     c    -1.274113    1.267183   -8.854566    0.000000    0.077000
   313  O     c     1.270659    3.811955   -8.854566    0.000000    0.077000
   314  O     c     1.267183   -1.274113   -8.854566    0.000000    0.077000
   315  O     c     3.811955    1.270659   -8.854566    0.000000    0.077000
   316  Zr    c     5.083269   -2.545427    7.637077    0.000000    2.650000
   317  Zr    c    -2.545427    5.083269   -7.637077    0.000000    2.650000
   318  Zr    c    -2.545427    5.083269    7.637077    0.000000    2.650000
   319  Zr    c     5.083269   -2.545427   -7.637077    0.000000    2.650000
   320  Zr    c    -5.076390    7.614232   -2.535153    0.000000    2.650000
   321  Zr    c    -5.076390    7.614232    2.535153    0.000000    2.650000
   322  Zr    c     7.614232   -5.076390    2.535153    0.000000    2.650000
   323  Zr    c     7.614232   -5.076390   -2.535153    0.000000    2.650000
   324  Zr    c     2.543354   10.167726   -2.533512    0.000000    2.650000
   325  Zr    c    -7.629884   -0.005512   -2.533512    0.000000    2.650000
   326  Zr    c     2.543354   10.167726    2.533512    0.000000    2.650000
   327  Zr    c    -7.629884   -0.005512    2.533512    0.000000    2.650000
   328  Zr    c    10.167726    2.543354    2.533512    0.000000    2.650000
   329  Zr    c    -0.005512   -7.629884    2.533512    0.000000    2.650000
   330  Zr    c    10.167726    2.543354   -2.533512    0.000000    2.650000
   331  Zr    c    -0.005512   -7.629884   -2.533512    0.000000    2.650000
   332  O     c     6.341729    6.341729    6.335224    0.000000    0.077000
   333  O     c    -3.803887   -3.803887    6.335224    0.000000    0.077000
   334  O     c     6.341729    6.341729   -6.335224    0.000000    0.077000
   335  O     c    -3.803887   -3.803887   -6.335224    0.000000    0.077000
   336  O     c    -3.802943    6.340785    6.331381    0.000000    0.077000
   337  O     c     6.340785   -3.802943   -6.331381    0.000000    0.077000
   338  O     c     6.340785   -3.802943    6.331381    0.000000    0.077000
   339  O     c    -3.802943    6.340785   -6.331381    0.000000    0.077000
   340  O     c    -1.269380    3.807222   -8.901353    0.000000    0.077000
   341  O     c     3.807222   -1.269380   -8.901353    0.000000    0.077000
   342  O     c     3.807222   -1.269380    8.901353    0.000000    0.077000
   343  O     c    -1.269380    3.807222    8.901353    0.000000    0.077000
   344  O     c    -1.275714   -1.275714   -8.889285    0.000000    0.077000
   345  O     c     3.813556    3.813556   -8.889285    0.000000    0.077000
   346  O     c     3.813556    3.813556    8.889285    0.000000    0.077000
   347  O     c    -1.275714   -1.275714    8.889285    0.000000    0.077000
   348  Zr    c     5.076210   10.177313    0.000000    0.000000    2.650000
   349  Zr    c    10.177313    5.076210    0.000000    0.000000    2.650000
   350  Zr    c    -7.639472   -2.538368    0.000000    0.000000    2.650000
   351  Zr    c    -2.538368   -7.639472    0.000000    0.000000    2.650000
[...]
    144 y          5.075684      5.059277    -0.016406    Cartesian   -0.32
    144 z          0.000000      0.000000     0.000000    Cartesian    0.00
    145 x          5.075684      5.110721     0.035037    Cartesian    0.69
    145 y          5.075684      5.110721     0.035037    Cartesian    0.69
    145 z          5.075684      5.120381     0.044697    Cartesian    0.88
    146 x          8.882446      8.780019    -0.102427    Cartesian   -1.15
    146 y          1.268921      1.275035     0.006114    Cartesian    0.48
    146 z         -1.268921     -1.276507    -0.007586    Cartesian    0.60
    147 x          5.075684      5.103023     0.027339    Cartesian    0.54
    147 y          7.613525      7.679734     0.066208    Cartesian    0.87
    147 z         -2.537842     -2.564737    -0.026895    Cartesian    1.06
    148 x          2.537842      2.536900    -0.000942    Cartesian   -0.04
    148 y         -0.000000      0.000942     0.000942    Cartesian *******
    148 z          7.613525      7.655959     0.042434    Cartesian    0.56
    149 x          3.806763      3.813316     0.006554    Cartesian    0.17
    149 y          8.882446      8.975034     0.092588    Cartesian    1.04
    149 z          1.268921      1.270932     0.002011    Cartesian    0.16
    150 x         -6.344605     -6.297325     0.047280    Cartesian   -0.75
    150 y          3.806763      3.793699    -0.013064    Cartesian   -0.34
    150 z          1.268921      1.266420    -0.002501    Cartesian   -0.20
    151 x          6.344605      6.356206     0.011601    Cartesian    0.18
    151 y          6.344605      6.356206     0.011601    Cartesian    0.18
    151 z          3.806763      3.811515     0.004752    Cartesian    0.12
    152 x          6.344605      6.341665    -0.002940    Cartesian   -0.05
    152 y          1.268921      1.261268    -0.007652    Cartesian   -0.60
    152 z          6.344605      6.345927     0.001322    Cartesian    0.02
    153 x         -3.806763     -3.771320     0.035443    Cartesian   -0.93
    153 y          6.344605      6.309161    -0.035443    Cartesian   -0.56
    153 z         -3.806763     -3.790983     0.015780    Cartesian   -0.41
    154 x          7.613525      7.656942     0.043417    Cartesian    0.57
    154 y          2.537842      2.541078     0.003237    Cartesian    0.13
    154 z         -5.075684     -5.113420    -0.037736    Cartesian    0.74
    155 x         -3.806763     -3.797953     0.008810    Cartesian   -0.23
    155 y          3.806763      3.797736    -0.009027    Cartesian   -0.24
    155 z         -6.344605     -6.341174     0.003430    Cartesian   -0.05
    156 x          6.344605      6.357508     0.012904    Cartesian    0.20
    156 y          3.806763      3.819168     0.012405    Cartesian    0.33
    156 z          6.344605      6.359274     0.014669    Cartesian    0.23
    157 x          1.268921      1.266896    -0.002025    Cartesian   -0.16
    157 y          8.882446      8.902772     0.020326    Cartesian    0.23
    157 z          3.806763      3.815430     0.008667    Cartesian    0.23
    158 x          5.075684      5.090142     0.014459    Cartesian    0.28
    158 y          2.537842      2.547397     0.009555    Cartesian    0.38
    158 z          7.613525      7.643045     0.029520    Cartesian    0.39
    159 x          3.806763      3.818524     0.011761    Cartesian    0.31
    159 y          8.882446      8.861870    -0.020576    Cartesian   -0.23
    159 z         -3.806763     -3.809253    -0.002490    Cartesian    0.07
    160 x         -6.344605     -6.333839     0.010765    Cartesian   -0.17
    160 y          3.806763      3.799305    -0.007458    Cartesian   -0.20
    160 z         -3.806763     -3.788755     0.018008    Cartesian   -0.47
    161 x          1.268921      1.268921     0.000000    Cartesian    0.00
    161 y          1.268921      1.268921     0.000000    Cartesian    0.00
    161 z         -8.882446     -9.003600    -0.121154    Cartesian    1.36
    162 x          7.613525      7.701174     0.087648    Cartesian    1.15
    162 y          7.613525      7.701174     0.087648    Cartesian    1.15
    162 z          0.000000      0.000000     0.000000    Cartesian    0.00
    163 x         -5.075684     -5.081186    -0.005503    Cartesian    0.11
    163 y          5.075684      5.082654     0.006970    Cartesian    0.14
    163 z          5.075684      5.082853     0.007169    Cartesian    0.14
    164 x          0.000000      0.000999     0.000999    Cartesian *******
    164 y         10.151367     10.148240    -0.003127    Cartesian   -0.03
    164 z          0.000000      0.000000     0.000000    Cartesian    0.00
    165 x          6.344605      6.360603     0.015999    Cartesian    0.25
    165 y          8.882446      8.920021     0.037575    Cartesian    0.42
    165 z         -1.268921     -1.281892    -0.012972    Cartesian    1.02
    166 x         -6.344605     -6.315473     0.029132    Cartesian   -0.46
    166 y          6.344605      6.333167    -0.011437    Cartesian   -0.18
    166 z         -1.268921     -1.271599    -0.002679    Cartesian    0.21
    167 x          3.806763      3.811656     0.004893    Cartesian    0.13
    167 y          1.268921      1.270360     0.001439    Cartesian    0.11
    167 z          8.882446      8.853319    -0.029127    Cartesian   -0.33
    168 x          5.075684      5.082343     0.006660    Cartesian    0.13
    168 y         -2.537842     -2.544502    -0.006660    Cartesian    0.26
    168 z          7.613525      7.634029     0.020504    Cartesian    0.27
    169 x         -5.075684     -5.073212     0.002472    Cartesian   -0.05
    169 y          7.613525      7.611054    -0.002472    Cartesian   -0.03
    169 z         -2.537842     -2.534721     0.003121    Cartesian   -0.12
    170 x          2.537842      2.540517     0.002675    Cartesian    0.11
    170 y         10.151367     10.164719     0.013352    Cartesian    0.13
    170 z         -2.537842     -2.534914     0.002927    Cartesian   -0.12
    171 x          6.344605      6.340306    -0.004298    Cartesian   -0.07
    171 y          6.344605      6.340306    -0.004298    Cartesian   -0.07
    171 z          6.344605      6.333661    -0.010943    Cartesian   -0.17
    172 x         -3.806763     -3.802691     0.004072    Cartesian   -0.11
    172 y          6.344605      6.340533    -0.004072    Cartesian   -0.06
    172 z          6.344605      6.330584    -0.014021    Cartesian   -0.22
    173 x         -1.268921     -1.269082    -0.000161    Cartesian    0.01
    173 y          3.806763      3.806924     0.000161    Cartesian    0.00
    173 z         -8.882446     -8.901377    -0.018930    Cartesian    0.21
    174 x         -1.268921     -1.275939    -0.007018    Cartesian    0.55
    174 y         -1.268921     -1.275939    -0.007018    Cartesian    0.55
    174 z         -8.882446     -8.888807    -0.006360    Cartesian    0.07
    175 x          5.075684      5.078307     0.002624    Cartesian    0.05
    175 y         10.151367     10.179257     0.027890    Cartesian    0.27
    175 z          0.000000      0.000000     0.000000    Cartesian    0.00
    176 x          8.882446      8.886291     0.003845    Cartesian    0.04
    176 y          6.344605      6.340976    -0.003629    Cartesian   -0.06
    176 z          3.806763      3.812786     0.006023    Cartesian    0.16
    177 x         -6.344605     -6.331287     0.013318    Cartesian   -0.21
    177 y          1.268921      1.260645    -0.008276    Cartesian   -0.65
    177 z         -6.344605     -6.342706     0.001899    Cartesian   -0.03
    178 x         -3.806763     -3.800221     0.006541    Cartesian   -0.17
    178 y          8.882446      8.857101    -0.025345    Cartesian   -0.29
    178 z          3.806763      3.811626     0.004863    Cartesian    0.13
    179 x          7.613525      7.627573     0.014047    Cartesian    0.18
    179 y          0.000000     -0.000648    -0.000648    Cartesian    0.00
    179 z          7.613525      7.627434     0.013908    Cartesian    0.18
    180 x         -2.537842     -2.538670    -0.000828    Cartesian    0.03
    180 y         10.151367     10.149339    -0.002028    Cartesian   -0.02
    180 z         -2.537842     -2.536504     0.001338    Cartesian   -0.05
    181 x          8.882446      8.890412     0.007966    Cartesian    0.09
    181 y          3.806763      3.801455    -0.005308    Cartesian   -0.14
    181 z          6.344605      6.337734    -0.006871    Cartesian   -0.11
    182 x         -1.268921     -1.269472    -0.000551    Cartesian    0.04
    182 y          8.882446      8.879822    -0.002624    Cartesian   -0.03
    182 z          6.344605      6.332701    -0.011904    Cartesian   -0.19
    183 x          1.268921      1.259486    -0.009435    Cartesian   -0.74
    183 y         11.420288     11.364014    -0.056274    Cartesian   -0.49
    183 z          1.268921      1.268008    -0.000913    Cartesian   -0.07
    184 x         -3.806763     -3.810896    -0.004134    Cartesian    0.11
    184 y          1.268921      1.262017    -0.006903    Cartesian   -0.54
    184 z         -8.882446     -8.882806    -0.000360    Cartesian    0.00
    185 x          7.613525      7.628730     0.015205    Cartesian    0.20
    185 y          7.613525      7.628730     0.015205    Cartesian    0.20
    185 z          5.075684      5.084400     0.008717    Cartesian    0.17
    186 x          0.000000     -0.000437    -0.000437    Cartesian *******
    186 y         10.151367     10.161439     0.010071    Cartesian    0.10
    186 z         -5.075684     -5.074166     0.001517    Cartesian   -0.03
    187 x          2.537842      2.535200    -0.002642    Cartesian   -0.10
    187 y          2.537842      2.535200    -0.002642    Cartesian   -0.10
    187 z         10.151367     10.170287     0.018920    Cartesian    0.19
    188 x          6.344605      6.343410    -0.001195    Cartesian   -0.02
    188 y         -1.268921     -1.271658    -0.002737    Cartesian    0.22
    188 z          8.882446      8.882628     0.000181    Cartesian    0.00
    189 x          6.344605      6.345703     0.001098    Cartesian    0.02
    189 y          3.806763      3.799025    -0.007738    Cartesian   -0.20
    189 z          8.882446      8.885895     0.003448    Cartesian    0.04
    190 x          3.806763      3.797018    -0.009745    Cartesian   -0.26
    190 y         11.420288     11.464083     0.043795    Cartesian    0.38
    190 z         -1.268921     -1.272136    -0.003215    Cartesian    0.25
    191 x         -1.268921     -1.270599    -0.001679    Cartesian    0.13
    191 y         11.420288     11.396155    -0.024133    Cartesian   -0.21
    191 z         -1.268921     -1.261535     0.007386    Cartesian   -0.58
    192 x          7.613525      7.627180     0.013655    Cartesian    0.18
    192 y          5.075684      5.081322     0.005638    Cartesian    0.11
    192 z          7.613525      7.631240     0.017715    Cartesian    0.23
    193 x          8.882446      8.891062     0.008615    Cartesian    0.10
    193 y          8.882446      8.891062     0.008615    Cartesian    0.10
    193 z          1.268921      1.245482    -0.023439    Cartesian   -1.85
    194 x         -6.344605     -6.335719     0.008885    Cartesian   -0.14
    194 y          8.882446      8.873561    -0.008885    Cartesian   -0.10
    194 z          1.268921      1.267156    -0.001765    Cartesian   -0.14
    195 x          1.268921      1.272558     0.003637    Cartesian    0.29
    195 y         11.420288     11.434857     0.014569    Cartesian    0.13
    195 z         -3.806763     -3.802983     0.003779    Cartesian   -0.10
    196 x         10.151367     10.169927     0.018560    Cartesian    0.18
    196 y          5.075684      5.080692     0.005008    Cartesian    0.10
    196 z          5.075684      5.091164     0.015481    Cartesian    0.30
    197 x          5.075684      5.080967     0.005284    Cartesian    0.10
    197 y         -0.000000     -0.004201    -0.004201    Cartesian *******
    197 z         10.151367     10.166887     0.015520    Cartesian    0.15
    198 x         -5.075684     -5.078596    -0.002912    Cartesian    0.06
    198 y         10.151367     10.153645     0.002277    Cartesian    0.02
    198 z          0.000000      0.000000     0.000000    Cartesian    0.00
    199 x         -6.344605     -6.337507     0.007098    Cartesian   -0.11
    199 y          6.344605      6.338470    -0.006134    Cartesian   -0.10
    199 z         -6.344605     -6.339503     0.005101    Cartesian   -0.08
    200 x          3.806763      3.808167     0.001404    Cartesian    0.04
    200 y         11.420288     11.401675    -0.018613    Cartesian   -0.16
    200 z          3.806763      3.809456     0.002693    Cartesian    0.07
    201 x         -1.268921     -1.262992     0.005929    Cartesian   -0.47
    201 y         11.420288     11.415880    -0.004408    Cartesian   -0.04
    201 z          3.806763      3.804317    -0.002446    Cartesian   -0.06
    202 x          6.344605      6.345610     0.001006    Cartesian    0.02
    202 y          8.882446      8.881836    -0.000610    Cartesian   -0.01
    202 z         -6.344605     -6.349163    -0.004558    Cartesian    0.07
    203 x          7.613525      7.622289     0.008763    Cartesian    0.12
    203 y         10.151367     10.180659     0.029292    Cartesian    0.29
    203 z         -2.537842     -2.546821    -0.008979    Cartesian    0.35
    204 x         -6.344605     -6.331160     0.013444    Cartesian   -0.21
    204 y          8.882446      8.869002    -0.013444    Cartesian   -0.15
    204 z         -3.806763     -3.797860     0.008903    Cartesian   -0.23
    205 x          8.882446      8.880130    -0.002317    Cartesian   -0.03
    205 y          8.882446      8.880130    -0.002317    Cartesian   -0.03
    205 z         -3.806763     -3.807168    -0.000405    Cartesian    0.01
    206 x          6.344605      6.345004     0.000399    Cartesian    0.01
    206 y          6.344605      6.345004     0.000399    Cartesian    0.01
    206 z          8.882446      8.874617    -0.007829    Cartesian   -0.09
    207 x         -3.806763     -3.800222     0.006541    Cartesian   -0.17
    207 y          6.344605      6.338063    -0.006541    Cartesian   -0.10
    207 z         -8.882446     -8.871212     0.011234    Cartesian   -0.13
    208 x          6.344605      6.343657    -0.000947    Cartesian   -0.01
    208 y         11.420288     11.427287     0.006999    Cartesian    0.06
    208 z          1.268921      1.272852     0.003932    Cartesian    0.31
    209 x          1.268921      1.268921     0.000000    Cartesian    0.00
    209 y          1.268921      1.268921     0.000000    Cartesian    0.00
    209 z         11.420288     11.461061     0.040773    Cartesian    0.36
    210 x         -3.806763     -3.803000     0.003763    Cartesian   -0.10
    210 y         11.420288     11.401072    -0.019216    Cartesian   -0.17
    210 z          1.268921      1.266690    -0.002231    Cartesian   -0.18
    211 x          5.075684      5.079004     0.003320    Cartesian    0.07
    211 y          5.075684      5.079004     0.003320    Cartesian    0.07
    211 z         10.151367     10.173897     0.022530    Cartesian    0.22
    212 x          2.537842      2.556730     0.018888    Cartesian    0.74
    212 y         12.689209     12.710349     0.021140    Cartesian    0.17
    212 z          0.000000      0.000000     0.000000    Cartesian    0.00
    213 x          8.882446      8.881484    -0.000962    Cartesian   -0.01
    213 y          1.268921      1.266311    -0.002610    Cartesian   -0.21
    213 z          8.882446      8.874279    -0.008168    Cartesian   -0.09
    214 x         -1.268921     -1.271088    -0.002167    Cartesian    0.17
    214 y          1.268921      1.269927     0.001006    Cartesian    0.08
    214 z        -11.420288    -11.397030     0.023258    Cartesian   -0.20
    215 x         -5.075684     -5.088146    -0.012463    Cartesian    0.25
    215 y          7.613525      7.625988     0.012463    Cartesian    0.16
    215 z         -7.613525     -7.625102    -0.011576    Cartesian    0.15
    216 x         10.151367     10.171572     0.020204    Cartesian    0.20
    216 y          2.537842      2.537643    -0.000199    Cartesian   -0.01
    216 z          7.613525      7.629044     0.015518    Cartesian    0.20
    217 x         12.689209     12.705856     0.016647    Cartesian    0.13
    217 y          0.000000     -0.000793    -0.000793    Cartesian *******
    217 z         -2.537842     -2.546019    -0.008178    Cartesian    0.32
    218 x          6.344605      6.345639     0.001034    Cartesian    0.02
    218 y         11.420288     11.409190    -0.011098    Cartesian   -0.10
    218 z         -3.806763     -3.807594    -0.000832    Cartesian    0.02
    219 x         -6.344605     -6.330614     0.013990    Cartesian   -0.22
    219 y          3.806763      3.797472    -0.009290    Cartesian   -0.24
    219 z         -8.882446     -8.863165     0.019281    Cartesian   -0.22
    220 x          3.806763      3.804413    -0.002349    Cartesian   -0.06
    220 y         -1.268921     -1.266572     0.002349    Cartesian   -0.19
    220 z         11.420288     11.413561    -0.006727    Cartesian   -0.06
    221 x          3.806763      3.805391    -0.001372    Cartesian   -0.04
    221 y          3.806763      3.805391    -0.001372    Cartesian   -0.04
    221 z         11.420288     11.416007    -0.004281    Cartesian   -0.04
    222 x         -8.882446     -8.856272     0.026174    Cartesian   -0.29
    222 y          6.344605      6.332362    -0.012242    Cartesian   -0.19
    222 z         -3.806763     -3.796018     0.010745    Cartesian   -0.28
    223 x          1.268921      1.269498     0.000577    Cartesian    0.05
    223 y         11.420288     11.403085    -0.017203    Cartesian   -0.15
    223 z          6.344605      6.340372    -0.004232    Cartesian   -0.07
    224 x         -6.344605     -6.339138     0.005467    Cartesian   -0.09
    224 y         -1.268921     -1.271914    -0.002993    Cartesian    0.24
    224 z         -8.882446     -8.869972     0.012474    Cartesian   -0.14
--------------------------------------------------------------------------------


  Time to end of optimisation  =       45.1631 seconds


  Peak dynamic memory used =     351.23 MB 


  Timing analysis for GULP :

--------------------------------------------------------------------------------
  Task / Subroutine                                          Time (Seconds)
--------------------------------------------------------------------------------
  Calculation of reciprocal space energy and derivatives          0.0002
  Calculation of reciprocal space energy using symmetry           0.0003
  Calculation of real space energy and derivatives                0.0025
  Calculation of real space energy using symmetry                 0.0072
  Calculation for region 1 energy and derivatives (2-b)          13.3344
  Calculation for region 2a energy                               28.4825
  Calculation for region 2b energy                                0.0002
  Calculation and manipulation of Hessian matrix                  2.7624
  Calculation of matrix inversion                                 0.1916
  Symmetry generation of equivalent positions                     0.0016
--------------------------------------------------------------------------------
  Total CPU time                                                 45.1632
--------------------------------------------------------------------------------


  Dump file written as ZrO2.grs


  Job Finished at 13:15.19  6th October    2020                               

