********************************************************************************
*                       GENERAL UTILITY LATTICE PROGRAM                        *
*                                 Julian Gale                                  *
*                       Curtin Institute for Computation                       *
*                    School of Molecular and Life Sciences                     *
*                    Curtin University, Western Australia                      *
********************************************************************************
* Version = 5.2.0 * Last modified =  10th September 2020                       *
********************************************************************************
* Zirconia doped with calcium                                                  *
*  optimise     - perform optimisation run                                     *
*  conp         - constant pressure calculation                                *
*  property     - calculate properties for final geometry                      *
*  defect       - perform defect calculation after bulk run                    *
*  distance     - calculate distances                                          *
*  compare      - compare initial and final structures                         *
********************************************************************************
* Zirconia doped with calcium                                                  *
********************************************************************************


  Job Started  at 10:33.31  6th October    2020                               

  Number of CPUs =     1


  Total number of configurations input =      1

********************************************************************************
*  Input for Configuration =   1 : ZrO2                                        *
********************************************************************************

  Formula = ZrO2                                                        

  Number of irreducible atoms/shells =       4


  Total number atoms/shells =       6

  Dimensionality = 3               :  Bulk   


  Symmetry :

  Crystal family                   :  Cubic       
  Crystal class  (Groth - 1921)    :  Cubic Hexakisoctahedral              

  Space group (centrosymmetric)    :  F M 3 M         

  Patterson group                  :  F m -3 m 

  Cartesian lattice vectors (Angstroms) :

        0.000000    2.535000    2.535000
        2.535000    0.000000    2.535000
        2.535000    2.535000    0.000000

  Primitive cell parameters :            Full cell parameters :

  a =   3.5850    alpha =  60.0000       a =   5.0700    alpha =  90.0000
  b =   3.5850    beta  =  60.0000       b =   5.0700    beta  =  90.0000
  c =   3.5850    gamma =  60.0000       c =   5.0700    gamma =  90.0000

  Initial volumes (Angstroms**3):

  Primitive cell =          32.580961    Full cell =         130.323843

  Temperature of configuration =   0.00     K 

  Pressure of configuration =         0.000 GPa 

  Fractional coordinates of asymmetric unit :

--------------------------------------------------------------------------------
   No.  Atomic       x           y          z         Charge      Occupancy
        Label      (Frac)      (Frac)     (Frac)        (e)         (Frac)  
--------------------------------------------------------------------------------
      1 Zr    c    0.000000    0.000000    0.000000     2.65000    1.000000    
      2 O     c    0.250000    0.250000    0.250000     0.07700    1.000000    
      3 Zr    s    0.000000    0.000000    0.000000     1.35000    1.000000    
      4 O     s    0.250000    0.250000    0.250000    -2.07700    1.000000    
--------------------------------------------------------------------------------


  Constraints : 

--------------------------------------------------------------------------------
  Constraint no.      Unconstrained     Constrained    Coefficient    Offset
                         Variable         Variable
--------------------------------------------------------------------------------
           1              Strain 1        Strain 2       1.00000      0.0000
           2              Strain 1        Strain 3       1.00000      0.0000
--------------------------------------------------------------------------------


  Distance calculation :


  Cutoff for distances  =      4.000000 Angstroms

--------------------------------------------------------------------------------
  Asymmetric unit site  Full lattice sites    No.  Distance      No.  Distance
      No.   At.No.            At.No.                (Angs)             (Angs) 
--------------------------------------------------------------------------------
       1   Zr    core        Zr    core        12    3.5850
                             Zr    shell       12    3.5850
                             O     core         8    2.1954
                             O     shell        8    2.1954
--------------------------------------------------------------------------------
       2   O     core        Zr    core         4    2.1954
                             Zr    shell        4    2.1954
                             O     core         6    2.5350       12    3.5850
                             O     shell        6    2.5350       12    3.5850
--------------------------------------------------------------------------------
       3   Zr    shell       Zr    core        12    3.5850
                             Zr    shell       12    3.5850
                             O     core         8    2.1954
                             O     shell        8    2.1954
--------------------------------------------------------------------------------
       4   O     shell       Zr    core         4    2.1954
                             Zr    shell        4    2.1954
                             O     core         6    2.5350       12    3.5850
                             O     shell        6    2.5350       12    3.5850
--------------------------------------------------------------------------------



********************************************************************************
*  General input information                                                   *
********************************************************************************

  Species output for all configurations : 

--------------------------------------------------------------------------------
  Species    Type    Atomic    Atomic    Charge       Radii (Angs)     Library
                     Number     Mass       (e)     Cova   Ionic  VDW   Symbol
--------------------------------------------------------------------------------
    Zr       Core       40      91.22   2.650000   1.560  0.000  2.330          
    Zr       Shell      40       0.00   1.350000   1.560  0.000  2.330          
    O        Core        8      16.00   0.077000   0.730  0.000  1.360          
    O        Shell       8       0.00  -2.077000   0.730  0.000  1.360          
--------------------------------------------------------------------------------


  Lattice summation method               =    Ewald          (3-D)
                                         =    Parry          (2-D)
                                         =    Saunders et al (1-D)
  Accuracy factor for lattice sums       =   12.000


  Analytic derivatives to be used

  Time limit = Infinity

  Maximum range for interatomic potentials =    100000.000000 Angstroms

  General interatomic potentials :

--------------------------------------------------------------------------------
Atom  Types   Potential      Parameter       Value         Units   Cutoffs(Ang)
  1     2                                                            Min /  Max 
--------------------------------------------------------------------------------
O    s Zr   s Buckingham    Buckingham A     985.86900    eV        0.000 12.000
                            Buckingham rho  0.37600000    Ang       
                            Buckingham C     0.0000000    eV*Ang^6  
--------------------------------------------------------------------------------
O    s O    s Buckingham    Buckingham A     22764.300    eV        0.000 12.000
                            Buckingham rho  0.14900000    Ang       
                            Buckingham C     27.890000    eV*Ang^6  
--------------------------------------------------------------------------------
Zr   c Zr   s Spring (c-s)  Spring k 2       169.61700    eV*Ang^-2 0.000  0.800
                            Spring k 4       0.0000000    eV*Ang^-4 
--------------------------------------------------------------------------------
O    c O    s Spring (c-s)  Spring k 2       27.290000    eV*Ang^-2 0.000  0.800
                            Spring k 4       0.0000000    eV*Ang^-4 
--------------------------------------------------------------------------------

********************************************************************************
*  Output for configuration   1 : ZrO2                                         *
********************************************************************************


  Components of energy : 

--------------------------------------------------------------------------------
  Interatomic potentials     =          22.43756329 eV    
  Monopole - monopole (real) =         -15.67991073 eV    
  Monopole - monopole (recip)=        -116.52038266 eV    
  Monopole - monopole (total)=        -132.20029339 eV    
--------------------------------------------------------------------------------
  Total lattice energy : 
    Primitive unit cell      =        -109.76273010 eV    
    Non-primitive unit cell  =        -439.05092039 eV    
--------------------------------------------------------------------------------
  Total lattice energy (in kJmol-1): 
    Primitive unit cell      =          -10590.4256 kJ/(mole unit cells)
    Non-primitive unit cell  =          -42361.7023 kJ/(mole unit cells)
--------------------------------------------------------------------------------


  Number of variables =        1

  Maximum number of calculations  =          1000
  Maximum Hessian update interval =            10
  Maximum step size               =   1.000000000
  Maximum parameter tolerance     =   0.000010000
  Maximum function  tolerance     =   0.000010000
  Maximum gradient  tolerance     =   0.001000000
  Maximum gradient  component     =   0.010000000

  Symmetry constrained optimisation

  Symmetry used for second derivatives

  Cell parameters to be optimised using strains

  Newton-Raphson optimiser to be used

  BFGS hessian update to be used

  Lower half triangular hessian to be used

  Start of bulk optimisation :

  Cycle:      0 Energy:      -109.762730  Gnorm:      0.588311  CPU:    0.030
  ** Hessian calculated **
  Cycle:      1 Energy:      -109.763059  Gnorm:      0.000316  CPU:    0.036


  **** Optimisation achieved ****


  Final energy =    -109.76305939 eV
  Final Gnorm  =       0.00000099

  Components of energy : 

--------------------------------------------------------------------------------
  Interatomic potentials     =          22.28919976 eV    
  Monopole - monopole (real) =         -15.66235280 eV    
  Monopole - monopole (recip)=        -116.38990634 eV    
  Monopole - monopole (total)=        -132.05225914 eV    
--------------------------------------------------------------------------------
  Total lattice energy : 
    Primitive unit cell      =        -109.76305939 eV    
    Non-primitive unit cell  =        -439.05223754 eV    
--------------------------------------------------------------------------------
  Total lattice energy (in kJmol-1): 
    Primitive unit cell      =          -10590.4573 kJ/(mole unit cells)
    Non-primitive unit cell  =          -42361.8294 kJ/(mole unit cells)
--------------------------------------------------------------------------------

  Final asymmetric unit coordinates :

--------------------------------------------------------------------------------
   No.  Atomic        x           y           z         Radius
        Label       (Frac)      (Frac)      (Frac)       (Angs) 
--------------------------------------------------------------------------------
     1  Zr    c     0.000000    0.000000    0.000000    0.000000
     2  O     c     0.250000    0.250000    0.250000    0.000000
     3  Zr    s     0.000000    0.000000    0.000000    0.000000
     4  O     s     0.250000    0.250000    0.250000    0.000000
--------------------------------------------------------------------------------

  Final Cartesian lattice vectors (Angstroms) :

        0.000000    2.537842    2.537842
        2.537842    0.000000    2.537842
        2.537842    2.537842    0.000000


  Final cell parameters and derivatives :

--------------------------------------------------------------------------------
       a            3.589050 Angstrom     dE/de1(xx)    -0.000001 eV/strain
       b            3.589050 Angstrom     dE/de2(yy)     0.000000 eV/strain
       c            3.589050 Angstrom     dE/de3(zz)     0.000000 eV/strain
       alpha       60.000000 Degrees      dE/de4(yz)     0.000000 eV/strain
       beta        60.000000 Degrees      dE/de5(xz)     0.000000 eV/strain
       gamma       60.000000 Degrees      dE/de6(xy)     0.000000 eV/strain
--------------------------------------------------------------------------------

  Primitive cell volume =            32.690656 Angs**3

  Density of cell =      6.259124 g/cm**3

  Non-primitive lattice parameters :

  a    =     5.075684  b   =     5.075684  c    =     5.075684
  alpha=    90.000000  beta=    90.000000  gamma=    90.000000

  Non-primitive cell volume =           130.762624 Angs**3


  Final internal derivatives :

--------------------------------------------------------------------------------
   No.  Atomic          a             b             c           Radius
        Label          (eV)          (eV)          (eV)        (eV/Angs)
--------------------------------------------------------------------------------
      1 Zr    c       0.000000      0.000000      0.000000      0.000000
      2 O     c       0.000000      0.000000      0.000000      0.000000
      3 Zr    s       0.000000      0.000000      0.000000      0.000000
      4 O     s       0.000000      0.000000      0.000000      0.000000
--------------------------------------------------------------------------------
  Maximum abs         0.000000      0.000000      0.000000      0.000000
--------------------------------------------------------------------------------

  Comparison of initial and final structures : 

--------------------------------------------------------------------------------
  Parameter   Initial value   Final value   Difference    Units      Percent
--------------------------------------------------------------------------------
    Volume       130.323843    130.762624     0.438781    Angs**3      0.34
    a              5.070000      5.075684     0.005684    Angstroms    0.11
    b              5.070000      5.075684     0.005684    Angstroms    0.11
    c              5.070000      5.075684     0.005684    Angstroms    0.11
    alpha         90.000000     90.000000     0.000000    Degrees      0.00
    beta          90.000000     90.000000     0.000000    Degrees      0.00
    gamma         90.000000     90.000000     0.000000    Degrees      0.00
      1 x          0.000000      0.000000     0.000000    Fractional   0.00
      1 y          0.000000      0.000000     0.000000    Fractional   0.00
      1 z          0.000000      0.000000     0.000000    Fractional   0.00
      2 x          0.250000      0.250000     0.000000    Fractional   0.00
      2 y          0.250000      0.250000     0.000000    Fractional   0.00
      2 z          0.250000      0.250000     0.000000    Fractional   0.00
      3 x          0.000000      0.000000     0.000000    Fractional   0.00
      3 y          0.000000      0.000000     0.000000    Fractional   0.00
      3 z          0.000000      0.000000     0.000000    Fractional   0.00
      4 x          0.250000      0.250000     0.000000    Fractional   0.00
      4 y          0.250000      0.250000     0.000000    Fractional   0.00
      4 z          0.250000      0.250000     0.000000    Fractional   0.00
--------------------------------------------------------------------------------


  Distance calculation :


  Cutoff for distances  =      4.000000 Angstroms

--------------------------------------------------------------------------------
  Asymmetric unit site  Full lattice sites    No.  Distance      No.  Distance
      No.   At.No.            At.No.                (Angs)             (Angs) 
--------------------------------------------------------------------------------
       1   Zr    core        Zr    core        12    3.5891
                             Zr    shell       12    3.5891
                             O     core         8    2.1978
                             O     shell        8    2.1978
--------------------------------------------------------------------------------
       2   O     core        Zr    core         4    2.1978
                             Zr    shell        4    2.1978
                             O     core         6    2.5378       12    3.5891
                             O     shell        6    2.5378       12    3.5891
--------------------------------------------------------------------------------
       3   Zr    shell       Zr    core        12    3.5891
                             Zr    shell       12    3.5891
                             O     core         8    2.1978
                             O     shell        8    2.1978
--------------------------------------------------------------------------------
       4   O     shell       Zr    core         4    2.1978
                             Zr    shell        4    2.1978
                             O     core         6    2.5378       12    3.5891
                             O     shell        6    2.5378       12    3.5891
--------------------------------------------------------------------------------



  Born effective charge tensors : 

-------------------------------------------------------------------------------
  Atom             x           y             z
-------------------------------------------------------------------------------
    1 Zr    x       3.6770      0.0000      0.0000
            y       0.0000      3.6770      0.0000
            z       0.0000      0.0000      3.6770
-------------------------------------------------------------------------------
    2 O     x      -1.8385      0.0000      0.0000
            y       0.0000     -1.8385     -0.0000
            z       0.0000     -0.0000     -1.8385
-------------------------------------------------------------------------------




  Elastic Constant Matrix: (Units=GPa)

-------------------------------------------------------------------------------
  Indices      1         2         3         4         5         6    
-------------------------------------------------------------------------------
       1    616.2933  119.6612  119.6612   -0.0000   -0.0000   -0.0000
       2    119.6612  616.2933  119.6612   -0.0000   -0.0000   -0.0000
       3    119.6612  119.6612  616.2933   -0.0000   -0.0000   -0.0000
       4     -0.0000   -0.0000   -0.0000  100.8598    0.0000   -0.0000
       5     -0.0000   -0.0000   -0.0000    0.0000  100.8598    0.0000
       6     -0.0000   -0.0000   -0.0000   -0.0000    0.0000  100.8598
-------------------------------------------------------------------------------


  Elastic Compliance Matrix: (Units=1/GPa)

-------------------------------------------------------------------------------
  Indices      1         2         3         4         5         6    
-------------------------------------------------------------------------------
       1    0.001732 -0.000282 -0.000282  0.000000  0.000000  0.000000
       2   -0.000282  0.001732 -0.000282 -0.000000  0.000000  0.000000
       3   -0.000282 -0.000282  0.001732  0.000000  0.000000  0.000000
       4    0.000000 -0.000000  0.000000  0.009915 -0.000000  0.000000
       5    0.000000  0.000000  0.000000 -0.000000  0.009915 -0.000000
       6    0.000000  0.000000  0.000000  0.000000 -0.000000  0.009915
-------------------------------------------------------------------------------

  Mechanical properties :

-------------------------------------------------------------------------------
  Convention :                    Reuss         Voigt         Hill
-------------------------------------------------------------------------------
  Bulk  Modulus (GPa)     =     285.20524     285.20524     285.20524
  Shear Modulus (GPa)     =     132.28031     159.84228     146.06129
-------------------------------------------------------------------------------
  Velocity S-wave (km/s)  =       4.59717       5.05346       4.83071
  Velocity P-wave (km/s)  =       8.58749       8.92280       8.75675
-------------------------------------------------------------------------------
  Compressibility (1/GPa) =    0.00350625
-------------------------------------------------------------------------------
  Stress axis :                     x             y             z
-------------------------------------------------------------------------------
  Youngs Moduli (GPa)     =     577.38110     577.38110     577.38110
-------------------------------------------------------------------------------
  Poissons Ratio (x)      =                     0.16259       0.16259
  Poissons Ratio (y)      =       0.16259                     0.16259
  Poissons Ratio (z)      =       0.16259       0.16259
-------------------------------------------------------------------------------


  Piezoelectric Strain Matrix: (Units=C/m**2)

-------------------------------------------------------------------------------
  Indices      1         2         3         4         5         6    
-------------------------------------------------------------------------------
       x    -0.00000   0.00000   0.00000   0.00000   0.00000   0.00000
       y    -0.00000  -0.00000  -0.00000   0.00000   0.00000   0.00000
       z    -0.00000  -0.00000  -0.00000   0.00000   0.00000   0.00000
-------------------------------------------------------------------------------


  Piezoelectric Stress Matrix: (Units=10**-11 C/N)

-------------------------------------------------------------------------------
  Indices      1         2         3         4         5         6    
-------------------------------------------------------------------------------
       x    -0.00000   0.00000   0.00000   0.00000   0.00000   0.00000
       y    -0.00000  -0.00000  -0.00000   0.00000   0.00000   0.00000
       z     0.00000   0.00000  -0.00000   0.00000   0.00000   0.00000
-------------------------------------------------------------------------------


  Static dielectric constant tensor : 

-------------------------------------------------------------------------------
              x         y         z
-------------------------------------------------------------------------------
       x    26.88485   0.00000   0.00000
       y     0.00000  26.88485   0.00000
       z     0.00000   0.00000  26.88485
--------------------------------------------------------------------------------

  High frequency dielectric constant tensor : 

-------------------------------------------------------------------------------
              x         y         z
-------------------------------------------------------------------------------
       x     2.63099   0.00000   0.00000
       y     0.00000   2.63099   0.00000
       z     0.00000   0.00000   2.63099
-------------------------------------------------------------------------------

  Static refractive indices : 

-------------------------------------------------------------------------------
    1 =    5.18506      2 =    5.18506      3 =    5.18506
-------------------------------------------------------------------------------

  High frequency refractive indices : 

-------------------------------------------------------------------------------
    1 =    1.62203      2 =    1.62203      3 =    1.62203
-------------------------------------------------------------------------------


  Time to end of optimisation =       0.0445 seconds

********************************************************************************
*  Defect calculation for configuration   1 :                                  *
********************************************************************************

  Total number of defects =      1

  Total charge on defect  =   2.00

  Defect centre is at   0.2500   0.2500   0.2500  Frac

  Region 1 radius =  12.0000      Number of ions =   1352

  Number of symmetry inequivalent region 1 ions  =    100

  Region 2 radius =  24.0000      Number of ions =   9340

  Number of symmetry inequivalent region 2a ions =    510

  Region 2a mode = 4 : screened electrostatics due to region 1 
                       neglect correction to region 1 forces from 2a
                       region 2a displacements based on defects only

  Region 2a ions will only interact with defects in region 1

  Vacancies:

--------------------------------------------------------------------------------
    Specification type     Symbol/Number         x          y          z
--------------------------------------------------------------------------------
    Fractional                               0.250000   0.250000   0.250000
--------------------------------------------------------------------------------


  Symmetry reduced region 1 (Relative to defect centre) :

--------------------------------------------------------------------------------
   No.   Atomic       x            y             z       Radius  Multiplicity   
         Label      (Angs)       (Angs)        (Angs)    (Angs)     
--------------------------------------------------------------------------------
     1  Zr    c      1.2689 *    -1.2689       1.2689    0.0000     4          
     2  O     c     -0.0000       2.5378 *    -0.0000    0.0000     6          
     3  O     c      2.5378 *     2.5378       0.0000 *  0.0000    12          
     4  Zr    c      1.2689 *     1.2689       3.8068 *  0.0000    12          
     5  O     c      2.5378 *     2.5378       2.5378    0.0000     4          
     6  O     c     -2.5378 *     2.5378       2.5378    0.0000     4          
     7  O     c      0.0000       0.0000       5.0757 *  0.0000     6          
     8  Zr    c      3.8068 *    -1.2689 *     3.8068    0.0000    12          
     9  O     c      2.5378 *     5.0757 *    -0.0000 *  0.0000    24          
    10  O     c      5.0757 *     2.5378 *     2.5378    0.0000    12          
    11  O     c      2.5378 *    -2.5378       5.0757 *  0.0000    12          
    12  Zr    c     -6.3446 *     1.2689 *     1.2689    0.0000    12          
    13  Zr    c      3.8068 *     3.8068       3.8068    0.0000     4          
    14  O     c      5.0757 *     5.0757       0.0000 *  0.0000    12          
    15  Zr    c      3.8068 *    -6.3446 *    -1.2689 *  0.0000    24          
    16  O     c      5.0757 *     5.0757       2.5378 *  0.0000    12          
    17  O     c     -0.0000      -0.0000       7.6135 *  0.0000     6          
    18  O     c     -2.5378 *     5.0757 *     5.0757    0.0000    12          
    19  O     c      2.5378 *     0.0000 *     7.6135 *  0.0000    24          
    20  Zr    c      3.8068 *    -3.8068       6.3446 *  0.0000    12          
    21  O     c      2.5378 *     7.6135 *    -2.5378    0.0000    12          
    22  O     c      2.5378 *     7.6135 *     2.5378    0.0000    12          
    23  O     c     -5.0757 *     5.0757       5.0757    0.0000     4          
    24  O     c      5.0757 *    -5.0757      -5.0757    0.0000     4          
    25  Zr    c      6.3446 *     6.3446      -1.2689 *  0.0000    12          
    26  Zr    c      1.2689 *     1.2689       8.8824 *  0.0000    12          
    27  O     c      5.0757 *     7.6135 *    -0.0000 *  0.0000    24          
    28  O     c      7.6135 *     2.5378 *     5.0757 *  0.0000    24          
    29  O     c      5.0757 *    -2.5378 *     7.6135 *  0.0000    24          
    30  Zr    c      6.3446 *     6.3446       3.8068 *  0.0000    12          
    31  Zr    c      3.8068 *    -1.2689 *     8.8824 *  0.0000    24          
    32  O     c      0.0000       0.0000      10.1514 *  0.0000     6          
    33  Zr    c      8.8824 *     3.8068 *     3.8068    0.0000    12          
    34  O     c      7.6135 *     5.0757 *     5.0757    0.0000    12          
    35  O     c     -5.0757 *     5.0757       7.6135 *  0.0000    12          
    36  O     c      2.5378 *    -0.0000 *    10.1514 *  0.0000    24          
    37  O     c      7.6135 *     7.6135       0.0000 *  0.0000    12          
    38  O     c      2.5378 *    -2.5378      10.1514 *  0.0000    12          
    39  O     c      2.5378 *     2.5378      10.1514 *  0.0000    12          
    40  Zr    c     -6.3446 *     6.3446       6.3446    0.0000     4          
    41  Zr    c      8.8824 *     6.3446 *     1.2689 *  0.0000    24          
    42  O     c      7.6135 *     7.6135       2.5378 *  0.0000    12          
    43  O     c     -2.5378 *     7.6135 *     7.6135    0.0000    12          
    44  O     c      5.0757 *     0.0000 *    10.1514 *  0.0000    24          
    45  Zr    c      6.3446 *    -3.8068 *     8.8824 *  0.0000    24          
    46  Zr    c      1.2689 *    -1.2689      11.4203 *  0.0000    12          
    47  O     c      5.0757 *    -2.5378 *    10.1514 *  0.0000    24          
    48  O     c      5.0757 *    10.1514 *     2.5378 *  0.0000    24          
    49  O     c      7.6135 *     7.6135       5.0757 *  0.0000    12          
    50  O     c     -5.0757 *     7.6135 *     7.6135    0.0000    12          
    51  Zr    s      1.2689 *    -1.2689       1.2689    0.0000     4          
    52  O     s     -0.0000       2.5378 *    -0.0000    0.0000     6          
    53  O     s      2.5378 *     2.5378       0.0000 *  0.0000    12          
    54  Zr    s      1.2689 *     1.2689       3.8068 *  0.0000    12          
    55  O     s      2.5378 *     2.5378       2.5378    0.0000     4          
    56  O     s     -2.5378 *     2.5378       2.5378    0.0000     4          
    57  O     s      0.0000       0.0000       5.0757 *  0.0000     6          
    58  Zr    s      3.8068 *    -1.2689 *     3.8068    0.0000    12          
    59  O     s      2.5378 *     5.0757 *    -0.0000 *  0.0000    24          
    60  O     s      5.0757 *     2.5378 *     2.5378    0.0000    12          
    61  O     s      2.5378 *    -2.5378       5.0757 *  0.0000    12          
    62  Zr    s     -6.3446 *     1.2689 *     1.2689    0.0000    12          
    63  Zr    s      3.8068 *     3.8068       3.8068    0.0000     4          
    64  O     s      5.0757 *     5.0757       0.0000 *  0.0000    12          
    65  Zr    s      3.8068 *    -6.3446 *    -1.2689 *  0.0000    24          
    66  O     s      5.0757 *     5.0757       2.5378 *  0.0000    12          
    67  O     s     -0.0000      -0.0000       7.6135 *  0.0000     6          
    68  O     s     -2.5378 *     5.0757 *     5.0757    0.0000    12          
    69  O     s      2.5378 *     0.0000 *     7.6135 *  0.0000    24          
    70  Zr    s      3.8068 *    -3.8068       6.3446 *  0.0000    12          
    71  O     s      2.5378 *     7.6135 *    -2.5378    0.0000    12          
    72  O     s      2.5378 *     7.6135 *     2.5378    0.0000    12          
    73  O     s     -5.0757 *     5.0757       5.0757    0.0000     4          
    74  O     s      5.0757 *    -5.0757      -5.0757    0.0000     4          
    75  Zr    s      6.3446 *     6.3446      -1.2689 *  0.0000    12          
    76  Zr    s      1.2689 *     1.2689       8.8824 *  0.0000    12          
    77  O     s      5.0757 *     7.6135 *    -0.0000 *  0.0000    24          
    78  O     s      7.6135 *     2.5378 *     5.0757 *  0.0000    24          
    79  O     s      5.0757 *    -2.5378 *     7.6135 *  0.0000    24          
    80  Zr    s      6.3446 *     6.3446       3.8068 *  0.0000    12          
    81  Zr    s      3.8068 *    -1.2689 *     8.8824 *  0.0000    24          
    82  O     s      0.0000       0.0000      10.1514 *  0.0000     6          
    83  Zr    s      8.8824 *     3.8068 *     3.8068    0.0000    12          
    84  O     s      7.6135 *     5.0757 *     5.0757    0.0000    12          
    85  O     s     -5.0757 *     5.0757       7.6135 *  0.0000    12          
    86  O     s      2.5378 *    -0.0000 *    10.1514 *  0.0000    24          
    87  O     s      7.6135 *     7.6135       0.0000 *  0.0000    12          
    88  O     s      2.5378 *    -2.5378      10.1514 *  0.0000    12          
    89  O     s      2.5378 *     2.5378      10.1514 *  0.0000    12          
    90  Zr    s     -6.3446 *     6.3446       6.3446    0.0000     4          
    91  Zr    s      8.8824 *     6.3446 *     1.2689 *  0.0000    24          
    92  O     s      7.6135 *     7.6135       2.5378 *  0.0000    12          
    93  O     s     -2.5378 *     7.6135 *     7.6135    0.0000    12          
    94  O     s      5.0757 *     0.0000 *    10.1514 *  0.0000    24          
    95  Zr    s      6.3446 *    -3.8068 *     8.8824 *  0.0000    24          
    96  Zr    s      1.2689 *    -1.2689      11.4203 *  0.0000    12          
    97  O     s      5.0757 *    -2.5378 *    10.1514 *  0.0000    24          
    98  O     s      5.0757 *    10.1514 *     2.5378 *  0.0000    24          
    99  O     s      7.6135 *     7.6135       5.0757 *  0.0000    12          
   100  O     s     -5.0757 *     7.6135 *     7.6135    0.0000    12          
--------------------------------------------------------------------------------


  Constraints on symmetry reduced coordinates :

--------------------------------------------------------------------------------
  Constraint no.      Unconstrained     Constrained    Coefficient    
                         Variable         Variable
--------------------------------------------------------------------------------
           1                 1 x             1 y        -1.00000
           2                 1 x             1 z         1.00000
           3                 3 x             3 y         1.00000
           4                 4 x             4 y         1.00000
           5                 5 x             5 y         1.00000
           6                 5 x             5 z         1.00000
           7                 6 x             6 y        -1.00000
           8                 6 x             6 z        -1.00000
           9                 8 x             8 z         1.00000
          10                10 y            10 z         1.00000
          11                11 x            11 y        -1.00000
          12                12 y            12 z         1.00000
          13                13 x            13 y         1.00000
          14                13 x            13 z         1.00000
          15                14 x            14 y         1.00000
          16                16 x            16 y         1.00000
          17                18 y            18 z         1.00000
          18                20 x            20 y        -1.00000
          19                21 x            21 z        -1.00000
          20                22 x            22 z         1.00000
          21                23 x            23 y        -1.00000
          22                23 x            23 z        -1.00000
          23                24 x            24 y        -1.00000
          24                24 x            24 z        -1.00000
          25                25 x            25 y         1.00000
          26                26 x            26 y         1.00000
          27                30 x            30 y         1.00000
          28                33 y            33 z         1.00000
          29                34 y            34 z         1.00000
          30                35 x            35 y        -1.00000
          31                37 x            37 y         1.00000
          32                38 x            38 y        -1.00000
          33                39 x            39 y         1.00000
          34                40 x            40 y        -1.00000
          35                40 x            40 z        -1.00000
          36                42 x            42 y         1.00000
          37                43 y            43 z         1.00000
          38                46 x            46 y        -1.00000
          39                49 x            49 y         1.00000
          40                50 y            50 z         1.00000
          41                51 x            51 y        -1.00000
          42                51 x            51 z         1.00000
          43                53 x            53 y         1.00000
          44                54 x            54 y         1.00000
          45                55 x            55 y         1.00000
          46                55 x            55 z         1.00000
          47                56 x            56 y        -1.00000
          48                56 x            56 z        -1.00000
          49                58 x            58 z         1.00000
          50                60 y            60 z         1.00000
          51                61 x            61 y        -1.00000
          52                62 y            62 z         1.00000
          53                63 x            63 y         1.00000
          54                63 x            63 z         1.00000
          55                64 x            64 y         1.00000
          56                66 x            66 y         1.00000
          57                68 y            68 z         1.00000
          58                70 x            70 y        -1.00000
          59                71 x            71 z        -1.00000
          60                72 x            72 z         1.00000
          61                73 x            73 y        -1.00000
          62                73 x            73 z        -1.00000
          63                74 x            74 y        -1.00000
          64                74 x            74 z        -1.00000
          65                75 x            75 y         1.00000
          66                76 x            76 y         1.00000
          67                80 x            80 y         1.00000
          68                83 y            83 z         1.00000
          69                84 y            84 z         1.00000
          70                85 x            85 y        -1.00000
          71                87 x            87 y         1.00000
          72                88 x            88 y        -1.00000
          73                89 x            89 y         1.00000
          74                90 x            90 y        -1.00000
          75                90 x            90 z        -1.00000
          76                92 x            92 y         1.00000
          77                93 y            93 z         1.00000
          78                96 x            96 y        -1.00000
          79                99 x            99 y         1.00000
          80               100 y           100 z         1.00000
--------------------------------------------------------------------------------


  Components of defect energy : 

--------------------------------------------------------------------------------
  Region 1 - region 1                   =   -106.26511694 eV
  Region 1 - region 2a (unrelaxed)      =    141.74905159 eV
  Region 1 - 2a (relaxed - correction)  =     -2.29500197 eV
  Region 1 (Total)                      =     33.18893268 eV
  Region 2a                             =      1.14751548 eV
  Region 2b                             =     -1.15350492 eV
--------------------------------------------------------------------------------
  Total defect energy                   =     33.18294324 eV
--------------------------------------------------------------------------------

  Largest displacement in region 2 =   0.0044 Angstroms


  Number of variables =      204

  Maximum number of calculations  =        1000
  Maximum Hessian update interval =          10
  Maximum step size               =   1.0000000
  Maximum parameter tolerance     =   0.0000100
  Maximum function  tolerance     =   0.0000100
  Maximum gradient  tolerance     =   0.0010000

  Symmetry adapted optimisation

  Symmetry to be used for second derivatives

  Newton-Raphson optimiser to be used

  BFGS hessian update to be used

  Lower half triangular hessian to be used

  Start of defect optimisation :

  Cycle:      0 Defect Energy:  33.182943  Gnorm:     0.971104  CPU:    2.295
  ** Hessian calculated **
  Cycle:      1 Defect Energy:  23.037648  Gnorm:     0.374710  CPU:    3.670
  ** Hessian calculated **
  Cycle:      2 Defect Energy:  16.270314  Gnorm:     0.248254  CPU:    6.568
  Cycle:      3 Defect Energy:  14.811477  Gnorm:     0.049885  CPU:    7.817
  Cycle:      4 Defect Energy:  14.678833  Gnorm:     0.017242  CPU:    9.065
  Cycle:      5 Defect Energy:  14.669515  Gnorm:     0.010107  CPU:    9.397
  Cycle:      6 Defect Energy:  14.667620  Gnorm:     0.006995  CPU:    9.735
  Cycle:      7 Defect Energy:  14.666678  Gnorm:     0.004921  CPU:   10.089
  Cycle:      8 Defect Energy:  14.666206  Gnorm:     0.003442  CPU:   10.442
  Cycle:      9 Defect Energy:  14.665966  Gnorm:     0.002411  CPU:   10.776
  Cycle:     10 Defect Energy:  14.665844  Gnorm:     0.001687  CPU:   11.114
  Cycle:     11 Defect Energy:  14.665780  Gnorm:     0.001181  CPU:   11.454
  ** Hessian calculated **
  Cycle:     12 Defect Energy:  14.665745  Gnorm:     0.000827  CPU:   12.215
  Cycle:     13 Defect Energy:  14.665727  Gnorm:     0.000579  CPU:   12.550
  Cycle:     14 Defect Energy:  14.665716  Gnorm:     0.000405  CPU:   12.884
  Cycle:     15 Defect Energy:  14.665710  Gnorm:     0.000284  CPU:   13.217
  Cycle:     16 Defect Energy:  14.665707  Gnorm:     0.000199  CPU:   13.555
  Cycle:     17 Defect Energy:  14.665704  Gnorm:     0.000139  CPU:   13.899
  Cycle:     18 Defect Energy:  14.665703  Gnorm:     0.000097  CPU:   14.244


  **** Optimisation achieved ****


  Final defect energy  =       14.66570197
  Final defect Gnorm   =        0.00006813

  Components of defect energy : 

--------------------------------------------------------------------------------
  Region 1 - region 1                   =   -108.38420382 eV
  Region 1 - region 2a (unrelaxed)      =    125.24009602 eV
  Region 1 - 2a (relaxed - correction)  =     -2.07332653 eV
  Region 1 (Total)                      =     14.78256567 eV
  Region 2a                             =      1.03664122 eV
  Region 2b                             =     -1.15350492 eV
--------------------------------------------------------------------------------
  Total defect energy                   =     14.66570197 eV
--------------------------------------------------------------------------------

  Largest displacement in region 2 =   0.0044 Angstroms

  Final coordinates of region 1 :

--------------------------------------------------------------------------------
   No.  Atomic        x           y           z          Radius      Charge
        Label       (Angs)      (Angs)      (Angs)       (Angs)       (e) 
--------------------------------------------------------------------------------
     1  Zr    c     2.588526   -0.050684    2.588526    0.000000    2.650000
     2  Zr    c    -0.050684    2.588526    2.588526    0.000000    2.650000
     3  Zr    c     2.588526    2.588526   -0.050684    0.000000    2.650000
     4  Zr    c    -0.050684   -0.050684   -0.050684    0.000000    2.650000
     5  O     c     1.268921    3.405070    1.268921    0.000000    0.077000
     6  O     c     1.268921    1.268921    3.405070    0.000000    0.077000
     7  O     c     3.405070    1.268921    1.268921    0.000000    0.077000
     8  O     c    -0.867228    1.268921    1.268921    0.000000    0.077000
     9  O     c     1.268921    1.268921   -0.867228    0.000000    0.077000
    10  O     c     1.268921   -0.867228    1.268921    0.000000    0.077000
    11  O     c     3.845923    3.845923    1.236778    0.000000    0.077000
    12  O     c     3.845923    1.236778    3.845923    0.000000    0.077000
    13  O     c     1.236778    3.845923    3.845923    0.000000    0.077000
    14  O     c     1.301064   -1.308081    3.845923    0.000000    0.077000
    15  O     c     1.301064    3.845923   -1.308081    0.000000    0.077000
    16  O     c    -1.308081    1.301064    3.845923    0.000000    0.077000
    17  O     c    -1.308081    3.845923    1.301064    0.000000    0.077000
    18  O     c     3.845923    1.301064   -1.308081    0.000000    0.077000
    19  O     c     3.845923   -1.308081    1.301064    0.000000    0.077000
    20  O     c    -1.308081   -1.308081    1.236778    0.000000    0.077000
    21  O     c    -1.308081    1.236778   -1.308081    0.000000    0.077000
    22  O     c     1.236778   -1.308081   -1.308081    0.000000    0.077000
    23  Zr    c     2.565797    2.565797    5.098995    0.000000    2.650000
    24  Zr    c    -2.561153    2.565797   -0.027955    0.000000    2.650000
    25  Zr    c     2.565797   -2.561153   -0.027955    0.000000    2.650000
    26  Zr    c     5.098995    2.565797    2.565797    0.000000    2.650000
    27  Zr    c    -0.027955   -2.561153    2.565797    0.000000    2.650000
    28  Zr    c    -0.027955    2.565797   -2.561153    0.000000    2.650000
    29  Zr    c     2.565797    5.098995    2.565797    0.000000    2.650000
    30  Zr    c    -2.561153   -0.027955    2.565797    0.000000    2.650000
    31  Zr    c    -0.027955   -0.027955    5.098995    0.000000    2.650000
    32  Zr    c    -0.027955    5.098995   -0.027955    0.000000    2.650000
    33  Zr    c     2.565797   -0.027955   -2.561153    0.000000    2.650000
    34  Zr    c     5.098995   -0.027955   -0.027955    0.000000    2.650000
    35  O     c     3.782152    3.782152    3.782152    0.000000    0.077000
    36  O     c    -1.244311   -1.244311    3.782152    0.000000    0.077000
    37  O     c    -1.244311    3.782152   -1.244311    0.000000    0.077000
    38  O     c     3.782152   -1.244311   -1.244311    0.000000    0.077000
    39  O     c    -1.286974    3.824815    3.824815    0.000000    0.077000
    40  O     c     3.824815    3.824815   -1.286974    0.000000    0.077000
    41  O     c     3.824815   -1.286974    3.824815    0.000000    0.077000
    42  O     c    -1.286974   -1.286974   -1.286974    0.000000    0.077000
    43  O     c     1.268921    1.268921    6.071864    0.000000    0.077000
    44  O     c     1.268921    6.071864    1.268921    0.000000    0.077000
    45  O     c    -3.534022    1.268921    1.268921    0.000000    0.077000
    46  O     c     6.071864    1.268921    1.268921    0.000000    0.077000
    47  O     c     1.268921   -3.534022    1.268921    0.000000    0.077000
    48  O     c     1.268921    1.268921   -3.534022    0.000000    0.077000
    49  Zr    c     5.096150   -0.010481    5.096150    0.000000    2.650000
    50  Zr    c    -0.010481    5.096150    5.096150    0.000000    2.650000
    51  Zr    c    -2.558308    5.096150    2.548323    0.000000    2.650000
    52  Zr    c     5.096150   -2.558308    2.548323    0.000000    2.650000
    53  Zr    c     5.096150    5.096150   -0.010481    0.000000    2.650000
    54  Zr    c    -2.558308   -2.558308   -0.010481    0.000000    2.650000
    55  Zr    c     2.548323   -2.558308    5.096150    0.000000    2.650000
    56  Zr    c     2.548323    5.096150   -2.558308    0.000000    2.650000
    57  Zr    c    -2.558308   -0.010481   -2.558308    0.000000    2.650000
    58  Zr    c    -2.558308    2.548323    5.096150    0.000000    2.650000
    59  Zr    c     5.096150    2.548323   -2.558308    0.000000    2.650000
    60  Zr    c    -0.010481   -2.558308   -2.558308    0.000000    2.650000
    61  O     c     3.789873    6.383903    1.287477    0.000000    0.077000
    62  O     c     3.789873    1.287477    6.383903    0.000000    0.077000
    63  O     c     1.287477    6.383903    3.789873    0.000000    0.077000
    64  O     c     1.287477    3.789873    6.383903    0.000000    0.077000
    65  O     c     6.383903    3.789873    1.287477    0.000000    0.077000
    66  O     c     6.383903    1.287477    3.789873    0.000000    0.077000
    67  O     c     1.250365   -1.252031    6.383903    0.000000    0.077000
    68  O     c     1.250365    6.383903   -1.252031    0.000000    0.077000
    69  O     c    -1.252031    1.250365    6.383903    0.000000    0.077000
    70  O     c    -1.252031    6.383903    1.250365    0.000000    0.077000
    71  O     c     6.383903    1.250365   -1.252031    0.000000    0.077000
    72  O     c     6.383903   -1.252031    1.250365    0.000000    0.077000
    73  O     c    -3.846061    1.250365    3.789873    0.000000    0.077000
    74  O     c    -3.846061    3.789873    1.250365    0.000000    0.077000
    75  O     c     1.250365   -3.846061    3.789873    0.000000    0.077000
    76  O     c     1.250365    3.789873   -3.846061    0.000000    0.077000
    77  O     c     3.789873    1.250365   -3.846061    0.000000    0.077000
    78  O     c     3.789873   -3.846061    1.250365    0.000000    0.077000
    79  O     c    -3.846061   -1.252031    1.287477    0.000000    0.077000
    80  O     c    -3.846061    1.287477   -1.252031    0.000000    0.077000
    81  O     c    -1.252031   -3.846061    1.287477    0.000000    0.077000
    82  O     c    -1.252031    1.287477   -3.846061    0.000000    0.077000
    83  O     c     1.287477   -1.252031   -3.846061    0.000000    0.077000
    84  O     c     1.287477   -3.846061   -1.252031    0.000000    0.077000
    85  O     c     6.307544    3.808734    3.808734    0.000000    0.077000
    86  O     c    -1.270893   -3.769702    3.808734    0.000000    0.077000
    87  O     c    -1.270893    3.808734   -3.769702    0.000000    0.077000
    88  O     c     3.808734    6.307544    3.808734    0.000000    0.077000
    89  O     c    -3.769702   -1.270893    3.808734    0.000000    0.077000
    90  O     c     3.808734    3.808734    6.307544    0.000000    0.077000
    91  O     c    -3.769702    3.808734   -1.270893    0.000000    0.077000
    92  O     c    -1.270893    6.307544   -1.270893    0.000000    0.077000
    93  O     c     3.808734   -1.270893   -3.769702    0.000000    0.077000
    94  O     c     3.808734   -3.769702   -1.270893    0.000000    0.077000
    95  O     c     6.307544   -1.270893   -1.270893    0.000000    0.077000
    96  O     c    -1.270893   -1.270893    6.307544    0.000000    0.077000
    97  O     c     3.796008   -1.258166    6.350955    0.000000    0.077000
    98  O     c     3.796008    6.350955   -1.258166    0.000000    0.077000
    99  O     c    -3.813113   -1.258166   -1.258166    0.000000    0.077000
   100  O     c    -1.258166    3.796008    6.350955    0.000000    0.077000
   101  O     c    -1.258166    6.350955    3.796008    0.000000    0.077000
   102  O     c    -3.813113    3.796008    3.796008    0.000000    0.077000
   103  O     c     6.350955    3.796008   -1.258166    0.000000    0.077000
   104  O     c    -1.258166   -3.813113   -1.258166    0.000000    0.077000
   105  O     c     6.350955   -1.258166    3.796008    0.000000    0.077000
   106  O     c     3.796008   -3.813113    3.796008    0.000000    0.077000
   107  O     c     3.796008    3.796008   -3.813113    0.000000    0.077000
   108  O     c    -1.258166   -1.258166   -3.813113    0.000000    0.077000
   109  Zr    c    -5.078156    2.554015    2.554015    0.000000    2.650000
   110  Zr    c     2.554015   -0.016173    7.615998    0.000000    2.650000
   111  Zr    c    -0.016173    2.554015    7.615998    0.000000    2.650000
   112  Zr    c    -0.016173    7.615998    2.554015    0.000000    2.650000
   113  Zr    c     7.615998    2.554015   -0.016173    0.000000    2.650000
   114  Zr    c    -0.016173   -5.078156   -0.016173    0.000000    2.650000
   115  Zr    c     2.554015   -5.078156    2.554015    0.000000    2.650000
   116  Zr    c    -0.016173   -0.016173   -5.078156    0.000000    2.650000
   117  Zr    c     2.554015    2.554015   -5.078156    0.000000    2.650000
   118  Zr    c     2.554015    7.615998   -0.016173    0.000000    2.650000
   119  Zr    c    -5.078156   -0.016173   -0.016173    0.000000    2.650000
   120  Zr    c     7.615998   -0.016173    2.554015    0.000000    2.650000
   121  Zr    c     5.092351    5.092351    5.092351    0.000000    2.650000
   122  Zr    c    -2.554510    5.092351   -2.554510    0.000000    2.650000
   123  Zr    c     5.092351   -2.554510   -2.554510    0.000000    2.650000
   124  Zr    c    -2.554510   -2.554510    5.092351    0.000000    2.650000
   125  O     c     6.330421    6.330421    1.261396    0.000000    0.077000
   126  O     c    -3.792579   -3.792579    1.261396    0.000000    0.077000
   127  O     c     6.330421    1.261396    6.330421    0.000000    0.077000
   128  O     c     1.276446   -3.792579    6.330421    0.000000    0.077000
   129  O     c    -3.792579    1.261396   -3.792579    0.000000    0.077000
   130  O     c     1.276446    6.330421   -3.792579    0.000000    0.077000
   131  O     c     1.261396    6.330421    6.330421    0.000000    0.077000
   132  O     c    -3.792579    1.276446    6.330421    0.000000    0.077000
   133  O     c    -3.792579    6.330421    1.276446    0.000000    0.077000
   134  O     c     1.261396   -3.792579   -3.792579    0.000000    0.077000
   135  O     c     6.330421    1.276446   -3.792579    0.000000    0.077000
   136  O     c     6.330421   -3.792579    1.276446    0.000000    0.077000
   137  Zr    c     5.082188   -5.085317    0.001307    0.000000    2.650000
   138  Zr    c    -2.544346    2.536535   -5.085317    0.000000    2.650000
   139  Zr    c     0.001307    5.082188   -5.085317    0.000000    2.650000
   140  Zr    c     5.082188    2.536535    7.623159    0.000000    2.650000
   141  Zr    c    -5.085317    2.536535   -2.544346    0.000000    2.650000
   142  Zr    c     2.536535    5.082188    7.623159    0.000000    2.650000
   143  Zr    c    -5.085317    5.082188    0.001307    0.000000    2.650000
   144  Zr    c     2.536535   -2.544346   -5.085317    0.000000    2.650000
   145  Zr    c     5.082188    0.001307   -5.085317    0.000000    2.650000
   146  Zr    c     2.536535   -5.085317   -2.544346    0.000000    2.650000
   147  Zr    c     7.623159   -2.544346    0.001307    0.000000    2.650000
   148  Zr    c     7.623159    5.082188    2.536535    0.000000    2.650000
   149  Zr    c     7.623159    2.536535    5.082188    0.000000    2.650000
   150  Zr    c     0.001307   -5.085317    5.082188    0.000000    2.650000
   151  Zr    c     5.082188    7.623159    2.536535    0.000000    2.650000
   152  Zr    c     0.001307    7.623159   -2.544346    0.000000    2.650000
   153  Zr    c     2.536535    7.623159    5.082188    0.000000    2.650000
   154  Zr    c    -5.085317    0.001307    5.082188    0.000000    2.650000
   155  Zr    c    -2.544346    7.623159    0.001307    0.000000    2.650000
   156  Zr    c     7.623159    0.001307   -2.544346    0.000000    2.650000
   157  Zr    c    -2.544346   -5.085317    2.536535    0.000000    2.650000
   158  Zr    c    -5.085317   -2.544346    2.536535    0.000000    2.650000
   159  Zr    c     0.001307   -2.544346    7.623159    0.000000    2.650000
   160  Zr    c    -2.544346    0.001307    7.623159    0.000000    2.650000
   161  O     c     6.349008    6.349008    3.805720    0.000000    0.077000
   162  O     c     6.349008    3.805720    6.349008    0.000000    0.077000
   163  O     c     3.805720    6.349008    6.349008    0.000000    0.077000
   164  O     c    -1.267878   -3.811166    6.349008    0.000000    0.077000
   165  O     c    -3.811166   -1.267878    6.349008    0.000000    0.077000
   166  O     c    -3.811166    6.349008   -1.267878    0.000000    0.077000
   167  O     c     6.349008   -3.811166   -1.267878    0.000000    0.077000
   168  O     c    -3.811166    3.805720   -3.811166    0.000000    0.077000
   169  O     c    -1.267878    6.349008   -3.811166    0.000000    0.077000
   170  O     c     3.805720   -3.811166   -3.811166    0.000000    0.077000
   171  O     c     6.349008   -1.267878   -3.811166    0.000000    0.077000
   172  O     c    -3.811166   -3.811166    3.805720    0.000000    0.077000
   173  O     c     1.268921    1.268921    8.729004    0.000000    0.077000
   174  O     c     1.268921    8.729004    1.268921    0.000000    0.077000
   175  O     c     8.729004    1.268921    1.268921    0.000000    0.077000
   176  O     c    -6.191162    1.268921    1.268921    0.000000    0.077000
   177  O     c     1.268921   -6.191162    1.268921    0.000000    0.077000
   178  O     c     1.268921    1.268921   -6.191162    0.000000    0.077000
   179  O     c    -1.271948    6.336639    6.336639    0.000000    0.077000
   180  O     c    -3.798798    6.336639    3.809790    0.000000    0.077000
   181  O     c     6.336639    6.336639   -1.271948    0.000000    0.077000
   182  O     c     6.336639   -1.271948    6.336639    0.000000    0.077000
   183  O     c     6.336639   -3.798798    3.809790    0.000000    0.077000
   184  O     c    -3.798798    3.809790    6.336639    0.000000    0.077000
   185  O     c     3.809790   -3.798798    6.336639    0.000000    0.077000
   186  O     c     3.809790    6.336639   -3.798798    0.000000    0.077000
   187  O     c     6.336639    3.809790   -3.798798    0.000000    0.077000
   188  O     c    -3.798798   -3.798798   -1.271948    0.000000    0.077000
   189  O     c    -3.798798   -1.271948   -3.798798    0.000000    0.077000
   190  O     c    -1.271948   -3.798798   -3.798798    0.000000    0.077000
   191  O     c     3.806619    1.262621    8.912061    0.000000    0.077000
   192  O     c     3.806619    8.912061    1.262621    0.000000    0.077000
   193  O     c     1.262621    3.806619    8.912061    0.000000    0.077000
   194  O     c     1.262621    8.912061    3.806619    0.000000    0.077000
   195  O     c    -6.374219    1.275221    3.806619    0.000000    0.077000
   196  O     c    -6.374219    3.806619    1.275221    0.000000    0.077000
   197  O     c     8.912061    3.806619    1.262621    0.000000    0.077000
   198  O     c     8.912061    1.262621    3.806619    0.000000    0.077000
   199  O     c     1.275221   -6.374219    3.806619    0.000000    0.077000
   200  O     c     1.275221    3.806619   -6.374219    0.000000    0.077000
   201  O     c     3.806619   -6.374219    1.275221    0.000000    0.077000
   202  O     c     3.806619    1.275221   -6.374219    0.000000    0.077000
   203  O     c     1.275221   -1.268777    8.912061    0.000000    0.077000
   204  O     c    -6.374219   -1.268777    1.262621    0.000000    0.077000
   205  O     c     1.275221    8.912061   -1.268777    0.000000    0.077000
   206  O     c    -6.374219    1.262621   -1.268777    0.000000    0.077000
   207  O     c    -1.268777    1.275221    8.912061    0.000000    0.077000
   208  O     c    -1.268777    8.912061    1.275221    0.000000    0.077000
   209  O     c    -1.268777   -6.374219    1.262621    0.000000    0.077000
   210  O     c    -1.268777    1.262621   -6.374219    0.000000    0.077000
   211  O     c     8.912061    1.275221   -1.268777    0.000000    0.077000
   212  O     c     1.262621   -6.374219   -1.268777    0.000000    0.077000
   213  O     c     8.912061   -1.268777    1.275221    0.000000    0.077000
   214  O     c     1.262621   -1.268777   -6.374219    0.000000    0.077000
   215  Zr    c     5.086257   -2.548415    7.629105    0.000000    2.650000
   216  Zr    c     5.086257    7.629105   -2.548415    0.000000    2.650000
   217  Zr    c    -5.091263   -2.548415   -2.548415    0.000000    2.650000
   218  Zr    c    -2.548415    5.086257    7.629105    0.000000    2.650000
   219  Zr    c    -2.548415    7.629105    5.086257    0.000000    2.650000
   220  Zr    c    -5.091263    5.086257    5.086257    0.000000    2.650000
   221  Zr    c     7.629105    5.086257   -2.548415    0.000000    2.650000
   222  Zr    c    -2.548415   -5.091263   -2.548415    0.000000    2.650000
   223  Zr    c     7.629105   -2.548415    5.086257    0.000000    2.650000
   224  Zr    c     5.086257   -5.091263    5.086257    0.000000    2.650000
   225  Zr    c     5.086257    5.086257   -5.091263    0.000000    2.650000
   226  Zr    c    -2.548415   -2.548415   -5.091263    0.000000    2.650000
   227  O     c     3.806591    8.876067   -1.268749    0.000000    0.077000
   228  O     c     8.876067    3.806591   -1.268749    0.000000    0.077000
   229  O     c     3.806591   -1.268749    8.876067    0.000000    0.077000
   230  O     c    -1.268749    3.806591    8.876067    0.000000    0.077000
   231  O     c    -1.268749    8.876067    3.806591    0.000000    0.077000
   232  O     c     8.876067   -1.268749    3.806591    0.000000    0.077000
   233  O     c    -6.338225    3.806591    3.806591    0.000000    0.077000
   234  O     c     3.806591   -6.338225    3.806591    0.000000    0.077000
   235  O     c     3.806591    3.806591   -6.338225    0.000000    0.077000
   236  O     c    -6.338225   -1.268749   -1.268749    0.000000    0.077000
   237  O     c    -1.268749   -6.338225   -1.268749    0.000000    0.077000
   238  O     c    -1.268749   -1.268749   -6.338225    0.000000    0.077000
   239  O     c     3.802907    8.859258    3.802907    0.000000    0.077000
   240  O     c     8.859258    3.802907    3.802907    0.000000    0.077000
   241  O     c     3.802907    3.802907    8.859258    0.000000    0.077000
   242  O     c    -1.265065   -1.265065    8.859258    0.000000    0.077000
   243  O     c    -1.265065    8.859258   -1.265065    0.000000    0.077000
   244  O     c     8.859258   -1.265065   -1.265065    0.000000    0.077000
   245  O     c    -6.321417    3.802907   -1.265065    0.000000    0.077000
   246  O     c     3.802907   -6.321417   -1.265065    0.000000    0.077000
   247  O     c    -6.321417   -1.265065    3.802907    0.000000    0.077000
   248  O     c    -1.265065   -6.321417    3.802907    0.000000    0.077000
   249  O     c    -1.265065    3.802907   -6.321417    0.000000    0.077000
   250  O     c     3.802907   -1.265065   -6.321417    0.000000    0.077000
   251  O     c    -3.813161    6.351003    6.351003    0.000000    0.077000
   252  O     c     6.351003   -3.813161    6.351003    0.000000    0.077000
   253  O     c     6.351003    6.351003   -3.813161    0.000000    0.077000
   254  O     c    -3.813161   -3.813161   -3.813161    0.000000    0.077000
   255  O     c     6.339164   -3.801323   -3.801323    0.000000    0.077000
   256  O     c    -3.801323    6.339164   -3.801323    0.000000    0.077000
   257  O     c     6.339164    6.339164    6.339164    0.000000    0.077000
   258  O     c    -3.801323   -3.801323    6.339164    0.000000    0.077000
   259  Zr    c     7.623806    7.623806   -0.004066    0.000000    2.650000
   260  Zr    c    -5.085964   -5.085964   -0.004066    0.000000    2.650000
   261  Zr    c     7.623806   -0.004066    7.623806    0.000000    2.650000
   262  Zr    c     2.541908   -5.085964    7.623806    0.000000    2.650000
   263  Zr    c     2.541908    7.623806   -5.085964    0.000000    2.650000
   264  Zr    c    -5.085964   -0.004066   -5.085964    0.000000    2.650000
   265  Zr    c    -0.004066    7.623806    7.623806    0.000000    2.650000
   266  Zr    c    -5.085964    2.541908    7.623806    0.000000    2.650000
   267  Zr    c    -5.085964    7.623806    2.541908    0.000000    2.650000
   268  Zr    c     7.623806    2.541908   -5.085964    0.000000    2.650000
   269  Zr    c    -0.004066   -5.085964   -5.085964    0.000000    2.650000
   270  Zr    c     7.623806   -5.085964    2.541908    0.000000    2.650000
   271  Zr    c     2.545716    2.545716   10.155602    0.000000    2.650000
   272  Zr    c     2.545716   10.155602    2.545716    0.000000    2.650000
   273  Zr    c    -7.617760   -0.007874    2.545716    0.000000    2.650000
   274  Zr    c    -0.007874   10.155602   -0.007874    0.000000    2.650000
   275  Zr    c    -7.617760    2.545716   -0.007874    0.000000    2.650000
   276  Zr    c    10.155602    2.545716    2.545716    0.000000    2.650000
   277  Zr    c    -0.007874   -7.617760    2.545716    0.000000    2.650000
   278  Zr    c    10.155602   -0.007874   -0.007874    0.000000    2.650000
   279  Zr    c     2.545716   -7.617760   -0.007874    0.000000    2.650000
   280  Zr    c    -0.007874   -0.007874   10.155602    0.000000    2.650000
   281  Zr    c    -0.007874    2.545716   -7.617760    0.000000    2.650000
   282  Zr    c     2.545716   -0.007874   -7.617760    0.000000    2.650000
   283  O     c     6.343412    8.870179    1.270024    0.000000    0.077000
   284  O     c     6.343412    1.270024    8.870179    0.000000    0.077000
   285  O     c     1.270024    8.870179    6.343412    0.000000    0.077000
   286  O     c     1.270024    6.343412    8.870179    0.000000    0.077000
   287  O     c     8.870179    6.343412    1.270024    0.000000    0.077000
   288  O     c     8.870179    1.270024    6.343412    0.000000    0.077000
   289  O     c     1.267818   -3.805570    8.870179    0.000000    0.077000
   290  O     c     1.267818    8.870179   -3.805570    0.000000    0.077000
   291  O     c    -3.805570    1.267818    8.870179    0.000000    0.077000
   292  O     c    -3.805570    8.870179    1.267818    0.000000    0.077000
   293  O     c     8.870179    1.267818   -3.805570    0.000000    0.077000
   294  O     c     8.870179   -3.805570    1.267818    0.000000    0.077000
   295  O     c    -6.332337    1.267818    6.343412    0.000000    0.077000
   296  O     c    -6.332337    6.343412    1.267818    0.000000    0.077000
   297  O     c     1.267818   -6.332337    6.343412    0.000000    0.077000
   298  O     c     1.267818    6.343412   -6.332337    0.000000    0.077000
   299  O     c     6.343412    1.267818   -6.332337    0.000000    0.077000
   300  O     c     6.343412   -6.332337    1.267818    0.000000    0.077000
   301  O     c    -6.332337   -3.805570    1.270024    0.000000    0.077000
   302  O     c    -6.332337    1.270024   -3.805570    0.000000    0.077000
   303  O     c    -3.805570   -6.332337    1.270024    0.000000    0.077000
   304  O     c    -3.805570    1.270024   -6.332337    0.000000    0.077000
   305  O     c     1.270024   -3.805570   -6.332337    0.000000    0.077000
   306  O     c     1.270024   -6.332337   -3.805570    0.000000    0.077000
   307  O     c     8.883092    3.805328    6.341483    0.000000    0.077000
   308  O     c    -3.803641    3.805328   -6.345251    0.000000    0.077000
   309  O     c    -6.345251    3.805328   -3.803641    0.000000    0.077000
   310  O     c    -1.267486    8.883092   -3.803641    0.000000    0.077000
   311  O     c     3.805328    8.883092    6.341483    0.000000    0.077000
   312  O     c     3.805328   -3.803641   -6.345251    0.000000    0.077000
   313  O     c     3.805328   -6.345251   -3.803641    0.000000    0.077000
   314  O     c     8.883092   -1.267486   -3.803641    0.000000    0.077000
   315  O     c     8.883092    6.341483    3.805328    0.000000    0.077000
   316  O     c    -3.803641   -6.345251    3.805328    0.000000    0.077000
   317  O     c    -1.267486    6.341483   -6.345251    0.000000    0.077000
   318  O     c     6.341483    8.883092    3.805328    0.000000    0.077000
   319  O     c    -6.345251   -3.803641    3.805328    0.000000    0.077000
   320  O     c     6.341483    3.805328    8.883092    0.000000    0.077000
   321  O     c    -1.267486   -3.803641    8.883092    0.000000    0.077000
   322  O     c     3.805328    6.341483    8.883092    0.000000    0.077000
   323  O     c    -3.803641   -1.267486    8.883092    0.000000    0.077000
   324  O     c    -6.345251    6.341483   -1.267486    0.000000    0.077000
   325  O     c    -3.803641    8.883092   -1.267486    0.000000    0.077000
   326  O     c     6.341483   -1.267486   -6.345251    0.000000    0.077000
   327  O     c     6.341483   -6.345251   -1.267486    0.000000    0.077000
   328  O     c     8.883092   -3.803641   -1.267486    0.000000    0.077000
   329  O     c    -1.267486   -6.345251    6.341483    0.000000    0.077000
   330  O     c    -6.345251   -1.267486    6.341483    0.000000    0.077000
   331  O     c     6.345372   -1.270292    8.875848    0.000000    0.077000
   332  O     c     3.808134   -3.807531    8.875848    0.000000    0.077000
   333  O     c     3.808134    8.875848   -3.807531    0.000000    0.077000
   334  O     c    -1.270292    6.345372    8.875848    0.000000    0.077000
   335  O     c    -3.807531    3.808134    8.875848    0.000000    0.077000
   336  O     c    -6.338006    3.808134    6.345372    0.000000    0.077000
   337  O     c     3.808134   -6.338006    6.345372    0.000000    0.077000
   338  O     c     8.875848    3.808134   -3.807531    0.000000    0.077000
   339  O     c     6.345372    8.875848   -1.270292    0.000000    0.077000
   340  O     c    -6.338006   -3.807531   -1.270292    0.000000    0.077000
   341  O     c    -1.270292    8.875848    6.345372    0.000000    0.077000
   342  O     c    -3.807531    8.875848    3.808134    0.000000    0.077000
   343  O     c    -6.338006    6.345372    3.808134    0.000000    0.077000
   344  O     c     8.875848    6.345372   -1.270292    0.000000    0.077000
   345  O     c    -3.807531   -6.338006   -1.270292    0.000000    0.077000
   346  O     c    -3.807531   -1.270292   -6.338006    0.000000    0.077000
   347  O     c     3.808134    6.345372   -6.338006    0.000000    0.077000
   348  O     c     8.875848   -3.807531    3.808134    0.000000    0.077000
   349  O     c     6.345372   -6.338006    3.808134    0.000000    0.077000
   350  O     c    -1.270292   -3.807531   -6.338006    0.000000    0.077000
   351  O     c     6.345372    3.808134   -6.338006    0.000000    0.077000
   352  O     c    -6.338006   -1.270292   -3.807531    0.000000    0.077000
   353  O     c     8.875848   -1.270292    6.345372    0.000000    0.077000
   354  O     c    -1.270292   -6.338006   -3.807531    0.000000    0.077000
   355  Zr    c     7.619603    7.619603    5.075263    0.000000    2.650000
   356  Zr    c     7.619603    5.075263    7.619603    0.000000    2.650000
   357  Zr    c    -5.081762    5.075263   -5.081762    0.000000    2.650000
   358  Zr    c    -2.537421    7.619603   -5.081762    0.000000    2.650000
   359  Zr    c     5.075263    7.619603    7.619603    0.000000    2.650000
   360  Zr    c     5.075263   -5.081762   -5.081762    0.000000    2.650000
   361  Zr    c     7.619603   -2.537421   -5.081762    0.000000    2.650000
   362  Zr    c     7.619603   -5.081762   -2.537421    0.000000    2.650000
   363  Zr    c    -5.081762    7.619603   -2.537421    0.000000    2.650000
   364  Zr    c    -5.081762   -5.081762    5.075263    0.000000    2.650000
   365  Zr    c    -2.537421   -5.081762    7.619603    0.000000    2.650000
   366  Zr    c    -5.081762   -2.537421    7.619603    0.000000    2.650000
   367  Zr    c     5.074966    0.002494   10.155818    0.000000    2.650000
   368  Zr    c     5.074966   10.155818    0.002494    0.000000    2.650000
   369  Zr    c     2.535348   10.155818   -2.537124    0.000000    2.650000
   370  Zr    c    -7.617976    0.002494   -2.537124    0.000000    2.650000
   371  Zr    c     0.002494    5.074966   10.155818    0.000000    2.650000
   372  Zr    c     0.002494   10.155818    5.074966    0.000000    2.650000
   373  Zr    c    -7.617976    2.535348    5.074966    0.000000    2.650000
   374  Zr    c    -2.537124   10.155818    2.535348    0.000000    2.650000
   375  Zr    c    -7.617976    5.074966    2.535348    0.000000    2.650000
   376  Zr    c    10.155818    5.074966    0.002494    0.000000    2.650000
   377  Zr    c    10.155818    0.002494    5.074966    0.000000    2.650000
   378  Zr    c     2.535348   -7.617976    5.074966    0.000000    2.650000
   379  Zr    c    10.155818    2.535348   -2.537124    0.000000    2.650000
   380  Zr    c     0.002494   -7.617976   -2.537124    0.000000    2.650000
   381  Zr    c    10.155818   -2.537124    2.535348    0.000000    2.650000
   382  Zr    c     5.074966   -7.617976    2.535348    0.000000    2.650000
   383  Zr    c     2.535348   -2.537124   10.155818    0.000000    2.650000
   384  Zr    c    -7.617976   -2.537124    0.002494    0.000000    2.650000
   385  Zr    c    -2.537124    2.535348   10.155818    0.000000    2.650000
   386  Zr    c    -2.537124   -7.617976    0.002494    0.000000    2.650000
   387  Zr    c    -2.537124    0.002494   -7.617976    0.000000    2.650000
   388  Zr    c     2.535348    5.074966   -7.617976    0.000000    2.650000
   389  Zr    c     0.002494   -2.537124   -7.617976    0.000000    2.650000
   390  Zr    c     5.074966    2.535348   -7.617976    0.000000    2.650000
   391  O     c     1.268921    1.268921   11.347343    0.000000    0.077000
   392  O     c     1.268921   11.347343    1.268921    0.000000    0.077000
   393  O     c    -8.809501    1.268921    1.268921    0.000000    0.077000
   394  O     c    11.347343    1.268921    1.268921    0.000000    0.077000
   395  O     c     1.268921   -8.809501    1.268921    0.000000    0.077000
   396  O     c     1.268921    1.268921   -8.809501    0.000000    0.077000
   397  Zr    c    10.154726    5.080998    5.080998    0.000000    2.650000
   398  Zr    c     5.080998   10.154726    5.080998    0.000000    2.650000
   399  Zr    c     5.080998    5.080998   10.154726    0.000000    2.650000
   400  Zr    c    10.154726   -2.543156   -2.543156    0.000000    2.650000
   401  Zr    c     5.080998   -7.616884   -2.543156    0.000000    2.650000
   402  Zr    c    -2.543156   -7.616884    5.080998    0.000000    2.650000
   403  Zr    c    -2.543156    5.080998   -7.616884    0.000000    2.650000
   404  Zr    c    -7.616884   -2.543156    5.080998    0.000000    2.650000
   405  Zr    c    -2.543156   10.154726   -2.543156    0.000000    2.650000
   406  Zr    c    -7.616884    5.080998   -2.543156    0.000000    2.650000
   407  Zr    c     5.080998   -2.543156   -7.616884    0.000000    2.650000
   408  Zr    c    -2.543156   -2.543156   10.154726    0.000000    2.650000
   409  O     c     8.882702    6.341769    6.341769    0.000000    0.077000
   410  O     c     6.341769    8.882702    6.341769    0.000000    0.077000
   411  O     c     6.341769    6.341769    8.882702    0.000000    0.077000
   412  O     c    -3.803927    6.341769   -6.344860    0.000000    0.077000
   413  O     c    -3.803927   -3.803927    8.882702    0.000000    0.077000
   414  O     c    -3.803927    8.882702   -3.803927    0.000000    0.077000
   415  O     c     6.341769   -3.803927   -6.344860    0.000000    0.077000
   416  O     c     8.882702   -3.803927   -3.803927    0.000000    0.077000
   417  O     c    -3.803927   -6.344860    6.341769    0.000000    0.077000
   418  O     c    -6.344860   -3.803927    6.341769    0.000000    0.077000
   419  O     c    -6.344860    6.341769   -3.803927    0.000000    0.077000
   420  O     c     6.341769   -6.344860   -3.803927    0.000000    0.077000
   421  O     c    -3.803939    6.341780    8.884526    0.000000    0.077000
   422  O     c     6.341780   -3.803939    8.884526    0.000000    0.077000
   423  O     c    -3.803939    8.884526    6.341780    0.000000    0.077000
   424  O     c     6.341780    8.884526   -3.803939    0.000000    0.077000
   425  O     c     8.884526    6.341780   -3.803939    0.000000    0.077000
   426  O     c     8.884526   -3.803939    6.341780    0.000000    0.077000
   427  O     c    -6.346684    6.341780    6.341780    0.000000    0.077000
   428  O     c     6.341780   -6.346684    6.341780    0.000000    0.077000
   429  O     c     6.341780    6.341780   -6.346684    0.000000    0.077000
   430  O     c    -6.346684   -3.803939   -3.803939    0.000000    0.077000
   431  O     c    -3.803939   -6.346684   -3.803939    0.000000    0.077000
   432  O     c    -3.803939   -3.803939   -6.346684    0.000000    0.077000
   433  O     c     3.804890    1.272111   11.434256    0.000000    0.077000
   434  O     c     1.265731   -1.267048   11.434256    0.000000    0.077000
   435  O     c     3.804890   11.434256    1.272111    0.000000    0.077000
   436  O     c     1.265731   11.434256   -1.267048    0.000000    0.077000
   437  O     c     1.272111    3.804890   11.434256    0.000000    0.077000
   438  O     c    -1.267048    1.265731   11.434256    0.000000    0.077000
   439  O     c     1.272111   11.434256    3.804890    0.000000    0.077000
   440  O     c    -1.267048   11.434256    1.265731    0.000000    0.077000
   441  O     c    11.434256    3.804890    1.272111    0.000000    0.077000
   442  O     c    11.434256    1.272111    3.804890    0.000000    0.077000
   443  O     c    11.434256    1.265731   -1.267048    0.000000    0.077000
   444  O     c    11.434256   -1.267048    1.265731    0.000000    0.077000
   445  O     c    -8.896414   -1.267048    1.272111    0.000000    0.077000
   446  O     c    -8.896414    1.272111   -1.267048    0.000000    0.077000
   447  O     c    -8.896414    1.265731    3.804890    0.000000    0.077000
   448  O     c    -8.896414    3.804890    1.265731    0.000000    0.077000
   449  O     c    -1.267048   -8.896414    1.272111    0.000000    0.077000
   450  O     c     1.265731   -8.896414    3.804890    0.000000    0.077000
   451  O     c    -1.267048    1.272111   -8.896414    0.000000    0.077000
   452  O     c     1.265731    3.804890   -8.896414    0.000000    0.077000
   453  O     c     1.272111   -8.896414   -1.267048    0.000000    0.077000
   454  O     c     3.804890   -8.896414    1.265731    0.000000    0.077000
   455  O     c     1.272111   -1.267048   -8.896414    0.000000    0.077000
   456  O     c     3.804890    1.265731   -8.896414    0.000000    0.077000
   457  O     c     8.880695    8.880695    1.265716    0.000000    0.077000
   458  O     c    -6.342853   -6.342853    1.265716    0.000000    0.077000
   459  O     c     8.880695    1.265716    8.880695    0.000000    0.077000
   460  O     c     1.272126   -6.342853    8.880695    0.000000    0.077000
   461  O     c    -6.342853    1.265716   -6.342853    0.000000    0.077000
   462  O     c     1.272126    8.880695   -6.342853    0.000000    0.077000
   463  O     c     1.265716    8.880695    8.880695    0.000000    0.077000
   464  O     c    -6.342853    1.272126    8.880695    0.000000    0.077000
   465  O     c    -6.342853    8.880695    1.272126    0.000000    0.077000
   466  O     c     1.265716   -6.342853   -6.342853    0.000000    0.077000
   467  O     c     8.880695    1.272126   -6.342853    0.000000    0.077000
[...]
     20 y         -2.537842     -2.548415    -0.010573    Cartesian    0.42
     20 z          7.613525      7.629105     0.015580    Cartesian    0.20
     21 x          3.806763      3.806591    -0.000172    Cartesian   -0.00
     21 y          8.882446      8.876067    -0.006379    Cartesian   -0.07
     21 z         -1.268921     -1.268749     0.000172    Cartesian   -0.01
     22 x          3.806763      3.802907    -0.003856    Cartesian   -0.10
     22 y          8.882446      8.859258    -0.023188    Cartesian   -0.26
     22 z          3.806763      3.802907    -0.003856    Cartesian   -0.10
     23 x         -3.806763     -3.813161    -0.006398    Cartesian    0.17
     23 y          6.344605      6.351003     0.006398    Cartesian    0.10
     23 z          6.344605      6.351003     0.006398    Cartesian    0.10
     24 x          6.344605      6.339164    -0.005440    Cartesian   -0.09
     24 y         -3.806763     -3.801323     0.005440    Cartesian   -0.14
     24 z         -3.806763     -3.801323     0.005440    Cartesian   -0.14
     25 x          7.613525      7.623806     0.010280    Cartesian    0.14
     25 y          7.613525      7.623806     0.010280    Cartesian    0.14
     25 z          0.000000     -0.004066    -0.004066    Cartesian    0.00
     26 x          2.537842      2.545716     0.007874    Cartesian    0.31
     26 y          2.537842      2.545716     0.007874    Cartesian    0.31
     26 z         10.151367     10.155602     0.004235    Cartesian    0.04
     27 x          6.344605      6.343412    -0.001193    Cartesian   -0.02
     27 y          8.882446      8.870179    -0.012267    Cartesian   -0.14
     27 z          1.268921      1.270024     0.001103    Cartesian    0.09
     28 x          8.882446      8.883092     0.000646    Cartesian    0.01
     28 y          3.806763      3.805328    -0.001435    Cartesian   -0.04
     28 z          6.344605      6.341483    -0.003122    Cartesian   -0.05
     29 x          6.344605      6.345372     0.000768    Cartesian    0.01
     29 y         -1.268921     -1.270292    -0.001371    Cartesian    0.11
     29 z          8.882446      8.875848    -0.006598    Cartesian   -0.07
     30 x          7.613525      7.619603     0.006078    Cartesian    0.08
     30 y          7.613525      7.619603     0.006078    Cartesian    0.08
     30 z          5.075684      5.075263    -0.000421    Cartesian   -0.01
     31 x          5.075684      5.074966    -0.000718    Cartesian   -0.01
     31 y         -0.000000      0.002494     0.002494    Cartesian *******
     31 z         10.151367     10.155818     0.004450    Cartesian    0.04
     32 x          1.268921      1.268921     0.000000    Cartesian    0.00
     32 y          1.268921      1.268921     0.000000    Cartesian    0.00
     32 z         11.420288     11.347343    -0.072945    Cartesian   -0.64
     33 x         10.151367     10.154726     0.003359    Cartesian    0.03
     33 y          5.075684      5.080998     0.005314    Cartesian    0.10
     33 z          5.075684      5.080998     0.005314    Cartesian    0.10
     34 x          8.882446      8.882702     0.000256    Cartesian    0.00
     34 y          6.344605      6.341769    -0.002836    Cartesian   -0.04
     34 z          6.344605      6.341769    -0.002836    Cartesian   -0.04
     35 x         -3.806763     -3.803939     0.002824    Cartesian   -0.07
     35 y          6.344605      6.341780    -0.002824    Cartesian   -0.04
     35 z          8.882446      8.884526     0.002080    Cartesian    0.02
     36 x          3.806763      3.804890    -0.001873    Cartesian   -0.05
     36 y          1.268921      1.272111     0.003190    Cartesian    0.25
     36 z         11.420288     11.434256     0.013968    Cartesian    0.12
     37 x          8.882446      8.880695    -0.001751    Cartesian   -0.02
     37 y          8.882446      8.880695    -0.001751    Cartesian   -0.02
     37 z          1.268921      1.265716    -0.003205    Cartesian   -0.25
     38 x          3.806763      3.803995    -0.002768    Cartesian   -0.07
     38 y         -1.268921     -1.266153     0.002768    Cartesian   -0.22
     38 z         11.420288     11.421251     0.000963    Cartesian    0.01
     39 x          3.806763      3.804091    -0.002671    Cartesian   -0.07
     39 y          3.806763      3.804091    -0.002671    Cartesian   -0.07
     39 z         11.420288     11.402381    -0.017907    Cartesian   -0.16
     40 x         -5.075684     -5.080478    -0.004795    Cartesian    0.09
     40 y          7.613525      7.618320     0.004795    Cartesian    0.06
     40 z          7.613525      7.618320     0.004795    Cartesian    0.06
     41 x         10.151367     10.158068     0.006700    Cartesian    0.07
     41 y          7.613525      7.617601     0.004076    Cartesian    0.05
     41 z          2.537842      2.538828     0.000986    Cartesian    0.04
     42 x          8.882446      8.880413    -0.002033    Cartesian   -0.02
     42 y          8.882446      8.880413    -0.002033    Cartesian   -0.02
     42 z          3.806763      3.804965    -0.001798    Cartesian   -0.05
     43 x         -1.268921     -1.265116     0.003805    Cartesian   -0.30
     43 y          8.882446      8.881047    -0.001400    Cartesian   -0.02
     43 z          8.882446      8.881047    -0.001400    Cartesian   -0.02
     44 x          6.344605      6.343870    -0.000734    Cartesian   -0.01
     44 y          1.268921      1.268779    -0.000141    Cartesian   -0.01
     44 z         11.420288     11.410449    -0.009839    Cartesian   -0.09
     45 x          7.613525      7.618634     0.005109    Cartesian    0.07
     45 y         -2.537842     -2.540983    -0.003141    Cartesian    0.12
     45 z         10.151367     10.160041     0.008673    Cartesian    0.09
     46 x          2.537842      2.546648     0.008806    Cartesian    0.35
     46 y         -0.000000     -0.008806    -0.008806    Cartesian *******
     46 z         12.689209     12.698825     0.009616    Cartesian    0.08
     47 x          6.344605      6.341292    -0.003312    Cartesian   -0.05
     47 y         -1.268921     -1.267755     0.001166    Cartesian   -0.09
     47 z         11.420288     11.414406    -0.005882    Cartesian   -0.05
     48 x          6.344605      6.341433    -0.003172    Cartesian   -0.05
     48 y         11.420288     11.415422    -0.004866    Cartesian   -0.04
     48 z          3.806763      3.806024    -0.000739    Cartesian   -0.02
     49 x          8.882446      8.874665    -0.007782    Cartesian   -0.09
     49 y          8.882446      8.874665    -0.007782    Cartesian   -0.09
     49 z          6.344605      6.338438    -0.006166    Cartesian   -0.10
     50 x         -3.806763     -3.805463     0.001299    Cartesian   -0.03
     50 y          8.882446      8.880084    -0.002362    Cartesian   -0.03
     50 z          8.882446      8.880084    -0.002362    Cartesian   -0.03
     51 x          2.537842      2.592543     0.054702    Cartesian    2.16
     51 y          0.000000     -0.054702    -0.054702    Cartesian    0.00
     51 z          2.537842      2.592543     0.054702    Cartesian    2.16
     52 x          1.268921      1.268921     0.000000    Cartesian    0.00
     52 y          3.806763      3.398447    -0.408316    Cartesian  -10.73
     52 z          1.268921      1.268921     0.000000    Cartesian    0.00
     53 x          3.806763      3.846348     0.039585    Cartesian    1.04
     53 y          3.806763      3.846348     0.039585    Cartesian    1.04
     53 z          1.268921      1.235521    -0.033400    Cartesian   -2.63
     54 x          2.537842      2.561446     0.023604    Cartesian    0.93
     54 y          2.537842      2.561446     0.023604    Cartesian    0.93
     54 z          5.075684      5.084586     0.008903    Cartesian    0.18
     55 x          3.806763      3.781050    -0.025713    Cartesian   -0.68
     55 y          3.806763      3.781050    -0.025713    Cartesian   -0.68
     55 z          3.806763      3.781050    -0.025713    Cartesian   -0.68
     56 x         -1.268921     -1.285653    -0.016732    Cartesian    1.32
     56 y          3.806763      3.823495     0.016732    Cartesian    0.44
     56 z          3.806763      3.823495     0.016732    Cartesian    0.44
     57 x          1.268921      1.268921     0.000000    Cartesian    0.00
     57 y          1.268921      1.268921     0.000000    Cartesian    0.00
     57 z          6.344605      6.066065    -0.278539    Cartesian   -4.39
     58 x          5.075684      5.095021     0.019337    Cartesian    0.38
     58 y          0.000000     -0.008984    -0.008984    Cartesian    0.00
     58 z          5.075684      5.095021     0.019337    Cartesian    0.38
     59 x          3.806763      3.789421    -0.017342    Cartesian   -0.46
     59 y          6.344605      6.384930     0.040325    Cartesian    0.64
     59 z          1.268921      1.287913     0.018992    Cartesian    1.50
     60 x          6.344605      6.305941    -0.038663    Cartesian   -0.61
     60 y          3.806763      3.808149     0.001386    Cartesian    0.04
     60 z          3.806763      3.808149     0.001386    Cartesian    0.04
     61 x          3.806763      3.795308    -0.011455    Cartesian   -0.30
     61 y         -1.268921     -1.257466     0.011455    Cartesian   -0.90
     61 z          6.344605      6.351150     0.006546    Cartesian    0.10
     62 x         -5.075684     -5.073988     0.001695    Cartesian   -0.03
     62 y          2.537842      2.550007     0.012165    Cartesian    0.48
     62 z          2.537842      2.550007     0.012165    Cartesian    0.48
     63 x          5.075684      5.090011     0.014328    Cartesian    0.28
     63 y          5.075684      5.090011     0.014328    Cartesian    0.28
     63 z          5.075684      5.090011     0.014328    Cartesian    0.28
     64 x          6.344605      6.329662    -0.014942    Cartesian   -0.24
     64 y          6.344605      6.329662    -0.014942    Cartesian   -0.24
     64 z          1.268921      1.260909    -0.008012    Cartesian   -0.63
     65 x          5.075684      5.081275     0.005591    Cartesian    0.11
     65 y         -5.075684     -5.083975    -0.008292    Cartesian    0.16
     65 z          0.000000      0.000603     0.000603    Cartesian *******
     66 x          6.344605      6.349017     0.004412    Cartesian    0.07
     66 y          6.344605      6.349017     0.004412    Cartesian    0.07
     66 z          3.806763      3.805874    -0.000889    Cartesian   -0.02
     67 x          1.268921      1.268921     0.000000    Cartesian    0.00
     67 y          1.268921      1.268921     0.000000    Cartesian    0.00
     67 z          8.882446      8.725483    -0.156963    Cartesian   -1.77
     68 x         -1.268921     -1.271449    -0.002528    Cartesian    0.20
     68 y          6.344605      6.335962    -0.008642    Cartesian   -0.14
     68 z          6.344605      6.335962    -0.008642    Cartesian   -0.14
     69 x          3.806763      3.806770     0.000007    Cartesian    0.00
     69 y          1.268921      1.262514    -0.006407    Cartesian   -0.50
     69 z          8.882446      8.912858     0.030412    Cartesian    0.34
     70 x          5.075684      5.084874     0.009190    Cartesian    0.18
     70 y         -2.537842     -2.547032    -0.009190    Cartesian    0.36
     70 z          7.613525      7.626278     0.012753    Cartesian    0.17
     71 x          3.806763      3.806362    -0.000401    Cartesian   -0.01
     71 y          8.882446      8.875684    -0.006763    Cartesian   -0.08
     71 z         -1.268921     -1.268520     0.000401    Cartesian   -0.03
     72 x          3.806763      3.802660    -0.004102    Cartesian   -0.11
     72 y          8.882446      8.858682    -0.023764    Cartesian   -0.27
     72 z          3.806763      3.802660    -0.004102    Cartesian   -0.11
     73 x         -3.806763     -3.813280    -0.006517    Cartesian    0.17
     73 y          6.344605      6.351121     0.006517    Cartesian    0.10
     73 z          6.344605      6.351121     0.006517    Cartesian    0.10
     74 x          6.344605      6.338512    -0.006093    Cartesian   -0.10
     74 y         -3.806763     -3.800670     0.006093    Cartesian   -0.16
     74 z         -3.806763     -3.800670     0.006093    Cartesian   -0.16
     75 x          7.613525      7.621593     0.008068    Cartesian    0.11
     75 y          7.613525      7.621593     0.008068    Cartesian    0.11
     75 z          0.000000     -0.003595    -0.003595    Cartesian    0.00
     76 x          2.537842      2.542983     0.005141    Cartesian    0.20
     76 y          2.537842      2.542983     0.005141    Cartesian    0.20
     76 z         10.151367     10.151729     0.000361    Cartesian    0.00
     77 x          6.344605      6.343173    -0.001431    Cartesian   -0.02
     77 y          8.882446      8.869712    -0.012734    Cartesian   -0.14
     77 z          1.268921      1.270176     0.001256    Cartesian    0.10
     78 x          8.882446      8.882932     0.000486    Cartesian    0.01
     78 y          3.806763      3.805233    -0.001530    Cartesian   -0.04
     78 z          6.344605      6.341272    -0.003332    Cartesian   -0.05
     79 x          6.344605      6.345291     0.000686    Cartesian    0.01
     79 y         -1.268921     -1.270396    -0.001475    Cartesian    0.12
     79 z          8.882446      8.875416    -0.007030    Cartesian   -0.08
     80 x          7.613525      7.618407     0.004882    Cartesian    0.06
     80 y          7.613525      7.618407     0.004882    Cartesian    0.06
     80 z          5.075684      5.075141    -0.000543    Cartesian   -0.01
     81 x          5.075684      5.075450    -0.000233    Cartesian   -0.00
     81 y         -0.000000      0.001547     0.001547    Cartesian *******
     81 z         10.151367     10.155429     0.004061    Cartesian    0.04
     82 x          1.268921      1.268921     0.000000    Cartesian    0.00
     82 y          1.268921      1.268921     0.000000    Cartesian    0.00
     82 z         11.420288     11.345336    -0.074952    Cartesian   -0.66
     83 x         10.151367     10.153619     0.002252    Cartesian    0.02
     83 y          5.075684      5.079899     0.004215    Cartesian    0.08
     83 z          5.075684      5.079899     0.004215    Cartesian    0.08
     84 x          8.882446      8.882847     0.000401    Cartesian    0.00
     84 y          6.344605      6.341663    -0.002941    Cartesian   -0.05
     84 z          6.344605      6.341663    -0.002941    Cartesian   -0.05
     85 x         -3.806763     -3.803557     0.003205    Cartesian   -0.08
     85 y          6.344605      6.341399    -0.003205    Cartesian   -0.05
     85 z          8.882446      8.884210     0.001764    Cartesian    0.02
     86 x          3.806763      3.805049    -0.001714    Cartesian   -0.05
     86 y          1.268921      1.272221     0.003300    Cartesian    0.26
     86 z         11.420288     11.434537     0.014249    Cartesian    0.12
     87 x          8.882446      8.880592    -0.001854    Cartesian   -0.02
     87 y          8.882446      8.880592    -0.001854    Cartesian   -0.02
     87 z          1.268921      1.265427    -0.003494    Cartesian   -0.28
     88 x          3.806763      3.803900    -0.002863    Cartesian   -0.08
     88 y         -1.268921     -1.266058     0.002863    Cartesian   -0.23
     88 z         11.420288     11.421328     0.001040    Cartesian    0.01
     89 x          3.806763      3.803871    -0.002892    Cartesian   -0.08
     89 y          3.806763      3.803871    -0.002892    Cartesian   -0.08
     89 z         11.420288     11.401875    -0.018413    Cartesian   -0.16
     90 x         -5.075684     -5.080146    -0.004462    Cartesian    0.09
     90 y          7.613525      7.617988     0.004462    Cartesian    0.06
     90 z          7.613525      7.617988     0.004462    Cartesian    0.06
     91 x         10.151367     10.156866     0.005499    Cartesian    0.05
     91 y          7.613525      7.617234     0.003708    Cartesian    0.05
     91 z          2.537842      2.538516     0.000674    Cartesian    0.03
     92 x          8.882446      8.880313    -0.002133    Cartesian   -0.02
     92 y          8.882446      8.880313    -0.002133    Cartesian   -0.02
     92 z          3.806763      3.805061    -0.001702    Cartesian   -0.04
     93 x         -1.268921     -1.264713     0.004208    Cartesian   -0.33
     93 y          8.882446      8.880883    -0.001563    Cartesian   -0.02
     93 z          8.882446      8.880883    -0.001563    Cartesian   -0.02
     94 x          6.344605      6.343820    -0.000785    Cartesian   -0.01
     94 y          1.268921      1.268736    -0.000185    Cartesian   -0.01
     94 z         11.420288     11.410169    -0.010119    Cartesian   -0.09
     95 x          7.613525      7.618151     0.004626    Cartesian    0.06
     95 y         -2.537842     -2.540408    -0.002566    Cartesian    0.10
     95 z         10.151367     10.158949     0.007581    Cartesian    0.07
     96 x          2.537842      2.543606     0.005764    Cartesian    0.23
     96 y         -0.000000     -0.005764    -0.005764    Cartesian *******
     96 z         12.689209     12.697019     0.007810    Cartesian    0.06
     97 x          6.344605      6.341206    -0.003398    Cartesian   -0.05
     97 y         -1.268921     -1.267707     0.001214    Cartesian   -0.10
     97 z         11.420288     11.414283    -0.006005    Cartesian   -0.05
     98 x          6.344605      6.341394    -0.003211    Cartesian   -0.05
     98 y         11.420288     11.415291    -0.004998    Cartesian   -0.04
     98 z          3.806763      3.806029    -0.000734    Cartesian   -0.02
     99 x          8.882446      8.874383    -0.008064    Cartesian   -0.09
     99 y          8.882446      8.874383    -0.008064    Cartesian   -0.09
     99 z          6.344605      6.338168    -0.006437    Cartesian   -0.10
    100 x         -3.806763     -3.805536     0.001227    Cartesian   -0.03
    100 y          8.882446      8.880054    -0.002392    Cartesian   -0.03
    100 z          8.882446      8.880054    -0.002392    Cartesian   -0.03
--------------------------------------------------------------------------------


  Time to end of optimisation  =       14.6234 seconds


  Peak dynamic memory used =     300.61 MB 


  Timing analysis for GULP :

--------------------------------------------------------------------------------
  Task / Subroutine                                          Time (Seconds)
--------------------------------------------------------------------------------
  Calculation of reciprocal space energy and derivatives          0.0003
  Calculation of reciprocal space energy using symmetry           0.0006
  Calculation of real space energy and derivatives                0.0029
  Calculation of real space energy using symmetry                 0.0145
  Calculation for region 1 energy and derivatives (2-b)           5.4918
  Calculation for region 2a energy                                8.4962
  Calculation for region 2b energy                                0.0002
  Calculation and manipulation of Hessian matrix                  0.1954
  Calculation of matrix inversion                                 0.0060
  Symmetry generation of equivalent positions                     0.0067
--------------------------------------------------------------------------------
  Total CPU time                                                 14.6235
--------------------------------------------------------------------------------


  Dump file written as ZrO2.grs


  Job Finished at 10:33.45  6th October    2020                               

