********************************************************************************
*                       GENERAL UTILITY LATTICE PROGRAM                        *
*                                 Julian Gale                                  *
*                       Curtin Institute for Computation                       *
*                    School of Molecular and Life Sciences                     *
*                    Curtin University, Western Australia                      *
********************************************************************************
* Version = 5.2.0 * Last modified =  10th September 2020                       *
********************************************************************************
* Zirconia doped with calcium                                                  *
*  optimise     - perform optimisation run                                     *
*  conp         - constant pressure calculation                                *
*  property     - calculate properties for final geometry                      *
*  defect       - perform defect calculation after bulk run                    *
*  distance     - calculate distances                                          *
*  compare      - compare initial and final structures                         *
********************************************************************************
* Zirconia doped with calcium                                                  *
********************************************************************************


  Job Started  at 13:16.02  6th October    2020                               

  Number of CPUs =     1


  Total number of configurations input =      1

********************************************************************************
*  Input for Configuration =   1 : ZrO2                                        *
********************************************************************************

  Formula = ZrO2                                                        

  Number of irreducible atoms/shells =       4


  Total number atoms/shells =       6

  Dimensionality = 3               :  Bulk   


  Symmetry :

  Crystal family                   :  Cubic       
  Crystal class  (Groth - 1921)    :  Cubic Hexakisoctahedral              

  Space group (centrosymmetric)    :  F M 3 M         

  Patterson group                  :  F m -3 m 

  Cartesian lattice vectors (Angstroms) :

        0.000000    2.535000    2.535000
        2.535000    0.000000    2.535000
        2.535000    2.535000    0.000000

  Primitive cell parameters :            Full cell parameters :

  a =   3.5850    alpha =  60.0000       a =   5.0700    alpha =  90.0000
  b =   3.5850    beta  =  60.0000       b =   5.0700    beta  =  90.0000
  c =   3.5850    gamma =  60.0000       c =   5.0700    gamma =  90.0000

  Initial volumes (Angstroms**3):

  Primitive cell =          32.580961    Full cell =         130.323843

  Temperature of configuration =   0.00     K 

  Pressure of configuration =         0.000 GPa 

  Fractional coordinates of asymmetric unit :

--------------------------------------------------------------------------------
   No.  Atomic       x           y          z         Charge      Occupancy
        Label      (Frac)      (Frac)     (Frac)        (e)         (Frac)  
--------------------------------------------------------------------------------
      1 Zr    c    0.000000    0.000000    0.000000     2.65000    1.000000    
      2 O     c    0.250000    0.250000    0.250000     0.07700    1.000000    
      3 Zr    s    0.000000    0.000000    0.000000     1.35000    1.000000    
      4 O     s    0.250000    0.250000    0.250000    -2.07700    1.000000    
--------------------------------------------------------------------------------


  Constraints : 

--------------------------------------------------------------------------------
  Constraint no.      Unconstrained     Constrained    Coefficient    Offset
                         Variable         Variable
--------------------------------------------------------------------------------
           1              Strain 1        Strain 2       1.00000      0.0000
           2              Strain 1        Strain 3       1.00000      0.0000
--------------------------------------------------------------------------------


  Distance calculation :


  Cutoff for distances  =      4.000000 Angstroms

--------------------------------------------------------------------------------
  Asymmetric unit site  Full lattice sites    No.  Distance      No.  Distance
      No.   At.No.            At.No.                (Angs)             (Angs) 
--------------------------------------------------------------------------------
       1   Zr    core        Zr    core        12    3.5850
                             Zr    shell       12    3.5850
                             O     core         8    2.1954
                             O     shell        8    2.1954
--------------------------------------------------------------------------------
       2   O     core        Zr    core         4    2.1954
                             Zr    shell        4    2.1954
                             O     core         6    2.5350       12    3.5850
                             O     shell        6    2.5350       12    3.5850
--------------------------------------------------------------------------------
       3   Zr    shell       Zr    core        12    3.5850
                             Zr    shell       12    3.5850
                             O     core         8    2.1954
                             O     shell        8    2.1954
--------------------------------------------------------------------------------
       4   O     shell       Zr    core         4    2.1954
                             Zr    shell        4    2.1954
                             O     core         6    2.5350       12    3.5850
                             O     shell        6    2.5350       12    3.5850
--------------------------------------------------------------------------------



********************************************************************************
*  General input information                                                   *
********************************************************************************

  Species output for all configurations : 

--------------------------------------------------------------------------------
  Species    Type    Atomic    Atomic    Charge       Radii (Angs)     Library
                     Number     Mass       (e)     Cova   Ionic  VDW   Symbol
--------------------------------------------------------------------------------
    Zr       Core       40      91.22   2.650000   1.560  0.000  2.330          
    Zr       Shell      40       0.00   1.350000   1.560  0.000  2.330          
    O        Core        8      16.00   0.077000   0.730  0.000  1.360          
    O        Shell       8       0.00  -2.077000   0.730  0.000  1.360          
--------------------------------------------------------------------------------


  Lattice summation method               =    Ewald          (3-D)
                                         =    Parry          (2-D)
                                         =    Saunders et al (1-D)
  Accuracy factor for lattice sums       =   12.000


  Analytic derivatives to be used

  Time limit = Infinity

  Maximum range for interatomic potentials =    100000.000000 Angstroms

  General interatomic potentials :

--------------------------------------------------------------------------------
Atom  Types   Potential      Parameter       Value         Units   Cutoffs(Ang)
  1     2                                                            Min /  Max 
--------------------------------------------------------------------------------
O    s Zr   s Buckingham    Buckingham A     985.86900    eV        0.000 12.000
                            Buckingham rho  0.37600000    Ang       
                            Buckingham C     0.0000000    eV*Ang^6  
--------------------------------------------------------------------------------
O    s O    s Buckingham    Buckingham A     22764.300    eV        0.000 12.000
                            Buckingham rho  0.14900000    Ang       
                            Buckingham C     27.890000    eV*Ang^6  
--------------------------------------------------------------------------------
Zr   c Zr   s Spring (c-s)  Spring k 2       169.61700    eV*Ang^-2 0.000  0.800
                            Spring k 4       0.0000000    eV*Ang^-4 
--------------------------------------------------------------------------------
O    c O    s Spring (c-s)  Spring k 2       27.290000    eV*Ang^-2 0.000  0.800
                            Spring k 4       0.0000000    eV*Ang^-4 
--------------------------------------------------------------------------------

********************************************************************************
*  Output for configuration   1 : ZrO2                                         *
********************************************************************************


  Components of energy : 

--------------------------------------------------------------------------------
  Interatomic potentials     =          22.43756329 eV    
  Monopole - monopole (real) =         -15.67991073 eV    
  Monopole - monopole (recip)=        -116.52038266 eV    
  Monopole - monopole (total)=        -132.20029339 eV    
--------------------------------------------------------------------------------
  Total lattice energy : 
    Primitive unit cell      =        -109.76273010 eV    
    Non-primitive unit cell  =        -439.05092039 eV    
--------------------------------------------------------------------------------
  Total lattice energy (in kJmol-1): 
    Primitive unit cell      =          -10590.4256 kJ/(mole unit cells)
    Non-primitive unit cell  =          -42361.7023 kJ/(mole unit cells)
--------------------------------------------------------------------------------


  Number of variables =        1

  Maximum number of calculations  =          1000
  Maximum Hessian update interval =            10
  Maximum step size               =   1.000000000
  Maximum parameter tolerance     =   0.000010000
  Maximum function  tolerance     =   0.000010000
  Maximum gradient  tolerance     =   0.001000000
  Maximum gradient  component     =   0.010000000

  Symmetry constrained optimisation

  Symmetry used for second derivatives

  Cell parameters to be optimised using strains

  Newton-Raphson optimiser to be used

  BFGS hessian update to be used

  Lower half triangular hessian to be used

  Start of bulk optimisation :

  Cycle:      0 Energy:      -109.762730  Gnorm:      0.588311  CPU:    0.007
  ** Hessian calculated **
  Cycle:      1 Energy:      -109.763059  Gnorm:      0.000316  CPU:    0.010


  **** Optimisation achieved ****


  Final energy =    -109.76305939 eV
  Final Gnorm  =       0.00000099

  Components of energy : 

--------------------------------------------------------------------------------
  Interatomic potentials     =          22.28919976 eV    
  Monopole - monopole (real) =         -15.66235280 eV    
  Monopole - monopole (recip)=        -116.38990634 eV    
  Monopole - monopole (total)=        -132.05225914 eV    
--------------------------------------------------------------------------------
  Total lattice energy : 
    Primitive unit cell      =        -109.76305939 eV    
    Non-primitive unit cell  =        -439.05223754 eV    
--------------------------------------------------------------------------------
  Total lattice energy (in kJmol-1): 
    Primitive unit cell      =          -10590.4573 kJ/(mole unit cells)
    Non-primitive unit cell  =          -42361.8294 kJ/(mole unit cells)
--------------------------------------------------------------------------------

  Final asymmetric unit coordinates :

--------------------------------------------------------------------------------
   No.  Atomic        x           y           z         Radius
        Label       (Frac)      (Frac)      (Frac)       (Angs) 
--------------------------------------------------------------------------------
     1  Zr    c     0.000000    0.000000    0.000000    0.000000
     2  O     c     0.250000    0.250000    0.250000    0.000000
     3  Zr    s     0.000000    0.000000    0.000000    0.000000
     4  O     s     0.250000    0.250000    0.250000    0.000000
--------------------------------------------------------------------------------

  Final Cartesian lattice vectors (Angstroms) :

        0.000000    2.537842    2.537842
        2.537842    0.000000    2.537842
        2.537842    2.537842    0.000000


  Final cell parameters and derivatives :

--------------------------------------------------------------------------------
       a            3.589050 Angstrom     dE/de1(xx)    -0.000001 eV/strain
       b            3.589050 Angstrom     dE/de2(yy)     0.000000 eV/strain
       c            3.589050 Angstrom     dE/de3(zz)     0.000000 eV/strain
       alpha       60.000000 Degrees      dE/de4(yz)     0.000000 eV/strain
       beta        60.000000 Degrees      dE/de5(xz)     0.000000 eV/strain
       gamma       60.000000 Degrees      dE/de6(xy)     0.000000 eV/strain
--------------------------------------------------------------------------------

  Primitive cell volume =            32.690656 Angs**3

  Density of cell =      6.259124 g/cm**3

  Non-primitive lattice parameters :

  a    =     5.075684  b   =     5.075684  c    =     5.075684
  alpha=    90.000000  beta=    90.000000  gamma=    90.000000

  Non-primitive cell volume =           130.762624 Angs**3


  Final internal derivatives :

--------------------------------------------------------------------------------
   No.  Atomic          a             b             c           Radius
        Label          (eV)          (eV)          (eV)        (eV/Angs)
--------------------------------------------------------------------------------
      1 Zr    c       0.000000      0.000000      0.000000      0.000000
      2 O     c       0.000000      0.000000      0.000000      0.000000
      3 Zr    s       0.000000      0.000000      0.000000      0.000000
      4 O     s       0.000000      0.000000      0.000000      0.000000
--------------------------------------------------------------------------------
  Maximum abs         0.000000      0.000000      0.000000      0.000000
--------------------------------------------------------------------------------

  Comparison of initial and final structures : 

--------------------------------------------------------------------------------
  Parameter   Initial value   Final value   Difference    Units      Percent
--------------------------------------------------------------------------------
    Volume       130.323843    130.762624     0.438781    Angs**3      0.34
    a              5.070000      5.075684     0.005684    Angstroms    0.11
    b              5.070000      5.075684     0.005684    Angstroms    0.11
    c              5.070000      5.075684     0.005684    Angstroms    0.11
    alpha         90.000000     90.000000     0.000000    Degrees      0.00
    beta          90.000000     90.000000     0.000000    Degrees      0.00
    gamma         90.000000     90.000000     0.000000    Degrees      0.00
      1 x          0.000000      0.000000     0.000000    Fractional   0.00
      1 y          0.000000      0.000000     0.000000    Fractional   0.00
      1 z          0.000000      0.000000     0.000000    Fractional   0.00
      2 x          0.250000      0.250000     0.000000    Fractional   0.00
      2 y          0.250000      0.250000     0.000000    Fractional   0.00
      2 z          0.250000      0.250000     0.000000    Fractional   0.00
      3 x          0.000000      0.000000     0.000000    Fractional   0.00
      3 y          0.000000      0.000000     0.000000    Fractional   0.00
      3 z          0.000000      0.000000     0.000000    Fractional   0.00
      4 x          0.250000      0.250000     0.000000    Fractional   0.00
      4 y          0.250000      0.250000     0.000000    Fractional   0.00
      4 z          0.250000      0.250000     0.000000    Fractional   0.00
--------------------------------------------------------------------------------


  Distance calculation :


  Cutoff for distances  =      4.000000 Angstroms

--------------------------------------------------------------------------------
  Asymmetric unit site  Full lattice sites    No.  Distance      No.  Distance
      No.   At.No.            At.No.                (Angs)             (Angs) 
--------------------------------------------------------------------------------
       1   Zr    core        Zr    core        12    3.5891
                             Zr    shell       12    3.5891
                             O     core         8    2.1978
                             O     shell        8    2.1978
--------------------------------------------------------------------------------
       2   O     core        Zr    core         4    2.1978
                             Zr    shell        4    2.1978
                             O     core         6    2.5378       12    3.5891
                             O     shell        6    2.5378       12    3.5891
--------------------------------------------------------------------------------
       3   Zr    shell       Zr    core        12    3.5891
                             Zr    shell       12    3.5891
                             O     core         8    2.1978
                             O     shell        8    2.1978
--------------------------------------------------------------------------------
       4   O     shell       Zr    core         4    2.1978
                             Zr    shell        4    2.1978
                             O     core         6    2.5378       12    3.5891
                             O     shell        6    2.5378       12    3.5891
--------------------------------------------------------------------------------



  Born effective charge tensors : 

-------------------------------------------------------------------------------
  Atom             x           y             z
-------------------------------------------------------------------------------
    1 Zr    x       3.6770      0.0000      0.0000
            y       0.0000      3.6770      0.0000
            z       0.0000      0.0000      3.6770
-------------------------------------------------------------------------------
    2 O     x      -1.8385      0.0000      0.0000
            y       0.0000     -1.8385     -0.0000
            z       0.0000     -0.0000     -1.8385
-------------------------------------------------------------------------------




  Elastic Constant Matrix: (Units=GPa)

-------------------------------------------------------------------------------
  Indices      1         2         3         4         5         6    
-------------------------------------------------------------------------------
       1    616.2933  119.6612  119.6612   -0.0000   -0.0000   -0.0000
       2    119.6612  616.2933  119.6612   -0.0000   -0.0000   -0.0000
       3    119.6612  119.6612  616.2933   -0.0000   -0.0000   -0.0000
       4     -0.0000   -0.0000   -0.0000  100.8598    0.0000   -0.0000
       5     -0.0000   -0.0000   -0.0000    0.0000  100.8598    0.0000
       6     -0.0000   -0.0000   -0.0000   -0.0000    0.0000  100.8598
-------------------------------------------------------------------------------


  Elastic Compliance Matrix: (Units=1/GPa)

-------------------------------------------------------------------------------
  Indices      1         2         3         4         5         6    
-------------------------------------------------------------------------------
       1    0.001732 -0.000282 -0.000282  0.000000  0.000000  0.000000
       2   -0.000282  0.001732 -0.000282 -0.000000  0.000000  0.000000
       3   -0.000282 -0.000282  0.001732  0.000000  0.000000  0.000000
       4    0.000000 -0.000000  0.000000  0.009915 -0.000000  0.000000
       5    0.000000  0.000000  0.000000 -0.000000  0.009915 -0.000000
       6    0.000000  0.000000  0.000000  0.000000 -0.000000  0.009915
-------------------------------------------------------------------------------

  Mechanical properties :

-------------------------------------------------------------------------------
  Convention :                    Reuss         Voigt         Hill
-------------------------------------------------------------------------------
  Bulk  Modulus (GPa)     =     285.20524     285.20524     285.20524
  Shear Modulus (GPa)     =     132.28031     159.84228     146.06129
-------------------------------------------------------------------------------
  Velocity S-wave (km/s)  =       4.59717       5.05346       4.83071
  Velocity P-wave (km/s)  =       8.58749       8.92280       8.75675
-------------------------------------------------------------------------------
  Compressibility (1/GPa) =    0.00350625
-------------------------------------------------------------------------------
  Stress axis :                     x             y             z
-------------------------------------------------------------------------------
  Youngs Moduli (GPa)     =     577.38110     577.38110     577.38110
-------------------------------------------------------------------------------
  Poissons Ratio (x)      =                     0.16259       0.16259
  Poissons Ratio (y)      =       0.16259                     0.16259
  Poissons Ratio (z)      =       0.16259       0.16259
-------------------------------------------------------------------------------


  Piezoelectric Strain Matrix: (Units=C/m**2)

-------------------------------------------------------------------------------
  Indices      1         2         3         4         5         6    
-------------------------------------------------------------------------------
       x    -0.00000   0.00000   0.00000   0.00000   0.00000   0.00000
       y    -0.00000  -0.00000  -0.00000   0.00000   0.00000   0.00000
       z    -0.00000  -0.00000  -0.00000   0.00000   0.00000   0.00000
-------------------------------------------------------------------------------


  Piezoelectric Stress Matrix: (Units=10**-11 C/N)

-------------------------------------------------------------------------------
  Indices      1         2         3         4         5         6    
-------------------------------------------------------------------------------
       x    -0.00000   0.00000   0.00000   0.00000   0.00000   0.00000
       y    -0.00000  -0.00000  -0.00000   0.00000   0.00000   0.00000
       z     0.00000   0.00000  -0.00000   0.00000   0.00000   0.00000
-------------------------------------------------------------------------------


  Static dielectric constant tensor : 

-------------------------------------------------------------------------------
              x         y         z
-------------------------------------------------------------------------------
       x    26.88485   0.00000   0.00000
       y     0.00000  26.88485   0.00000
       z     0.00000   0.00000  26.88485
--------------------------------------------------------------------------------

  High frequency dielectric constant tensor : 

-------------------------------------------------------------------------------
              x         y         z
-------------------------------------------------------------------------------
       x     2.63099   0.00000   0.00000
       y     0.00000   2.63099   0.00000
       z     0.00000   0.00000   2.63099
-------------------------------------------------------------------------------

  Static refractive indices : 

-------------------------------------------------------------------------------
    1 =    5.18506      2 =    5.18506      3 =    5.18506
-------------------------------------------------------------------------------

  High frequency refractive indices : 

-------------------------------------------------------------------------------
    1 =    1.62203      2 =    1.62203      3 =    1.62203
-------------------------------------------------------------------------------


  Time to end of optimisation =       0.0173 seconds

********************************************************************************
*  Defect calculation for configuration   1 :                                  *
********************************************************************************

  Total number of defects =      3

  Total charge on defect  =  -4.00

  Defect centre is at   0.2500   0.2500   0.0000  Frac

  Region 1 radius =  12.0000      Number of ions =   1358

  Number of symmetry inequivalent region 1 ions  =    222

  Region 2 radius =  24.0000      Number of ions =   9264

  Number of symmetry inequivalent region 2a ions =   1296

  Region 2a mode = 4 : screened electrostatics due to region 1 
                       neglect correction to region 1 forces from 2a
                       region 2a displacements based on defects only

  Region 2a ions will only interact with defects in region 1

  Vacancies:

--------------------------------------------------------------------------------
    Specification type     Symbol/Number         x          y          z
--------------------------------------------------------------------------------
    Fractional                               0.000000   0.000000   0.000000
    Fractional                               0.500000   0.500000   0.000000
--------------------------------------------------------------------------------

  Interstitials:

--------------------------------------------------------------------------------
    Specification type     Symbol/Number         x          y          z
--------------------------------------------------------------------------------
    Atom/Fractional         Zr               0.250000   0.250000   0.000000
--------------------------------------------------------------------------------


  Symmetry reduced region 1 (Relative to defect centre) :

--------------------------------------------------------------------------------
   No.   Atomic       x            y             z       Radius  Multiplicity   
         Label      (Angs)       (Angs)        (Angs)    (Angs)     
--------------------------------------------------------------------------------
     1  Zr    c      0.0000       0.0000       0.0000    0.0000     1    Defect
     2  O     c      0.0000       0.0000       1.2689 *  0.0000     2          
     3  O     c      0.0000 *     2.5378 *    -1.2689 *  0.0000     8          
     4  Zr    c      1.2689 *    -1.2689       2.5378 *  0.0000     4          
     5  O     c      2.5378 *     2.5378       1.2689 *  0.0000     4          
     6  O     c     -2.5378 *     2.5378       1.2689 *  0.0000     4          
     7  O     c      0.0000       0.0000      -3.8068 *  0.0000     2          
     8  Zr    c     -3.8068 *     1.2689 *     0.0000    0.0000     4          
     9  O     c      2.5378 *     0.0000 *     3.8068 *  0.0000     8          
    10  Zr    c      1.2689 *     3.8068 *    -2.5378 *  0.0000     8          
    11  O     c     -0.0000 *     5.0757 *    -1.2689 *  0.0000     8          
    12  O     c     -2.5378 *     2.5378      -3.8068 *  0.0000     4          
    13  O     c     -2.5378 *    -2.5378      -3.8068 *  0.0000     4          
    14  Zr    c      3.8068 *     3.8068       0.0000    0.0000     2          
    15  Zr    c      1.2689 *     1.2689       5.0757 *  0.0000     4          
    16  O     c      2.5378 *     5.0757 *     1.2689 *  0.0000     8          
    17  O     c      2.5378 *    -5.0757 *    -1.2689 *  0.0000     8          
    18  Zr    c     -3.8068 *     3.8068       2.5378 *  0.0000     4          
    19  O     c      0.0000       0.0000       6.3446 *  0.0000     2          
    20  O     c     -0.0000 *     5.0757 *     3.8068 *  0.0000     8          
    21  Zr    c      3.8068 *    -1.2689 *    -5.0757 *  0.0000     8          
    22  Zr    c      1.2689 *     6.3446 *     0.0000    0.0000     4          
    23  O     c      2.5378 *     5.0757 *    -3.8068 *  0.0000     8          
    24  O     c     -2.5378 *     0.0000 *    -6.3446 *  0.0000     8          
    25  O     c     -2.5378 *     5.0757 *     3.8068 *  0.0000     8          
    26  Zr    c     -6.3446 *     1.2689 *    -2.5378 *  0.0000     8          
    27  O     c      2.5378 *    -2.5378       6.3446 *  0.0000     4          
    28  O     c      2.5378 *     2.5378       6.3446 *  0.0000     4          
    29  O     c      5.0757 *     5.0757      -1.2689 *  0.0000     4          
    30  O     c     -5.0757 *     5.0757       1.2689 *  0.0000     4          
    31  Zr    c     -6.3446 *     3.8068 *     0.0000    0.0000     4          
    32  Zr    c      3.8068 *     3.8068       5.0757 *  0.0000     4          
    33  O     c      7.6135 *     0.0000 *    -1.2689 *  0.0000     8          
    34  Zr    c      3.8068 *     6.3446 *    -2.5378 *  0.0000     8          
    35  Zr    c      1.2689 *    -1.2689       7.6135 *  0.0000     4          
    36  O     c      2.5378 *     7.6135 *     1.2689 *  0.0000     8          
    37  O     c     -7.6135 *     2.5378 *     1.2689 *  0.0000     8          
    38  O     c      5.0757 *     5.0757       3.8068 *  0.0000     4          
    39  O     c      5.0757 *     0.0000 *     6.3446 *  0.0000     8          
    40  O     c     -5.0757 *     5.0757      -3.8068 *  0.0000     4          
    41  Zr    c      6.3446 *     1.2689 *    -5.0757 *  0.0000     8          
    42  O     c     -5.0757 *     2.5378 *    -6.3446 *  0.0000     8          
    43  O     c      5.0757 *     2.5378 *     6.3446 *  0.0000     8          
    44  O     c      0.0000 *     7.6135 *     3.8068 *  0.0000     8          
    45  Zr    c      3.8068 *     1.2689 *     7.6135 *  0.0000     8          
    46  O     c      2.5378 *     7.6135 *    -3.8068 *  0.0000     8          
    47  O     c     -7.6135 *     2.5378 *    -3.8068 *  0.0000     8          
    48  O     c      0.0000       0.0000      -8.8824 *  0.0000     2          
    49  Zr    c      6.3446 *     6.3446       0.0000    0.0000     2          
    50  Zr    c     -6.3446 *     3.8068 *     5.0757 *  0.0000     8          
    51  Zr    c     -1.2689 *     8.8824 *     0.0000    0.0000     4          
    52  O     c      5.0757 *     7.6135 *    -1.2689 *  0.0000     8          
    53  O     c     -7.6135 *     5.0757 *    -1.2689 *  0.0000     8          
    54  O     c      2.5378 *     0.0000 *     8.8824 *  0.0000     8          
    55  Zr    c      3.8068 *    -3.8068       7.6135 *  0.0000     4          
    56  Zr    c     -6.3446 *     6.3446      -2.5378 *  0.0000     4          
    57  Zr    c      1.2689 *     8.8824 *    -2.5378 *  0.0000     8          
    58  O     c      5.0757 *     5.0757       6.3446 *  0.0000     4          
    59  O     c     -5.0757 *     5.0757       6.3446 *  0.0000     4          
    60  O     c     -2.5378 *     2.5378      -8.8824 *  0.0000     4          
    61  O     c     -2.5378 *    -2.5378      -8.8824 *  0.0000     4          
    62  Zr    c      3.8068 *     8.8824 *     0.0000    0.0000     4          
    63  O     c      7.6135 *     5.0757 *     3.8068 *  0.0000     8          
    64  O     c     -7.6135 *     0.0000 *    -6.3446 *  0.0000     8          
    65  O     c     -5.0757 *     7.6135 *     3.8068 *  0.0000     8          
    66  Zr    c      6.3446 *    -1.2689 *     7.6135 *  0.0000     8          
    67  Zr    c     -3.8068 *     8.8824 *    -2.5378 *  0.0000     8          
    68  O     c      7.6135 *     2.5378 *     6.3446 *  0.0000     8          
    69  O     c     -2.5378 *     7.6135 *     6.3446 *  0.0000     8          
    70  O     c      0.0000 *    10.1514 *     1.2689 *  0.0000     8          
    71  O     c     -5.0757 *     0.0000 *    -8.8824 *  0.0000     8          
    72  Zr    c      6.3446 *     6.3446       5.0757 *  0.0000     4          
    73  Zr    c     -1.2689 *     8.8824 *    -5.0757 *  0.0000     8          
    74  Zr    c      1.2689 *     1.2689      10.1514 *  0.0000     4          
    75  O     c      5.0757 *    -2.5378 *     8.8824 *  0.0000     8          
    76  O     c      5.0757 *     2.5378 *     8.8824 *  0.0000     8          
    77  O     c      2.5378 *    10.1514 *    -1.2689 *  0.0000     8          
    78  O     c     -2.5378 *    10.1514 *    -1.2689 *  0.0000     8          
    79  Zr    c      6.3446 *     3.8068 *     7.6135 *  0.0000     8          
    80  O     c      7.6135 *     7.6135       1.2689 *  0.0000     4          
    81  O     c     -7.6135 *     7.6135       1.2689 *  0.0000     4          
    82  O     c      0.0000 *    10.1514 *    -3.8068 *  0.0000     8          
    83  Zr    c      8.8824 *     3.8068 *     5.0757 *  0.0000     8          
    84  Zr    c      3.8068 *    -1.2689 *    10.1514 *  0.0000     8          
    85  Zr    c     -6.3446 *     8.8824 *     0.0000    0.0000     4          
    86  O     c     -7.6135 *     5.0757 *    -6.3446 *  0.0000     8          
    87  O     c      2.5378 *    10.1514 *     3.8068 *  0.0000     8          
    88  O     c     -2.5378 *    10.1514 *     3.8068 *  0.0000     8          
    89  O     c      5.0757 *     7.6135 *    -6.3446 *  0.0000     8          
    90  Zr    c      6.3446 *     8.8824 *    -2.5378 *  0.0000     8          
    91  O     c     -7.6135 *     7.6135      -3.8068 *  0.0000     4          
    92  O     c      7.6135 *     7.6135      -3.8068 *  0.0000     4          
    93  O     c      5.0757 *     5.0757       8.8824 *  0.0000     4          
    94  O     c     -5.0757 *     5.0757      -8.8824 *  0.0000     4          
    95  O     c      5.0757 *    10.1514 *     1.2689 *  0.0000     8          
    96  O     c      0.0000       0.0000      11.4203 *  0.0000     2          
    97  O     c     -5.0757 *    10.1514 *     1.2689 *  0.0000     8          
    98  Zr    c      3.8068 *     3.8068      10.1514 *  0.0000     4          
    99  Zr    c      1.2689 *    11.4203 *     0.0000    0.0000     4          
   100  O     c      7.6135 *     0.0000 *     8.8824 *  0.0000     8          
   101  O     c     -2.5378 *     0.0000 *   -11.4203 *  0.0000     8          
   102  Zr    c     -6.3446 *     6.3446      -7.6135 *  0.0000     4          
   103  Zr    c      8.8824 *     1.2689 *     7.6135 *  0.0000     8          
   104  Zr    c     11.4203 *    -1.2689 *    -2.5378 *  0.0000     8          
   105  O     c      5.0757 *    10.1514 *    -3.8068 *  0.0000     8          
   106  O     c     -7.6135 *     2.5378 *    -8.8824 *  0.0000     8          
   107  O     c      2.5378 *    -2.5378      11.4203 *  0.0000     4          
   108  O     c      2.5378 *     2.5378      11.4203 *  0.0000     4          
   109  O     c    -10.1514 *     5.0757 *    -3.8068 *  0.0000     8          
   110  O     c      0.0000 *    10.1514 *     6.3446 *  0.0000     8          
   111  O     c     -7.6135 *    -2.5378 *    -8.8824 *  0.0000     8          
   112  Zr    s      0.0000       0.0000       0.0000    0.0000     1    Defect
   113  O     s      0.0000       0.0000       1.2689 *  0.0000     2          
   114  O     s      0.0000 *     2.5378 *    -1.2689 *  0.0000     8          
   115  Zr    s      1.2689 *    -1.2689       2.5378 *  0.0000     4          
   116  O     s      2.5378 *     2.5378       1.2689 *  0.0000     4          
   117  O     s     -2.5378 *     2.5378       1.2689 *  0.0000     4          
   118  O     s      0.0000       0.0000      -3.8068 *  0.0000     2          
   119  Zr    s     -3.8068 *     1.2689 *     0.0000    0.0000     4          
   120  O     s      2.5378 *     0.0000 *     3.8068 *  0.0000     8          
   121  Zr    s      1.2689 *     3.8068 *    -2.5378 *  0.0000     8          
   122  O     s     -0.0000 *     5.0757 *    -1.2689 *  0.0000     8          
   123  O     s     -2.5378 *     2.5378      -3.8068 *  0.0000     4          
   124  O     s     -2.5378 *    -2.5378      -3.8068 *  0.0000     4          
   125  Zr    s      3.8068 *     3.8068       0.0000    0.0000     2          
   126  Zr    s      1.2689 *     1.2689       5.0757 *  0.0000     4          
   127  O     s      2.5378 *     5.0757 *     1.2689 *  0.0000     8          
   128  O     s      2.5378 *    -5.0757 *    -1.2689 *  0.0000     8          
   129  Zr    s     -3.8068 *     3.8068       2.5378 *  0.0000     4          
   130  O     s      0.0000       0.0000       6.3446 *  0.0000     2          
   131  O     s     -0.0000 *     5.0757 *     3.8068 *  0.0000     8          
   132  Zr    s      3.8068 *    -1.2689 *    -5.0757 *  0.0000     8          
   133  Zr    s      1.2689 *     6.3446 *     0.0000    0.0000     4          
   134  O     s      2.5378 *     5.0757 *    -3.8068 *  0.0000     8          
   135  O     s     -2.5378 *     0.0000 *    -6.3446 *  0.0000     8          
   136  O     s     -2.5378 *     5.0757 *     3.8068 *  0.0000     8          
   137  Zr    s     -6.3446 *     1.2689 *    -2.5378 *  0.0000     8          
   138  O     s      2.5378 *    -2.5378       6.3446 *  0.0000     4          
   139  O     s      2.5378 *     2.5378       6.3446 *  0.0000     4          
   140  O     s      5.0757 *     5.0757      -1.2689 *  0.0000     4          
   141  O     s     -5.0757 *     5.0757       1.2689 *  0.0000     4          
   142  Zr    s     -6.3446 *     3.8068 *     0.0000    0.0000     4          
   143  Zr    s      3.8068 *     3.8068       5.0757 *  0.0000     4          
   144  O     s      7.6135 *     0.0000 *    -1.2689 *  0.0000     8          
   145  Zr    s      3.8068 *     6.3446 *    -2.5378 *  0.0000     8          
   146  Zr    s      1.2689 *    -1.2689       7.6135 *  0.0000     4          
   147  O     s      2.5378 *     7.6135 *     1.2689 *  0.0000     8          
   148  O     s     -7.6135 *     2.5378 *     1.2689 *  0.0000     8          
   149  O     s      5.0757 *     5.0757       3.8068 *  0.0000     4          
   150  O     s      5.0757 *     0.0000 *     6.3446 *  0.0000     8          
   151  O     s     -5.0757 *     5.0757      -3.8068 *  0.0000     4          
   152  Zr    s      6.3446 *     1.2689 *    -5.0757 *  0.0000     8          
   153  O     s     -5.0757 *     2.5378 *    -6.3446 *  0.0000     8          
   154  O     s      5.0757 *     2.5378 *     6.3446 *  0.0000     8          
   155  O     s      0.0000 *     7.6135 *     3.8068 *  0.0000     8          
   156  Zr    s      3.8068 *     1.2689 *     7.6135 *  0.0000     8          
   157  O     s      2.5378 *     7.6135 *    -3.8068 *  0.0000     8          
   158  O     s     -7.6135 *     2.5378 *    -3.8068 *  0.0000     8          
   159  O     s      0.0000       0.0000      -8.8824 *  0.0000     2          
   160  Zr    s      6.3446 *     6.3446       0.0000    0.0000     2          
   161  Zr    s     -6.3446 *     3.8068 *     5.0757 *  0.0000     8          
   162  Zr    s     -1.2689 *     8.8824 *     0.0000    0.0000     4          
   163  O     s      5.0757 *     7.6135 *    -1.2689 *  0.0000     8          
   164  O     s     -7.6135 *     5.0757 *    -1.2689 *  0.0000     8          
   165  O     s      2.5378 *     0.0000 *     8.8824 *  0.0000     8          
   166  Zr    s      3.8068 *    -3.8068       7.6135 *  0.0000     4          
   167  Zr    s     -6.3446 *     6.3446      -2.5378 *  0.0000     4          
   168  Zr    s      1.2689 *     8.8824 *    -2.5378 *  0.0000     8          
   169  O     s      5.0757 *     5.0757       6.3446 *  0.0000     4          
   170  O     s     -5.0757 *     5.0757       6.3446 *  0.0000     4          
   171  O     s     -2.5378 *     2.5378      -8.8824 *  0.0000     4          
   172  O     s     -2.5378 *    -2.5378      -8.8824 *  0.0000     4          
   173  Zr    s      3.8068 *     8.8824 *     0.0000    0.0000     4          
   174  O     s      7.6135 *     5.0757 *     3.8068 *  0.0000     8          
   175  O     s     -7.6135 *     0.0000 *    -6.3446 *  0.0000     8          
   176  O     s     -5.0757 *     7.6135 *     3.8068 *  0.0000     8          
   177  Zr    s      6.3446 *    -1.2689 *     7.6135 *  0.0000     8          
   178  Zr    s     -3.8068 *     8.8824 *    -2.5378 *  0.0000     8          
   179  O     s      7.6135 *     2.5378 *     6.3446 *  0.0000     8          
   180  O     s     -2.5378 *     7.6135 *     6.3446 *  0.0000     8          
   181  O     s      0.0000 *    10.1514 *     1.2689 *  0.0000     8          
   182  O     s     -5.0757 *     0.0000 *    -8.8824 *  0.0000     8          
   183  Zr    s      6.3446 *     6.3446       5.0757 *  0.0000     4          
   184  Zr    s     -1.2689 *     8.8824 *    -5.0757 *  0.0000     8          
   185  Zr    s      1.2689 *     1.2689      10.1514 *  0.0000     4          
   186  O     s      5.0757 *    -2.5378 *     8.8824 *  0.0000     8          
   187  O     s      5.0757 *     2.5378 *     8.8824 *  0.0000     8          
   188  O     s      2.5378 *    10.1514 *    -1.2689 *  0.0000     8          
   189  O     s     -2.5378 *    10.1514 *    -1.2689 *  0.0000     8          
   190  Zr    s      6.3446 *     3.8068 *     7.6135 *  0.0000     8          
   191  O     s      7.6135 *     7.6135       1.2689 *  0.0000     4          
   192  O     s     -7.6135 *     7.6135       1.2689 *  0.0000     4          
   193  O     s      0.0000 *    10.1514 *    -3.8068 *  0.0000     8          
   194  Zr    s      8.8824 *     3.8068 *     5.0757 *  0.0000     8          
   195  Zr    s      3.8068 *    -1.2689 *    10.1514 *  0.0000     8          
   196  Zr    s     -6.3446 *     8.8824 *     0.0000    0.0000     4          
   197  O     s     -7.6135 *     5.0757 *    -6.3446 *  0.0000     8          
   198  O     s      2.5378 *    10.1514 *     3.8068 *  0.0000     8          
   199  O     s     -2.5378 *    10.1514 *     3.8068 *  0.0000     8          
   200  O     s      5.0757 *     7.6135 *    -6.3446 *  0.0000     8          
   201  Zr    s      6.3446 *     8.8824 *    -2.5378 *  0.0000     8          
   202  O     s     -7.6135 *     7.6135      -3.8068 *  0.0000     4          
   203  O     s      7.6135 *     7.6135      -3.8068 *  0.0000     4          
   204  O     s      5.0757 *     5.0757       8.8824 *  0.0000     4          
   205  O     s     -5.0757 *     5.0757      -8.8824 *  0.0000     4          
   206  O     s      5.0757 *    10.1514 *     1.2689 *  0.0000     8          
   207  O     s      0.0000       0.0000      11.4203 *  0.0000     2          
   208  O     s     -5.0757 *    10.1514 *     1.2689 *  0.0000     8          
   209  Zr    s      3.8068 *     3.8068      10.1514 *  0.0000     4          
   210  Zr    s      1.2689 *    11.4203 *     0.0000    0.0000     4          
   211  O     s      7.6135 *     0.0000 *     8.8824 *  0.0000     8          
   212  O     s     -2.5378 *     0.0000 *   -11.4203 *  0.0000     8          
   213  Zr    s     -6.3446 *     6.3446      -7.6135 *  0.0000     4          
   214  Zr    s      8.8824 *     1.2689 *     7.6135 *  0.0000     8          
   215  Zr    s     11.4203 *    -1.2689 *    -2.5378 *  0.0000     8          
   216  O     s      5.0757 *    10.1514 *    -3.8068 *  0.0000     8          
   217  O     s     -7.6135 *     2.5378 *    -8.8824 *  0.0000     8          
   218  O     s      2.5378 *    -2.5378      11.4203 *  0.0000     4          
   219  O     s      2.5378 *     2.5378      11.4203 *  0.0000     4          
   220  O     s    -10.1514 *     5.0757 *    -3.8068 *  0.0000     8          
   221  O     s      0.0000 *    10.1514 *     6.3446 *  0.0000     8          
   222  O     s     -7.6135 *    -2.5378 *    -8.8824 *  0.0000     8          
--------------------------------------------------------------------------------


  Constraints on symmetry reduced coordinates :

--------------------------------------------------------------------------------
  Constraint no.      Unconstrained     Constrained    Coefficient    
                         Variable         Variable
--------------------------------------------------------------------------------
           1                 4 x             4 y        -1.00000
           2                 5 x             5 y         1.00000
           3                 6 x             6 y        -1.00000
           4                12 x            12 y        -1.00000
           5                13 x            13 y         1.00000
           6                14 x            14 y         1.00000
           7                15 x            15 y         1.00000
           8                18 x            18 y        -1.00000
           9                27 x            27 y        -1.00000
          10                28 x            28 y         1.00000
          11                29 x            29 y         1.00000
          12                30 x            30 y        -1.00000
          13                32 x            32 y         1.00000
          14                35 x            35 y        -1.00000
          15                38 x            38 y         1.00000
          16                40 x            40 y        -1.00000
          17                49 x            49 y         1.00000
          18                55 x            55 y        -1.00000
          19                56 x            56 y        -1.00000
          20                58 x            58 y         1.00000
          21                59 x            59 y        -1.00000
          22                60 x            60 y        -1.00000
          23                61 x            61 y         1.00000
          24                72 x            72 y         1.00000
          25                74 x            74 y         1.00000
          26                80 x            80 y         1.00000
          27                81 x            81 y        -1.00000
          28                91 x            91 y        -1.00000
          29                92 x            92 y         1.00000
          30                93 x            93 y         1.00000
          31                94 x            94 y        -1.00000
          32                98 x            98 y         1.00000
          33               102 x           102 y        -1.00000
          34               107 x           107 y        -1.00000
          35               108 x           108 y         1.00000
          36               115 x           115 y        -1.00000
          37               116 x           116 y         1.00000
          38               117 x           117 y        -1.00000
          39               123 x           123 y        -1.00000
          40               124 x           124 y         1.00000
          41               125 x           125 y         1.00000
          42               126 x           126 y         1.00000
          43               129 x           129 y        -1.00000
          44               138 x           138 y        -1.00000
          45               139 x           139 y         1.00000
          46               140 x           140 y         1.00000
          47               141 x           141 y        -1.00000
          48               143 x           143 y         1.00000
          49               146 x           146 y        -1.00000
          50               149 x           149 y         1.00000
          51               151 x           151 y        -1.00000
          52               160 x           160 y         1.00000
          53               166 x           166 y        -1.00000
          54               167 x           167 y        -1.00000
          55               169 x           169 y         1.00000
          56               170 x           170 y        -1.00000
          57               171 x           171 y        -1.00000
          58               172 x           172 y         1.00000
          59               183 x           183 y         1.00000
          60               185 x           185 y         1.00000
          61               191 x           191 y         1.00000
          62               192 x           192 y        -1.00000
          63               202 x           202 y        -1.00000
          64               203 x           203 y         1.00000
          65               204 x           204 y         1.00000
          66               205 x           205 y        -1.00000
          67               209 x           209 y         1.00000
          68               213 x           213 y        -1.00000
          69               218 x           218 y        -1.00000
          70               219 x           219 y         1.00000
--------------------------------------------------------------------------------


  Components of defect energy : 

--------------------------------------------------------------------------------
  Region 1 - region 1                   =    517.07155414 eV
  Region 1 - region 2a (unrelaxed)      =   -362.52222274 eV
  Region 1 - 2a (relaxed - correction)  =     -9.18138335 eV
  Region 1 (Total)                      =    145.36794806 eV
  Region 2a                             =      4.59058147 eV
  Region 2b                             =     -4.62249446 eV
--------------------------------------------------------------------------------
  Total defect energy                   =    145.33603507 eV
--------------------------------------------------------------------------------

  Largest displacement in region 2 =   0.0093 Angstroms


  Number of variables =      552

  Maximum number of calculations  =        1000
  Maximum Hessian update interval =          10
  Maximum step size               =   1.0000000
  Maximum parameter tolerance     =   0.0000100
  Maximum function  tolerance     =   0.0000100
  Maximum gradient  tolerance     =   0.0010000

  Symmetry adapted optimisation

  Symmetry to be used for second derivatives

  Newton-Raphson optimiser to be used

  BFGS hessian update to be used

  Lower half triangular hessian to be used

  Start of defect optimisation :

  Cycle:      0 Defect Energy: 145.336035  Gnorm:     0.387911  CPU:    3.941
  ** Hessian calculated **
  Cycle:      1 Defect Energy: 101.032195  Gnorm:     0.080243  CPU:   12.864
  ** Hessian calculated **
  Cycle:      2 Defect Energy:  94.391411  Gnorm:     0.050325  CPU:   20.068
  Cycle:      3 Defect Energy:  93.351616  Gnorm:     0.038372  CPU:   23.649
  Cycle:      4 Defect Energy:  92.919810  Gnorm:     0.017611  CPU:   27.305
  Cycle:      5 Defect Energy:  92.585067  Gnorm:     0.009395  CPU:   31.908
  Cycle:      6 Defect Energy:  92.522591  Gnorm:     0.007780  CPU:   35.631
  Cycle:      7 Defect Energy:  92.494667  Gnorm:     0.004996  CPU:   40.218
  Cycle:      8 Defect Energy:  92.490990  Gnorm:     0.003428  CPU:   41.185
  Cycle:      9 Defect Energy:  92.489038  Gnorm:     0.002497  CPU:   42.131
  Cycle:     10 Defect Energy:  92.487908  Gnorm:     0.001686  CPU:   43.074
  Cycle:     11 Defect Energy:  92.487261  Gnorm:     0.001186  CPU:   44.010
  ** Hessian calculated **
  Cycle:     12 Defect Energy:  92.486962  Gnorm:     0.000830  CPU:   46.679
  Cycle:     13 Defect Energy:  92.486827  Gnorm:     0.000582  CPU:   47.642
  Cycle:     14 Defect Energy:  92.486768  Gnorm:     0.000407  CPU:   48.601
  Cycle:     15 Defect Energy:  92.486745  Gnorm:     0.000285  CPU:   49.560
  Cycle:     16 Defect Energy:  92.486738  Gnorm:     0.000200  CPU:   50.519
  Cycle:     17 Defect Energy:  92.486737  Gnorm:     0.000140  CPU:   51.477
  Cycle:     18 Defect Energy:  92.486738  Gnorm:     0.000098  CPU:   52.436
  Cycle:     19 Defect Energy:  92.486740  Gnorm:     0.000069  CPU:   53.397
  Cycle:     20 Defect Energy:  92.486742  Gnorm:     0.000048  CPU:   54.363


  **** Optimisation achieved ****


  Final defect energy  =       92.48674393
  Final defect Gnorm   =        0.00003359

  Components of defect energy : 

--------------------------------------------------------------------------------
  Region 1 - region 1                   =    431.11839142 eV
  Region 1 - region 2a (unrelaxed)      =   -329.94315026 eV
  Region 1 - 2a (relaxed - correction)  =     -8.13189714 eV
  Region 1 (Total)                      =     93.04334402 eV
  Region 2a                             =      4.06589437 eV
  Region 2b                             =     -4.62249446 eV
--------------------------------------------------------------------------------
  Total defect energy                   =     92.48674393 eV
--------------------------------------------------------------------------------

  Largest displacement in region 2 =   0.0093 Angstroms

  Final coordinates of region 1 :

--------------------------------------------------------------------------------
   No.  Atomic        x           y           z          Radius      Charge
        Label       (Angs)      (Angs)      (Angs)       (Angs)       (e) 
--------------------------------------------------------------------------------
     1  Zr    c     1.268921    1.268921    0.000000    0.000000    2.650000
     2  O     c     1.268921    1.268921    1.768856    0.000000    0.077000
     3  O     c     1.268921    1.268921   -1.768856    0.000000    0.077000
     4  O     c     0.990852    3.761637   -1.341030    0.000000    0.077000
     5  O     c     3.761637    0.990852   -1.341030    0.000000    0.077000
     6  O     c     0.990852    3.761637    1.341030    0.000000    0.077000
     7  O     c     3.761637    0.990852    1.341030    0.000000    0.077000
     8  O     c    -1.223795    1.546990   -1.341030    0.000000    0.077000
     9  O     c     1.546990   -1.223795   -1.341030    0.000000    0.077000
    10  O     c    -1.223795    1.546990    1.341030    0.000000    0.077000
    11  O     c     1.546990   -1.223795    1.341030    0.000000    0.077000
    12  Zr    c     2.566998   -0.029156    2.689885    0.000000    2.650000
    13  Zr    c    -0.029156    2.566998    2.689885    0.000000    2.650000
    14  Zr    c    -0.029156    2.566998   -2.689885    0.000000    2.650000
    15  Zr    c     2.566998   -0.029156   -2.689885    0.000000    2.650000
    16  O     c     3.992202    3.992202    1.482947    0.000000    0.077000
    17  O     c     3.992202    3.992202   -1.482947    0.000000    0.077000
    18  O     c    -1.454360   -1.454360    1.482947    0.000000    0.077000
    19  O     c    -1.454360   -1.454360   -1.482947    0.000000    0.077000
    20  O     c    -1.446715    3.984557    1.249170    0.000000    0.077000
    21  O     c     3.984557   -1.446715    1.249170    0.000000    0.077000
    22  O     c    -1.446715    3.984557   -1.249170    0.000000    0.077000
    23  O     c     3.984557   -1.446715   -1.249170    0.000000    0.077000
    24  O     c     1.268921    1.268921   -4.160403    0.000000    0.077000
    25  O     c     1.268921    1.268921    4.160403    0.000000    0.077000
    26  Zr    c    -2.429839    2.522911    0.000000    0.000000    2.650000
    27  Zr    c     2.522911   -2.429839    0.000000    0.000000    2.650000
    28  Zr    c     0.014931    4.967681    0.000000    0.000000    2.650000
    29  Zr    c     4.967681    0.014931    0.000000    0.000000    2.650000
    30  O     c     3.822214    1.253091    3.861956    0.000000    0.077000
    31  O     c     1.284751   -1.284372    3.861956    0.000000    0.077000
    32  O     c     1.253091    3.822214    3.861956    0.000000    0.077000
    33  O     c    -1.284372    1.284751    3.861956    0.000000    0.077000
    34  O     c     1.253091    3.822214   -3.861956    0.000000    0.077000
    35  O     c     3.822214    1.253091   -3.861956    0.000000    0.077000
    36  O     c    -1.284372    1.284751   -3.861956    0.000000    0.077000
    37  O     c     1.284751   -1.284372   -3.861956    0.000000    0.077000
    38  Zr    c     2.529175    4.981361   -2.474847    0.000000    2.650000
    39  Zr    c    -2.443519    0.008666   -2.474847    0.000000    2.650000
    40  Zr    c     4.981361    2.529175    2.474847    0.000000    2.650000
    41  Zr    c     0.008666   -2.443519    2.474847    0.000000    2.650000
    42  Zr    c     2.529175    4.981361    2.474847    0.000000    2.650000
    43  Zr    c    -2.443519    0.008666    2.474847    0.000000    2.650000
    44  Zr    c     4.981361    2.529175   -2.474847    0.000000    2.650000
    45  Zr    c     0.008666   -2.443519   -2.474847    0.000000    2.650000
    46  O     c     1.286225    6.285581   -1.271621    0.000000    0.077000
    47  O     c     6.285581    1.286225   -1.271621    0.000000    0.077000
    48  O     c     1.286225    6.285581    1.271621    0.000000    0.077000
    49  O     c    -3.747739    1.251617    1.271621    0.000000    0.077000
    50  O     c     6.285581    1.286225    1.271621    0.000000    0.077000
    51  O     c     1.251617   -3.747739    1.271621    0.000000    0.077000
    52  O     c    -3.747739    1.251617   -1.271621    0.000000    0.077000
    53  O     c     1.251617   -3.747739   -1.271621    0.000000    0.077000
    54  O     c    -1.277430    3.815272   -3.854454    0.000000    0.077000
    55  O     c     3.815272   -1.277430   -3.854454    0.000000    0.077000
    56  O     c    -1.277430    3.815272    3.854454    0.000000    0.077000
    57  O     c     3.815272   -1.277430    3.854454    0.000000    0.077000
    58  O     c    -1.222787   -1.222787   -3.895400    0.000000    0.077000
    59  O     c     3.760628    3.760628   -3.895400    0.000000    0.077000
    60  O     c     3.760628    3.760628    3.895400    0.000000    0.077000
    61  O     c    -1.222787   -1.222787    3.895400    0.000000    0.077000
    62  Zr    c     5.009391    5.009391    0.000000    0.000000    2.650000
    63  Zr    c    -2.471549   -2.471549    0.000000    0.000000    2.650000
    64  Zr    c     2.539961    2.539961    5.130047    0.000000    2.650000
    65  Zr    c    -0.002119   -0.002119   -5.130047    0.000000    2.650000
    66  Zr    c     2.539961    2.539961   -5.130047    0.000000    2.650000
    67  Zr    c    -0.002119   -0.002119    5.130047    0.000000    2.650000
    68  O     c     3.780217    6.417542    1.244644    0.000000    0.077000
    69  O     c     6.417542    3.780217    1.244644    0.000000    0.077000
    70  O     c     3.780217    6.417542   -1.244644    0.000000    0.077000
    71  O     c    -3.879700   -1.242375   -1.244644    0.000000    0.077000
    72  O     c     6.417542    3.780217   -1.244644    0.000000    0.077000
    73  O     c    -1.242375   -3.879700   -1.244644    0.000000    0.077000
    74  O     c    -3.879700   -1.242375    1.244644    0.000000    0.077000
    75  O     c    -1.242375   -3.879700    1.244644    0.000000    0.077000
    76  O     c     3.823137   -3.939071   -1.302532    0.000000    0.077000
    77  O     c     6.476913   -1.285295   -1.302532    0.000000    0.077000
    78  O     c    -3.939071    3.823137   -1.302532    0.000000    0.077000
    79  O     c    -1.285295    6.476913   -1.302532    0.000000    0.077000
    80  O     c    -3.939071    3.823137    1.302532    0.000000    0.077000
    81  O     c    -1.285295    6.476913    1.302532    0.000000    0.077000
    82  O     c     3.823137   -3.939071    1.302532    0.000000    0.077000
    83  O     c     6.476913   -1.285295    1.302532    0.000000    0.077000
    84  Zr    c    -2.547170    5.085012    2.499782    0.000000    2.650000
    85  Zr    c     5.085012   -2.547170    2.499782    0.000000    2.650000
    86  Zr    c     5.085012   -2.547170   -2.499782    0.000000    2.650000
    87  Zr    c    -2.547170    5.085012   -2.499782    0.000000    2.650000
    88  O     c     1.268921    1.268921    6.582572    0.000000    0.077000
    89  O     c     1.268921    1.268921   -6.582572    0.000000    0.077000
    90  O     c     1.239380    6.374251    3.832400    0.000000    0.077000
    91  O     c     6.374251    1.239380    3.832400    0.000000    0.077000
    92  O     c    -3.836409    1.298462   -3.832400    0.000000    0.077000
    93  O     c     1.239380    6.374251   -3.832400    0.000000    0.077000
    94  O     c     1.298462   -3.836409   -3.832400    0.000000    0.077000
    95  O     c     6.374251    1.239380   -3.832400    0.000000    0.077000
    96  O     c    -3.836409    1.298462    3.832400    0.000000    0.077000
    97  O     c     1.298462   -3.836409    3.832400    0.000000    0.077000
    98  Zr    c     5.101245   -0.001435   -5.095813    0.000000    2.650000
    99  Zr    c     5.101245   -0.001435    5.095813    0.000000    2.650000
   100  Zr    c     2.539277   -2.563403    5.095813    0.000000    2.650000
   101  Zr    c    -2.563403    2.539277   -5.095813    0.000000    2.650000
   102  Zr    c    -0.001435    5.101245   -5.095813    0.000000    2.650000
   103  Zr    c    -0.001435    5.101245    5.095813    0.000000    2.650000
   104  Zr    c    -2.563403    2.539277    5.095813    0.000000    2.650000
   105  Zr    c     2.539277   -2.563403   -5.095813    0.000000    2.650000
   106  Zr    c     2.538293    7.575699    0.000000    0.000000    2.650000
   107  Zr    c    -5.037857   -0.000451    0.000000    0.000000    2.650000
   108  Zr    c     7.575699    2.538293    0.000000    0.000000    2.650000
   109  Zr    c    -0.000451   -5.037857    0.000000    0.000000    2.650000
   110  O     c     3.807283    6.327124   -3.806143    0.000000    0.077000
   111  O     c     6.327124    3.807283   -3.806143    0.000000    0.077000
   112  O     c     6.327124    3.807283    3.806143    0.000000    0.077000
   113  O     c    -1.269441   -3.789282    3.806143    0.000000    0.077000
   114  O     c     3.807283    6.327124    3.806143    0.000000    0.077000
   115  O     c    -3.789282   -1.269441    3.806143    0.000000    0.077000
   116  O     c    -3.789282   -1.269441   -3.806143    0.000000    0.077000
   117  O     c    -1.269441   -3.789282   -3.806143    0.000000    0.077000
   118  O     c    -1.280151    1.270282   -6.389221    0.000000    0.077000
   119  O     c     1.267559    3.817992   -6.389221    0.000000    0.077000
   120  O     c     1.270282   -1.280151   -6.389221    0.000000    0.077000
   121  O     c     3.817992    1.267559   -6.389221    0.000000    0.077000
   122  O     c     3.817992    1.267559    6.389221    0.000000    0.077000
   123  O     c     1.267559    3.817992    6.389221    0.000000    0.077000
   124  O     c     1.270282   -1.280151    6.389221    0.000000    0.077000
   125  O     c    -1.280151    1.270282    6.389221    0.000000    0.077000
   126  O     c    -1.286434    6.356558    3.832201    0.000000    0.077000
   127  O     c    -3.818716    3.824276    3.832201    0.000000    0.077000
   128  O     c     6.356558   -1.286434    3.832201    0.000000    0.077000
   129  O     c     3.824276   -3.818716    3.832201    0.000000    0.077000
   130  O     c    -1.286434    6.356558   -3.832201    0.000000    0.077000
   131  O     c     6.356558   -1.286434   -3.832201    0.000000    0.077000
   132  O     c    -3.818716    3.824276   -3.832201    0.000000    0.077000
   133  O     c     3.824276   -3.818716   -3.832201    0.000000    0.077000
   134  Zr    c    -5.046838    2.539596   -2.524969    0.000000    2.650000
   135  Zr    c    -5.046838    2.539596    2.524969    0.000000    2.650000
   136  Zr    c     2.539596   -5.046838    2.524969    0.000000    2.650000
   137  Zr    c     2.539596   -5.046838   -2.524969    0.000000    2.650000
   138  Zr    c    -0.001754    7.584680   -2.524969    0.000000    2.650000
   139  Zr    c    -0.001754    7.584680    2.524969    0.000000    2.650000
   140  Zr    c     7.584680   -0.001754    2.524969    0.000000    2.650000
   141  Zr    c     7.584680   -0.001754   -2.524969    0.000000    2.650000
   142  O     c     3.819147   -1.281305    6.388589    0.000000    0.077000
   143  O     c    -1.281305    3.819147    6.388589    0.000000    0.077000
   144  O     c    -1.281305    3.819147   -6.388589    0.000000    0.077000
   145  O     c     3.819147   -1.281305   -6.388589    0.000000    0.077000
   146  O     c     3.810416    3.810416    6.415243    0.000000    0.077000
   147  O     c    -1.272574   -1.272574    6.415243    0.000000    0.077000
   148  O     c     3.810416    3.810416   -6.415243    0.000000    0.077000
   149  O     c    -1.272574   -1.272574   -6.415243    0.000000    0.077000
   150  O     c     6.345775    6.345775   -1.283309    0.000000    0.077000
   151  O     c     6.345775    6.345775    1.283309    0.000000    0.077000
   152  O     c    -3.807933   -3.807933    1.283309    0.000000    0.077000
   153  O     c    -3.807933   -3.807933   -1.283309    0.000000    0.077000
   154  O     c    -3.816842    6.354684    1.273235    0.000000    0.077000
   155  O     c     6.354684   -3.816842    1.273235    0.000000    0.077000
   156  O     c    -3.816842    6.354684   -1.273235    0.000000    0.077000
   157  O     c     6.354684   -3.816842   -1.273235    0.000000    0.077000
   158  Zr    c    -5.070492    5.048237    0.000000    0.000000    2.650000
   159  Zr    c     5.048237   -5.070492    0.000000    0.000000    2.650000
   160  Zr    c    -2.510395    7.608334    0.000000    0.000000    2.650000
   161  Zr    c     7.608334   -2.510395    0.000000    0.000000    2.650000
   162  Zr    c     5.053062    5.053062    5.048304    0.000000    2.650000
   163  Zr    c     5.053062    5.053062   -5.048304    0.000000    2.650000
   164  Zr    c    -2.515220   -2.515220   -5.048304    0.000000    2.650000
   165  Zr    c    -2.515220   -2.515220    5.048304    0.000000    2.650000
   166  O     c     8.854412    1.259632   -1.275920    0.000000    0.077000
   167  O     c     1.278210   -6.316570   -1.275920    0.000000    0.077000
   168  O     c     1.259632    8.854412   -1.275920    0.000000    0.077000
   169  O     c    -6.316570    1.278210   -1.275920    0.000000    0.077000
   170  O     c     1.259632    8.854412    1.275920    0.000000    0.077000
   171  O     c     8.854412    1.259632    1.275920    0.000000    0.077000
   172  O     c    -6.316570    1.278210    1.275920    0.000000    0.077000
   173  O     c     1.278210   -6.316570    1.275920    0.000000    0.077000
   174  Zr    c     5.047807    7.578133   -2.515081    0.000000    2.650000
   175  Zr    c    -5.040291   -2.509965   -2.515081    0.000000    2.650000
   176  Zr    c     7.578133    5.047807    2.515081    0.000000    2.650000
   177  Zr    c     5.047807    7.578133    2.515081    0.000000    2.650000
   178  Zr    c     7.578133    5.047807   -2.515081    0.000000    2.650000
   179  Zr    c    -2.509965   -5.040291   -2.515081    0.000000    2.650000
   180  Zr    c    -2.509965   -5.040291    2.515081    0.000000    2.650000
   181  Zr    c    -5.040291   -2.509965    2.515081    0.000000    2.650000
   182  Zr    c     2.530300    0.007542    7.634688    0.000000    2.650000
   183  Zr    c     0.007542    2.530300    7.634688    0.000000    2.650000
   184  Zr    c     0.007542    2.530300   -7.634688    0.000000    2.650000
   185  Zr    c     2.530300    0.007542   -7.634688    0.000000    2.650000
   186  O     c     3.809799    8.927268    1.276624    0.000000    0.077000
   187  O     c     8.927268    3.809799    1.276624    0.000000    0.077000
   188  O     c     3.809799    8.927268   -1.276624    0.000000    0.077000
   189  O     c     8.927268    3.809799   -1.276624    0.000000    0.077000
   190  O     c    -6.389427   -1.271957    1.276624    0.000000    0.077000
   191  O     c    -1.271957   -6.389427    1.276624    0.000000    0.077000
   192  O     c    -6.389427   -1.271957   -1.276624    0.000000    0.077000
   193  O     c    -1.271957   -6.389427   -1.276624    0.000000    0.077000
   194  O     c    -6.419402    3.814691    1.265691    0.000000    0.077000
   195  O     c     3.814691   -6.419402    1.265691    0.000000    0.077000
   196  O     c    -1.276849    8.957244    1.265691    0.000000    0.077000
   197  O     c     8.957244   -1.276849    1.265691    0.000000    0.077000
   198  O     c    -1.276849    8.957244   -1.265691    0.000000    0.077000
   199  O     c     8.957244   -1.276849   -1.265691    0.000000    0.077000
   200  O     c    -6.419402    3.814691   -1.265691    0.000000    0.077000
   201  O     c     3.814691   -6.419402   -1.265691    0.000000    0.077000
   202  O     c     6.343225    6.343225    3.815006    0.000000    0.077000
   203  O     c     6.343225    6.343225   -3.815006    0.000000    0.077000
   204  O     c    -3.805384   -3.805384   -3.815006    0.000000    0.077000
   205  O     c    -3.805384   -3.805384    3.815006    0.000000    0.077000
   206  O     c     6.354674    1.259990    6.358130    0.000000    0.077000
   207  O     c     1.277851   -3.816832    6.358130    0.000000    0.077000
   208  O     c     1.259990    6.354674    6.358130    0.000000    0.077000
   209  O     c    -3.816832    1.277851    6.358130    0.000000    0.077000
   210  O     c     1.259990    6.354674   -6.358130    0.000000    0.077000
   211  O     c     6.354674    1.259990   -6.358130    0.000000    0.077000
   212  O     c    -3.816832    1.277851   -6.358130    0.000000    0.077000
   213  O     c     1.277851   -3.816832   -6.358130    0.000000    0.077000
   214  O     c    -3.839488    6.377330   -3.819629    0.000000    0.077000
   215  O     c     6.377330   -3.839488   -3.819629    0.000000    0.077000
   216  O     c    -3.839488    6.377330    3.819629    0.000000    0.077000
   217  O     c     6.377330   -3.839488    3.819629    0.000000    0.077000
   218  Zr    c     7.584554    2.533766   -5.047000    0.000000    2.650000
   219  Zr    c     0.004075   -5.046712   -5.047000    0.000000    2.650000
   220  Zr    c     7.584554    2.533766    5.047000    0.000000    2.650000
   221  Zr    c     0.004075   -5.046712    5.047000    0.000000    2.650000
   222  Zr    c     2.533766    7.584554   -5.047000    0.000000    2.650000
   223  Zr    c    -5.046712    0.004075   -5.047000    0.000000    2.650000
   224  Zr    c     2.533766    7.584554    5.047000    0.000000    2.650000
   225  Zr    c    -5.046712    0.004075    5.047000    0.000000    2.650000
   226  O     c    -3.814826    3.806443   -6.360488    0.000000    0.077000
   227  O     c     3.806443   -3.814826   -6.360488    0.000000    0.077000
   228  O     c    -1.268601    6.352668   -6.360488    0.000000    0.077000
   229  O     c     6.352668   -1.268601   -6.360488    0.000000    0.077000
   230  O     c    -1.268601    6.352668    6.360488    0.000000    0.077000
   231  O     c     6.352668   -1.268601    6.360488    0.000000    0.077000
   232  O     c    -3.814826    3.806443    6.360488    0.000000    0.077000
   233  O     c     3.806443   -3.814826    6.360488    0.000000    0.077000
   234  O     c     6.346433    3.799080    6.340507    0.000000    0.077000
   235  O     c     3.799080    6.346433    6.340507    0.000000    0.077000
   236  O     c    -3.808592   -1.261238   -6.340507    0.000000    0.077000
   237  O     c     3.799080    6.346433   -6.340507    0.000000    0.077000
   238  O     c    -1.261238   -3.808592   -6.340507    0.000000    0.077000
   239  O     c     6.346433    3.799080   -6.340507    0.000000    0.077000
   240  O     c    -1.261238   -3.808592    6.340507    0.000000    0.077000
   241  O     c    -3.808592   -1.261238    6.340507    0.000000    0.077000
   242  O     c     1.276892    8.903054    3.817360    0.000000    0.077000
   243  O     c    -6.365212    1.260949    3.817360    0.000000    0.077000
   244  O     c     8.903054    1.276892    3.817360    0.000000    0.077000
   245  O     c     1.260949   -6.365212    3.817360    0.000000    0.077000
   246  O     c     1.276892    8.903054   -3.817360    0.000000    0.077000
   247  O     c     8.903054    1.276892   -3.817360    0.000000    0.077000
   248  O     c    -6.365212    1.260949   -3.817360    0.000000    0.077000
   249  O     c     1.260949   -6.365212   -3.817360    0.000000    0.077000
   250  Zr    c     5.076259    2.537974    7.623812    0.000000    2.650000
   251  Zr    c     2.537974    5.076259    7.623812    0.000000    2.650000
   252  Zr    c    -2.538417   -0.000132   -7.623812    0.000000    2.650000
   253  Zr    c     2.537974    5.076259   -7.623812    0.000000    2.650000
   254  Zr    c    -0.000132   -2.538417   -7.623812    0.000000    2.650000
   255  Zr    c     5.076259    2.537974   -7.623812    0.000000    2.650000
   256  Zr    c    -0.000132   -2.538417    7.623812    0.000000    2.650000
   257  Zr    c    -2.538417   -0.000132    7.623812    0.000000    2.650000
   258  O     c     3.805283    8.868495   -3.811443    0.000000    0.077000
   259  O     c     8.868495    3.805283   -3.811443    0.000000    0.077000
   260  O     c     3.805283    8.868495    3.811443    0.000000    0.077000
   261  O     c     8.868495    3.805283    3.811443    0.000000    0.077000
   262  O     c    -6.330653   -1.267441   -3.811443    0.000000    0.077000
   263  O     c    -1.267441   -6.330653   -3.811443    0.000000    0.077000
   264  O     c    -6.330653   -1.267441    3.811443    0.000000    0.077000
   265  O     c    -1.267441   -6.330653    3.811443    0.000000    0.077000
   266  O     c    -6.352015    3.811869   -3.818217    0.000000    0.077000
   267  O     c    -1.274027    8.889857   -3.818217    0.000000    0.077000
   268  O     c     3.811869   -6.352015   -3.818217    0.000000    0.077000
   269  O     c     8.889857   -1.274027   -3.818217    0.000000    0.077000
   270  O     c    -1.274027    8.889857    3.818217    0.000000    0.077000
   271  O     c     8.889857   -1.274027    3.818217    0.000000    0.077000
   272  O     c    -6.352015    3.811869    3.818217    0.000000    0.077000
   273  O     c     3.811869   -6.352015    3.818217    0.000000    0.077000
   274  O     c     1.268921    1.268921   -9.022294    0.000000    0.077000
   275  O     c     1.268921    1.268921    9.022294    0.000000    0.077000
   276  Zr    c     7.592922    7.592922    0.000000    0.000000    2.650000
   277  Zr    c    -5.055080   -5.055080    0.000000    0.000000    2.650000
   278  Zr    c    -5.075294    5.072962    5.063878    0.000000    2.650000
   279  Zr    c     5.072962   -5.075294    5.063878    0.000000    2.650000
   280  Zr    c     5.072962   -5.075294   -5.063878    0.000000    2.650000
   281  Zr    c     7.613135   -2.535120   -5.063878    0.000000    2.650000
   282  Zr    c    -5.075294    5.072962   -5.063878    0.000000    2.650000
   283  Zr    c    -2.535120    7.613135   -5.063878    0.000000    2.650000
   284  Zr    c    -2.535120    7.613135    5.063878    0.000000    2.650000
   285  Zr    c     7.613135   -2.535120    5.063878    0.000000    2.650000
   286  Zr    c    -0.016329   10.138029    0.000000    0.000000    2.650000
   287  Zr    c    -7.600187    2.554171    0.000000    0.000000    2.650000
   288  Zr    c    10.138029   -0.016329    0.000000    0.000000    2.650000
   289  Zr    c     2.554171   -7.600187    0.000000    0.000000    2.650000
   290  O     c     6.346110    8.882116   -1.265926    0.000000    0.077000
   291  O     c    -6.344274   -3.808268   -1.265926    0.000000    0.077000
   292  O     c     8.882116    6.346110   -1.265926    0.000000    0.077000
   293  O     c    -3.808268   -6.344274   -1.265926    0.000000    0.077000
   294  O     c     6.346110    8.882116    1.265926    0.000000    0.077000
   295  O     c     8.882116    6.346110    1.265926    0.000000    0.077000
   296  O     c    -6.344274   -3.808268    1.265926    0.000000    0.077000
   297  O     c    -3.808268   -6.344274    1.265926    0.000000    0.077000
   298  O     c    -6.360292    6.357705   -1.275379    0.000000    0.077000
   299  O     c    -3.819863    8.898134   -1.275379    0.000000    0.077000
   300  O     c     6.357705   -6.360292   -1.275379    0.000000    0.077000
   301  O     c     8.898134   -3.819863   -1.275379    0.000000    0.077000
   302  O     c    -3.819863    8.898134    1.275379    0.000000    0.077000
   303  O     c     8.898134   -3.819863    1.275379    0.000000    0.077000
   304  O     c    -6.360292    6.357705    1.275379    0.000000    0.077000
   305  O     c     6.357705   -6.360292    1.275379    0.000000    0.077000
   306  O     c     3.813728    1.265093    8.911540    0.000000    0.077000
   307  O     c     1.272749   -1.275886    8.911540    0.000000    0.077000
   308  O     c     1.265093    3.813728    8.911540    0.000000    0.077000
   309  O     c    -1.275886    1.272749    8.911540    0.000000    0.077000
   310  O     c    -1.275886    1.272749   -8.911540    0.000000    0.077000
   311  O     c     1.265093    3.813728   -8.911540    0.000000    0.077000
   312  O     c     1.272749   -1.275886   -8.911540    0.000000    0.077000
   313  O     c     3.813728    1.265093   -8.911540    0.000000    0.077000
   314  Zr    c     5.072306   -2.534464    7.613415    0.000000    2.650000
   315  Zr    c    -2.534464    5.072306   -7.613415    0.000000    2.650000
   316  Zr    c    -2.534464    5.072306    7.613415    0.000000    2.650000
   317  Zr    c     5.072306   -2.534464   -7.613415    0.000000    2.650000
   318  Zr    c    -5.075450    7.613292   -2.530683    0.000000    2.650000
   319  Zr    c    -5.075450    7.613292    2.530683    0.000000    2.650000
   320  Zr    c     7.613292   -5.075450    2.530683    0.000000    2.650000
   321  Zr    c     7.613292   -5.075450   -2.530683    0.000000    2.650000
   322  Zr    c     2.538274   10.137051   -2.534006    0.000000    2.650000
   323  Zr    c    -7.599209   -0.000432   -2.534006    0.000000    2.650000
   324  Zr    c     2.538274   10.137051    2.534006    0.000000    2.650000
   325  Zr    c    -7.599209   -0.000432    2.534006    0.000000    2.650000
   326  Zr    c    10.137051    2.538274    2.534006    0.000000    2.650000
   327  Zr    c    -0.000432   -7.599209    2.534006    0.000000    2.650000
   328  Zr    c    10.137051    2.538274   -2.534006    0.000000    2.650000
   329  Zr    c    -0.000432   -7.599209   -2.534006    0.000000    2.650000
   330  O     c     6.347920    6.347920    6.357645    0.000000    0.077000
   331  O     c    -3.810078   -3.810078    6.357645    0.000000    0.077000
   332  O     c     6.347920    6.347920   -6.357645    0.000000    0.077000
   333  O     c    -3.810078   -3.810078   -6.357645    0.000000    0.077000
   334  O     c    -3.810193    6.348035    6.359219    0.000000    0.077000
   335  O     c     6.348035   -3.810193   -6.359219    0.000000    0.077000
   336  O     c     6.348035   -3.810193    6.359219    0.000000    0.077000
   337  O     c    -3.810193    6.348035   -6.359219    0.000000    0.077000
   338  O     c    -1.280216    3.818058   -8.922091    0.000000    0.077000
   339  O     c     3.818058   -1.280216   -8.922091    0.000000    0.077000
   340  O     c     3.818058   -1.280216    8.922091    0.000000    0.077000
[...]
    142 y          5.075684      5.056035    -0.019648    Cartesian   -0.39
    142 z          0.000000      0.000000     0.000000    Cartesian    0.00
    143 x          5.075684      5.054910    -0.020773    Cartesian   -0.41
    143 y          5.075684      5.054910    -0.020773    Cartesian   -0.41
    143 z          5.075684      5.053494    -0.022190    Cartesian   -0.44
    144 x          8.882446      8.853829    -0.028617    Cartesian   -0.32
    144 y          1.268921      1.259387    -0.009534    Cartesian   -0.75
    144 z         -1.268921     -1.276320    -0.007399    Cartesian    0.58
    145 x          5.075684      5.051562    -0.024121    Cartesian   -0.48
    145 y          7.613525      7.583322    -0.030204    Cartesian   -0.40
    145 z         -2.537842     -2.518936     0.018906    Cartesian   -0.74
    146 x          2.537842      2.535700    -0.002141    Cartesian   -0.08
    146 y         -0.000000      0.002141     0.002141    Cartesian *******
    146 z          7.613525      7.640923     0.027398    Cartesian    0.36
    147 x          3.806763      3.810120     0.003358    Cartesian    0.09
    147 y          8.882446      8.928695     0.046248    Cartesian    0.52
    147 z          1.268921      1.277124     0.008203    Cartesian    0.65
    148 x         -6.344605     -6.421532    -0.076928    Cartesian    1.21
    148 y          3.806763      3.815051     0.008288    Cartesian    0.22
    148 z          1.268921      1.265130    -0.003791    Cartesian   -0.30
    149 x          6.344605      6.343366    -0.001238    Cartesian   -0.02
    149 y          6.344605      6.343366    -0.001238    Cartesian   -0.02
    149 z          3.806763      3.815303     0.008541    Cartesian    0.22
    150 x          6.344605      6.354573     0.009969    Cartesian    0.16
    150 y          1.268921      1.259236    -0.009684    Cartesian   -0.76
    150 z          6.344605      6.357858     0.013253    Cartesian    0.21
    151 x         -3.806763     -3.840163    -0.033401    Cartesian    0.88
    151 y          6.344605      6.378005     0.033401    Cartesian    0.53
    151 z         -3.806763     -3.819821    -0.013059    Cartesian    0.34
    152 x          7.613525      7.588764    -0.024761    Cartesian   -0.33
    152 y          2.537842      2.534362    -0.003479    Cartesian   -0.14
    152 z         -5.075684     -5.051806     0.023878    Cartesian   -0.47
    153 x         -3.806763     -3.814518    -0.007756    Cartesian    0.20
    153 y          3.806763      3.805820    -0.000943    Cartesian   -0.02
    153 z         -6.344605     -6.360469    -0.015865    Cartesian    0.25
    154 x          6.344605      6.346790     0.002185    Cartesian    0.03
    154 y          3.806763      3.798885    -0.007877    Cartesian   -0.21
    154 z          6.344605      6.340560    -0.004045    Cartesian   -0.06
    155 x          1.268921      1.277306     0.008385    Cartesian    0.66
    155 y          8.882446      8.903884     0.021438    Cartesian    0.24
    155 z          3.806763      3.817847     0.011084    Cartesian    0.29
    156 x          5.075684      5.077833     0.002150    Cartesian    0.04
    156 y          2.537842      2.537661    -0.000181    Cartesian   -0.01
    156 z          7.613525      7.625847     0.012322    Cartesian    0.16
    157 x          3.806763      3.805027    -0.001735    Cartesian   -0.05
    157 y          8.882446      8.868431    -0.014015    Cartesian   -0.16
    157 z         -3.806763     -3.811697    -0.004934    Cartesian    0.13
    158 x         -6.344605     -6.352439    -0.007834    Cartesian    0.12
    158 y          3.806763      3.812292     0.005529    Cartesian    0.15
    158 z         -3.806763     -3.818945    -0.012183    Cartesian    0.32
    159 x          1.268921      1.268921     0.000000    Cartesian    0.00
    159 y          1.268921      1.268921     0.000000    Cartesian    0.00
    159 z         -8.882446     -9.025584    -0.143137    Cartesian    1.61
    160 x          7.613525      7.595293    -0.018232    Cartesian   -0.24
    160 y          7.613525      7.595293    -0.018232    Cartesian   -0.24
    160 z          0.000000      0.000000     0.000000    Cartesian    0.00
    161 x         -5.075684     -5.076776    -0.001093    Cartesian    0.02
    161 y          5.075684      5.074947    -0.000737    Cartesian   -0.01
    161 z          5.075684      5.067357    -0.008327    Cartesian   -0.16
    162 x          0.000000     -0.010498    -0.010498    Cartesian *******
    162 y         10.151367     10.142167    -0.009201    Cartesian   -0.09
    162 z          0.000000      0.000000     0.000000    Cartesian    0.00
    163 x          6.344605      6.346601     0.001997    Cartesian    0.03
    163 y          8.882446      8.882475     0.000029    Cartesian    0.00
    163 z         -1.268921     -1.265718     0.003203    Cartesian   -0.25
    164 x         -6.344605     -6.360950    -0.016346    Cartesian    0.26
    164 y          6.344605      6.358295     0.013691    Cartesian    0.22
    164 z         -1.268921     -1.275581    -0.006660    Cartesian    0.52
    165 x          3.806763      3.813883     0.007121    Cartesian    0.19
    165 y          1.268921      1.264585    -0.004336    Cartesian   -0.34
    165 z          8.882446      8.911948     0.029502    Cartesian    0.33
    166 x          5.075684      5.074081    -0.001603    Cartesian   -0.03
    166 y         -2.537842     -2.536239     0.001603    Cartesian   -0.06
    166 z          7.613525      7.616391     0.002866    Cartesian    0.04
    167 x         -5.075684     -5.077454    -0.001771    Cartesian    0.03
    167 y          7.613525      7.615296     0.001771    Cartesian    0.02
    167 z         -2.537842     -2.532171     0.005671    Cartesian   -0.22
    168 x          2.537842      2.537637    -0.000204    Cartesian   -0.01
    168 y         10.151367     10.139659    -0.011709    Cartesian   -0.12
    168 z         -2.537842     -2.535096     0.002746    Cartesian   -0.11
    169 x          6.344605      6.348558     0.003954    Cartesian    0.06
    169 y          6.344605      6.348558     0.003954    Cartesian    0.06
    169 z          6.344605      6.358705     0.014101    Cartesian    0.22
    170 x         -3.806763     -3.810663    -0.003900    Cartesian    0.10
    170 y          6.344605      6.348505     0.003900    Cartesian    0.06
    170 z          6.344605      6.359998     0.015394    Cartesian    0.24
    171 x         -1.268921     -1.280270    -0.011349    Cartesian    0.89
    171 y          3.806763      3.818111     0.011349    Cartesian    0.30
    171 z         -8.882446     -8.922921    -0.040475    Cartesian    0.46
    172 x         -1.268921     -1.274322    -0.005401    Cartesian    0.43
    172 y         -1.268921     -1.274322    -0.005401    Cartesian    0.43
    172 z         -8.882446     -8.928817    -0.046371    Cartesian    0.52
    173 x          5.075684      5.066342    -0.009342    Cartesian   -0.18
    173 y         10.151367     10.144522    -0.006845    Cartesian   -0.07
    173 z          0.000000      0.000000     0.000000    Cartesian    0.00
    174 x          8.882446      8.896144     0.013698    Cartesian    0.15
    174 y          6.344605      6.352117     0.007513    Cartesian    0.12
    174 z          3.806763      3.815299     0.008536    Cartesian    0.22
    175 x         -6.344605     -6.360717    -0.016112    Cartesian    0.25
    175 y          1.268921      1.274868     0.005947    Cartesian    0.47
    175 z         -6.344605     -6.360290    -0.015685    Cartesian    0.25
    176 x         -3.806763     -3.809481    -0.002719    Cartesian    0.07
    176 y          8.882446      8.904170     0.021724    Cartesian    0.24
    176 z          3.806763      3.810958     0.004195    Cartesian    0.11
    177 x          7.613525      7.617169     0.003644    Cartesian    0.05
    177 y          0.000000     -0.000918    -0.000918    Cartesian    0.00
    177 z          7.613525      7.614890     0.001365    Cartesian    0.02
    178 x         -2.537842     -2.533704     0.004138    Cartesian   -0.16
    178 y         10.151367     10.149950    -0.001417    Cartesian   -0.01
    178 z         -2.537842     -2.533923     0.003919    Cartesian   -0.15
    179 x          8.882446      8.886951     0.004505    Cartesian    0.05
    179 y          3.806763      3.811776     0.005014    Cartesian    0.13
    179 z          6.344605      6.357069     0.012465    Cartesian    0.20
    180 x         -1.268921     -1.271817    -0.002897    Cartesian    0.23
    180 y          8.882446      8.884936     0.002490    Cartesian    0.03
    180 z          6.344605      6.358731     0.014127    Cartesian    0.22
    181 x          1.268921      1.271566     0.002645    Cartesian    0.21
    181 y         11.420288     11.408834    -0.011454    Cartesian   -0.10
    181 z          1.268921      1.271916     0.002995    Cartesian    0.24
    182 x         -3.806763     -3.813428    -0.006665    Cartesian    0.18
    182 y          1.268921      1.266872    -0.002049    Cartesian   -0.16
    182 z         -8.882446     -8.891905    -0.009459    Cartesian    0.11
    183 x          7.613525      7.604703    -0.008823    Cartesian   -0.12
    183 y          7.613525      7.604703    -0.008823    Cartesian   -0.12
    183 z          5.075684      5.065206    -0.010478    Cartesian   -0.21
    184 x          0.000000      0.002892     0.002892    Cartesian *******
    184 y         10.151367     10.143836    -0.007532    Cartesian   -0.07
    184 z         -5.075684     -5.069323     0.006360    Cartesian   -0.13
    185 x          2.537842      2.532554    -0.005288    Cartesian   -0.21
    185 y          2.537842      2.532554    -0.005288    Cartesian   -0.21
    185 z         10.151367     10.168552     0.017185    Cartesian    0.17
    186 x          6.344605      6.358712     0.014108    Cartesian    0.22
    186 y         -1.268921     -1.269456    -0.000535    Cartesian    0.04
    186 z          8.882446      8.889832     0.007385    Cartesian    0.08
    187 x          6.344605      6.346885     0.002281    Cartesian    0.04
    187 y          3.806763      3.807668     0.000906    Cartesian    0.02
    187 z          8.882446      8.882971     0.000525    Cartesian    0.01
    188 x          3.806763      3.805228    -0.001535    Cartesian   -0.04
    188 y         11.420288     11.441858     0.021570    Cartesian    0.19
    188 z         -1.268921     -1.266509     0.002411    Cartesian   -0.19
    189 x         -1.268921     -1.267451     0.001470    Cartesian   -0.12
    189 y         11.420288     11.451624     0.031336    Cartesian    0.27
    189 z         -1.268921     -1.274199    -0.005278    Cartesian    0.42
    190 x          7.613525      7.606836    -0.006689    Cartesian   -0.09
    190 y          5.075684      5.074839    -0.000844    Cartesian   -0.02
    190 z          7.613525      7.602039    -0.011487    Cartesian   -0.15
    191 x          8.882446      8.885920     0.003474    Cartesian    0.04
    191 y          8.882446      8.885920     0.003474    Cartesian    0.04
    191 z          1.268921      1.275474     0.006553    Cartesian    0.52
    192 x         -6.344605     -6.351158    -0.006554    Cartesian    0.10
    192 y          8.882446      8.889000     0.006554    Cartesian    0.07
    192 z          1.268921      1.270225     0.001304    Cartesian    0.10
    193 x          1.268921      1.263972    -0.004949    Cartesian   -0.39
    193 y         11.420288     11.429425     0.009137    Cartesian    0.08
    193 z         -3.806763     -3.810605    -0.003843    Cartesian    0.10
    194 x         10.151367     10.139266    -0.012101    Cartesian   -0.12
    194 y          5.075684      5.073643    -0.002041    Cartesian   -0.04
    194 z          5.075684      5.068490    -0.007194    Cartesian   -0.14
    195 x          5.075684      5.075279    -0.000405    Cartesian   -0.01
    195 y         -0.000000      0.000166     0.000166    Cartesian *******
    195 z         10.151367     10.152625     0.001257    Cartesian    0.01
    196 x         -5.075684     -5.068998     0.006686    Cartesian   -0.13
    196 y         10.151367     10.144807    -0.006560    Cartesian   -0.06
    196 z          0.000000      0.000000     0.000000    Cartesian    0.00
    197 x         -6.344605     -6.351371    -0.006766    Cartesian    0.11
    197 y          6.344605      6.353063     0.008459    Cartesian    0.13
    197 z         -6.344605     -6.352430    -0.007826    Cartesian    0.12
    198 x          3.806763      3.809825     0.003063    Cartesian    0.08
    198 y         11.420288     11.420378     0.000090    Cartesian    0.00
    198 z          3.806763      3.809970     0.003208    Cartesian    0.08
    199 x         -1.268921     -1.272878    -0.003957    Cartesian    0.31
    199 y         11.420288     11.425196     0.004908    Cartesian    0.04
    199 z          3.806763      3.807819     0.001057    Cartesian    0.03
    200 x          6.344605      6.344139    -0.000465    Cartesian   -0.01
    200 y          8.882446      8.885336     0.002890    Cartesian    0.03
    200 z         -6.344605     -6.349890    -0.005286    Cartesian    0.08
    201 x          7.613525      7.603865    -0.009660    Cartesian   -0.13
    201 y         10.151367     10.137559    -0.013809    Cartesian   -0.14
    201 z         -2.537842     -2.533185     0.004657    Cartesian   -0.18
    202 x         -6.344605     -6.357608    -0.013004    Cartesian    0.20
    202 y          8.882446      8.895450     0.013004    Cartesian    0.15
    202 z         -3.806763     -3.813905    -0.007142    Cartesian    0.19
    203 x          8.882446      8.886095     0.003648    Cartesian    0.04
    203 y          8.882446      8.886095     0.003648    Cartesian    0.04
    203 z         -3.806763     -3.807536    -0.000773    Cartesian    0.02
    204 x          6.344605      6.347199     0.002595    Cartesian    0.04
    204 y          6.344605      6.347199     0.002595    Cartesian    0.04
    204 z          8.882446      8.891650     0.009204    Cartesian    0.10
    205 x         -3.806763     -3.811599    -0.004836    Cartesian    0.13
    205 y          6.344605      6.349440     0.004836    Cartesian    0.08
    205 z         -8.882446     -8.897095    -0.014649    Cartesian    0.16
    206 x          6.344605      6.350122     0.005517    Cartesian    0.09
    206 y         11.420288     11.430415     0.010127    Cartesian    0.09
    206 z          1.268921      1.273648     0.004727    Cartesian    0.37
    207 x          1.268921      1.268921     0.000000    Cartesian    0.00
    207 y          1.268921      1.268921     0.000000    Cartesian    0.00
    207 z         11.420288     11.479763     0.059475    Cartesian    0.52
    208 x         -3.806763     -3.811100    -0.004338    Cartesian    0.11
    208 y         11.420288     11.433630     0.013342    Cartesian    0.12
    208 z          1.268921      1.269714     0.000793    Cartesian    0.06
    209 x          5.075684      5.070855    -0.004828    Cartesian   -0.10
    209 y          5.075684      5.070855    -0.004828    Cartesian   -0.10
    209 z         10.151367     10.144930    -0.006437    Cartesian   -0.06
    210 x          2.537842      2.541678     0.003836    Cartesian    0.15
    210 y         12.689209     12.672120    -0.017089    Cartesian   -0.13
    210 z          0.000000      0.000000     0.000000    Cartesian    0.00
    211 x          8.882446      8.886911     0.004465    Cartesian    0.05
    211 y          1.268921      1.264866    -0.004055    Cartesian   -0.32
    211 z          8.882446      8.895420     0.012974    Cartesian    0.15
    212 x         -1.268921     -1.276595    -0.007675    Cartesian    0.60
    212 y          1.268921      1.271496     0.002576    Cartesian    0.20
    212 z        -11.420288    -11.438480    -0.018191    Cartesian    0.16
    213 x         -5.075684     -5.066158     0.009526    Cartesian   -0.19
    213 y          7.613525      7.604000    -0.009526    Cartesian   -0.13
    213 z         -7.613525     -7.602030     0.011496    Cartesian   -0.15
    214 x         10.151367     10.138639    -0.012728    Cartesian   -0.13
    214 y          2.537842      2.537336    -0.000506    Cartesian   -0.02
    214 z          7.613525      7.600473    -0.013052    Cartesian   -0.17
    215 x         12.689209     12.672360    -0.016849    Cartesian   -0.13
    215 y          0.000000     -0.000828    -0.000828    Cartesian *******
    215 z         -2.537842     -2.532035     0.005807    Cartesian   -0.23
    216 x          6.344605      6.346768     0.002163    Cartesian    0.03
    216 y         11.420288     11.438350     0.018062    Cartesian    0.16
    216 z         -3.806763     -3.812446    -0.005683    Cartesian    0.15
    217 x         -6.344605     -6.362858    -0.018254    Cartesian    0.29
    217 y          3.806763      3.814934     0.008172    Cartesian    0.21
    217 z         -8.882446     -8.902043    -0.019597    Cartesian    0.22
    218 x          3.806763      3.812271     0.005509    Cartesian    0.14
    218 y         -1.268921     -1.274430    -0.005509    Cartesian    0.43
    218 z         11.420288     11.448160     0.027872    Cartesian    0.24
    219 x          3.806763      3.812450     0.005688    Cartesian    0.15
    219 y          3.806763      3.812450     0.005688    Cartesian    0.15
    219 z         11.420288     11.454821     0.034532    Cartesian    0.30
    220 x         -8.882446     -8.909386    -0.026940    Cartesian    0.30
    220 y          6.344605      6.358267     0.013663    Cartesian    0.22
    220 z         -3.806763     -3.818793    -0.012031    Cartesian    0.32
    221 x          1.268921      1.272673     0.003752    Cartesian    0.30
    221 y         11.420288     11.439145     0.018857    Cartesian    0.17
    221 z          6.344605      6.352485     0.007880    Cartesian    0.12
    222 x         -6.344605     -6.351174    -0.006569    Cartesian    0.10
    222 y         -1.268921     -1.267472     0.001449    Cartesian   -0.11
    222 z         -8.882446     -8.898913    -0.016467    Cartesian    0.19
--------------------------------------------------------------------------------


  Time to end of optimisation  =       55.3299 seconds


  Peak dynamic memory used =     349.04 MB 


  Timing analysis for GULP :

--------------------------------------------------------------------------------
  Task / Subroutine                                          Time (Seconds)
--------------------------------------------------------------------------------
  Calculation of reciprocal space energy and derivatives          0.0003
  Calculation of reciprocal space energy using symmetry           0.0003
  Calculation of real space energy and derivatives                0.0025
  Calculation of real space energy using symmetry                 0.0078
  Calculation for region 1 energy and derivatives (2-b)          16.6636
  Calculation for region 2a energy                               36.1708
  Calculation for region 2b energy                                0.0003
  Calculation and manipulation of Hessian matrix                  1.9563
  Calculation of matrix inversion                                 0.1375
  Symmetry generation of equivalent positions                     0.0016
--------------------------------------------------------------------------------
  Total CPU time                                                 55.3299
--------------------------------------------------------------------------------


  Dump file written as ZrO2.grs


  Job Finished at 13:16.57  6th October    2020                               

