********************************************************************************
*                       GENERAL UTILITY LATTICE PROGRAM                        *
*                                 Julian Gale                                  *
*                       Curtin Institute for Computation                       *
*                    School of Molecular and Life Sciences                     *
*                    Curtin University, Western Australia                      *
********************************************************************************
* Version = 5.2.0 * Last modified =  10th September 2020                       *
********************************************************************************
* Zirconia doped with calcium                                                  *
*  optimise     - perform optimisation run                                     *
*  conp         - constant pressure calculation                                *
*  property     - calculate properties for final geometry                      *
*  defect       - perform defect calculation after bulk run                    *
*  distance     - calculate distances                                          *
*  compare      - compare initial and final structures                         *
********************************************************************************
* Zirconia doped with calcium                                                  *
********************************************************************************


  Job Started  at 10:31.05  6th October    2020                               

  Number of CPUs =     1


  Total number of configurations input =      1

********************************************************************************
*  Input for Configuration =   1 : ZrO2                                        *
********************************************************************************

  Formula = ZrO2                                                        

  Number of irreducible atoms/shells =       4


  Total number atoms/shells =       6

  Dimensionality = 3               :  Bulk   


  Symmetry :

  Crystal family                   :  Cubic       
  Crystal class  (Groth - 1921)    :  Cubic Hexakisoctahedral              

  Space group (centrosymmetric)    :  F M 3 M         

  Patterson group                  :  F m -3 m 

  Cartesian lattice vectors (Angstroms) :

        0.000000    2.535000    2.535000
        2.535000    0.000000    2.535000
        2.535000    2.535000    0.000000

  Primitive cell parameters :            Full cell parameters :

  a =   3.5850    alpha =  60.0000       a =   5.0700    alpha =  90.0000
  b =   3.5850    beta  =  60.0000       b =   5.0700    beta  =  90.0000
  c =   3.5850    gamma =  60.0000       c =   5.0700    gamma =  90.0000

  Initial volumes (Angstroms**3):

  Primitive cell =          32.580961    Full cell =         130.323843

  Temperature of configuration =   0.00     K 

  Pressure of configuration =         0.000 GPa 

  Fractional coordinates of asymmetric unit :

--------------------------------------------------------------------------------
   No.  Atomic       x           y          z         Charge      Occupancy
        Label      (Frac)      (Frac)     (Frac)        (e)         (Frac)  
--------------------------------------------------------------------------------
      1 Zr    c    0.000000    0.000000    0.000000     2.65000    1.000000    
      2 O     c    0.250000    0.250000    0.250000     0.07700    1.000000    
      3 Zr    s    0.000000    0.000000    0.000000     1.35000    1.000000    
      4 O     s    0.250000    0.250000    0.250000    -2.07700    1.000000    
--------------------------------------------------------------------------------


  Constraints : 

--------------------------------------------------------------------------------
  Constraint no.      Unconstrained     Constrained    Coefficient    Offset
                         Variable         Variable
--------------------------------------------------------------------------------
           1              Strain 1        Strain 2       1.00000      0.0000
           2              Strain 1        Strain 3       1.00000      0.0000
--------------------------------------------------------------------------------


  Distance calculation :


  Cutoff for distances  =      4.000000 Angstroms

--------------------------------------------------------------------------------
  Asymmetric unit site  Full lattice sites    No.  Distance      No.  Distance
      No.   At.No.            At.No.                (Angs)             (Angs) 
--------------------------------------------------------------------------------
       1   Zr    core        Zr    core        12    3.5850
                             Zr    shell       12    3.5850
                             O     core         8    2.1954
                             O     shell        8    2.1954
--------------------------------------------------------------------------------
       2   O     core        Zr    core         4    2.1954
                             Zr    shell        4    2.1954
                             O     core         6    2.5350       12    3.5850
                             O     shell        6    2.5350       12    3.5850
--------------------------------------------------------------------------------
       3   Zr    shell       Zr    core        12    3.5850
                             Zr    shell       12    3.5850
                             O     core         8    2.1954
                             O     shell        8    2.1954
--------------------------------------------------------------------------------
       4   O     shell       Zr    core         4    2.1954
                             Zr    shell        4    2.1954
                             O     core         6    2.5350       12    3.5850
                             O     shell        6    2.5350       12    3.5850
--------------------------------------------------------------------------------



********************************************************************************
*  General input information                                                   *
********************************************************************************

  Species output for all configurations : 

--------------------------------------------------------------------------------
  Species    Type    Atomic    Atomic    Charge       Radii (Angs)     Library
                     Number     Mass       (e)     Cova   Ionic  VDW   Symbol
--------------------------------------------------------------------------------
    Zr       Core       40      91.22   2.650000   1.560  0.000  2.330          
    Zr       Shell      40       0.00   1.350000   1.560  0.000  2.330          
    O        Core        8      16.00   0.077000   0.730  0.000  1.360          
    O        Shell       8       0.00  -2.077000   0.730  0.000  1.360          
--------------------------------------------------------------------------------


  Lattice summation method               =    Ewald          (3-D)
                                         =    Parry          (2-D)
                                         =    Saunders et al (1-D)
  Accuracy factor for lattice sums       =   12.000


  Analytic derivatives to be used

  Time limit = Infinity

  Maximum range for interatomic potentials =    100000.000000 Angstroms

  General interatomic potentials :

--------------------------------------------------------------------------------
Atom  Types   Potential      Parameter       Value         Units   Cutoffs(Ang)
  1     2                                                            Min /  Max 
--------------------------------------------------------------------------------
O    s Zr   s Buckingham    Buckingham A     985.86900    eV        0.000 12.000
                            Buckingham rho  0.37600000    Ang       
                            Buckingham C     0.0000000    eV*Ang^6  
--------------------------------------------------------------------------------
O    s O    s Buckingham    Buckingham A     22764.300    eV        0.000 12.000
                            Buckingham rho  0.14900000    Ang       
                            Buckingham C     27.890000    eV*Ang^6  
--------------------------------------------------------------------------------
Zr   c Zr   s Spring (c-s)  Spring k 2       169.61700    eV*Ang^-2 0.000  0.800
                            Spring k 4       0.0000000    eV*Ang^-4 
--------------------------------------------------------------------------------
O    c O    s Spring (c-s)  Spring k 2       27.290000    eV*Ang^-2 0.000  0.800
                            Spring k 4       0.0000000    eV*Ang^-4 
--------------------------------------------------------------------------------

********************************************************************************
*  Output for configuration   1 : ZrO2                                         *
********************************************************************************


  Components of energy : 

--------------------------------------------------------------------------------
  Interatomic potentials     =          22.43756329 eV    
  Monopole - monopole (real) =         -15.67991073 eV    
  Monopole - monopole (recip)=        -116.52038266 eV    
  Monopole - monopole (total)=        -132.20029339 eV    
--------------------------------------------------------------------------------
  Total lattice energy : 
    Primitive unit cell      =        -109.76273010 eV    
    Non-primitive unit cell  =        -439.05092039 eV    
--------------------------------------------------------------------------------
  Total lattice energy (in kJmol-1): 
    Primitive unit cell      =          -10590.4256 kJ/(mole unit cells)
    Non-primitive unit cell  =          -42361.7023 kJ/(mole unit cells)
--------------------------------------------------------------------------------


  Number of variables =        1

  Maximum number of calculations  =          1000
  Maximum Hessian update interval =            10
  Maximum step size               =   1.000000000
  Maximum parameter tolerance     =   0.000010000
  Maximum function  tolerance     =   0.000010000
  Maximum gradient  tolerance     =   0.001000000
  Maximum gradient  component     =   0.010000000

  Symmetry constrained optimisation

  Symmetry used for second derivatives

  Cell parameters to be optimised using strains

  Newton-Raphson optimiser to be used

  BFGS hessian update to be used

  Lower half triangular hessian to be used

  Start of bulk optimisation :

  Cycle:      0 Energy:      -109.762730  Gnorm:      0.588311  CPU:    0.033
  ** Hessian calculated **
  Cycle:      1 Energy:      -109.763059  Gnorm:      0.000316  CPU:    0.044


  **** Optimisation achieved ****


  Final energy =    -109.76305939 eV
  Final Gnorm  =       0.00000099

  Components of energy : 

--------------------------------------------------------------------------------
  Interatomic potentials     =          22.28919976 eV    
  Monopole - monopole (real) =         -15.66235280 eV    
  Monopole - monopole (recip)=        -116.38990634 eV    
  Monopole - monopole (total)=        -132.05225914 eV    
--------------------------------------------------------------------------------
  Total lattice energy : 
    Primitive unit cell      =        -109.76305939 eV    
    Non-primitive unit cell  =        -439.05223754 eV    
--------------------------------------------------------------------------------
  Total lattice energy (in kJmol-1): 
    Primitive unit cell      =          -10590.4573 kJ/(mole unit cells)
    Non-primitive unit cell  =          -42361.8294 kJ/(mole unit cells)
--------------------------------------------------------------------------------

  Final asymmetric unit coordinates :

--------------------------------------------------------------------------------
   No.  Atomic        x           y           z         Radius
        Label       (Frac)      (Frac)      (Frac)       (Angs) 
--------------------------------------------------------------------------------
     1  Zr    c     0.000000    0.000000    0.000000    0.000000
     2  O     c     0.250000    0.250000    0.250000    0.000000
     3  Zr    s     0.000000    0.000000    0.000000    0.000000
     4  O     s     0.250000    0.250000    0.250000    0.000000
--------------------------------------------------------------------------------

  Final Cartesian lattice vectors (Angstroms) :

        0.000000    2.537842    2.537842
        2.537842    0.000000    2.537842
        2.537842    2.537842    0.000000


  Final cell parameters and derivatives :

--------------------------------------------------------------------------------
       a            3.589050 Angstrom     dE/de1(xx)    -0.000001 eV/strain
       b            3.589050 Angstrom     dE/de2(yy)     0.000000 eV/strain
       c            3.589050 Angstrom     dE/de3(zz)     0.000000 eV/strain
       alpha       60.000000 Degrees      dE/de4(yz)     0.000000 eV/strain
       beta        60.000000 Degrees      dE/de5(xz)     0.000000 eV/strain
       gamma       60.000000 Degrees      dE/de6(xy)     0.000000 eV/strain
--------------------------------------------------------------------------------

  Primitive cell volume =            32.690656 Angs**3

  Density of cell =      6.259124 g/cm**3

  Non-primitive lattice parameters :

  a    =     5.075684  b   =     5.075684  c    =     5.075684
  alpha=    90.000000  beta=    90.000000  gamma=    90.000000

  Non-primitive cell volume =           130.762624 Angs**3


  Final internal derivatives :

--------------------------------------------------------------------------------
   No.  Atomic          a             b             c           Radius
        Label          (eV)          (eV)          (eV)        (eV/Angs)
--------------------------------------------------------------------------------
      1 Zr    c       0.000000      0.000000      0.000000      0.000000
      2 O     c       0.000000      0.000000      0.000000      0.000000
      3 Zr    s       0.000000      0.000000      0.000000      0.000000
      4 O     s       0.000000      0.000000      0.000000      0.000000
--------------------------------------------------------------------------------
  Maximum abs         0.000000      0.000000      0.000000      0.000000
--------------------------------------------------------------------------------

  Comparison of initial and final structures : 

--------------------------------------------------------------------------------
  Parameter   Initial value   Final value   Difference    Units      Percent
--------------------------------------------------------------------------------
    Volume       130.323843    130.762624     0.438781    Angs**3      0.34
    a              5.070000      5.075684     0.005684    Angstroms    0.11
    b              5.070000      5.075684     0.005684    Angstroms    0.11
    c              5.070000      5.075684     0.005684    Angstroms    0.11
    alpha         90.000000     90.000000     0.000000    Degrees      0.00
    beta          90.000000     90.000000     0.000000    Degrees      0.00
    gamma         90.000000     90.000000     0.000000    Degrees      0.00
      1 x          0.000000      0.000000     0.000000    Fractional   0.00
      1 y          0.000000      0.000000     0.000000    Fractional   0.00
      1 z          0.000000      0.000000     0.000000    Fractional   0.00
      2 x          0.250000      0.250000     0.000000    Fractional   0.00
      2 y          0.250000      0.250000     0.000000    Fractional   0.00
      2 z          0.250000      0.250000     0.000000    Fractional   0.00
      3 x          0.000000      0.000000     0.000000    Fractional   0.00
      3 y          0.000000      0.000000     0.000000    Fractional   0.00
      3 z          0.000000      0.000000     0.000000    Fractional   0.00
      4 x          0.250000      0.250000     0.000000    Fractional   0.00
      4 y          0.250000      0.250000     0.000000    Fractional   0.00
      4 z          0.250000      0.250000     0.000000    Fractional   0.00
--------------------------------------------------------------------------------


  Distance calculation :


  Cutoff for distances  =      4.000000 Angstroms

--------------------------------------------------------------------------------
  Asymmetric unit site  Full lattice sites    No.  Distance      No.  Distance
      No.   At.No.            At.No.                (Angs)             (Angs) 
--------------------------------------------------------------------------------
       1   Zr    core        Zr    core        12    3.5891
                             Zr    shell       12    3.5891
                             O     core         8    2.1978
                             O     shell        8    2.1978
--------------------------------------------------------------------------------
       2   O     core        Zr    core         4    2.1978
                             Zr    shell        4    2.1978
                             O     core         6    2.5378       12    3.5891
                             O     shell        6    2.5378       12    3.5891
--------------------------------------------------------------------------------
       3   Zr    shell       Zr    core        12    3.5891
                             Zr    shell       12    3.5891
                             O     core         8    2.1978
                             O     shell        8    2.1978
--------------------------------------------------------------------------------
       4   O     shell       Zr    core         4    2.1978
                             Zr    shell        4    2.1978
                             O     core         6    2.5378       12    3.5891
                             O     shell        6    2.5378       12    3.5891
--------------------------------------------------------------------------------



  Born effective charge tensors : 

-------------------------------------------------------------------------------
  Atom             x           y             z
-------------------------------------------------------------------------------
    1 Zr    x       3.6770      0.0000      0.0000
            y       0.0000      3.6770      0.0000
            z       0.0000      0.0000      3.6770
-------------------------------------------------------------------------------
    2 O     x      -1.8385      0.0000      0.0000
            y       0.0000     -1.8385     -0.0000
            z       0.0000     -0.0000     -1.8385
-------------------------------------------------------------------------------




  Elastic Constant Matrix: (Units=GPa)

-------------------------------------------------------------------------------
  Indices      1         2         3         4         5         6    
-------------------------------------------------------------------------------
       1    616.2933  119.6612  119.6612   -0.0000   -0.0000   -0.0000
       2    119.6612  616.2933  119.6612   -0.0000   -0.0000   -0.0000
       3    119.6612  119.6612  616.2933   -0.0000   -0.0000   -0.0000
       4     -0.0000   -0.0000   -0.0000  100.8598    0.0000   -0.0000
       5     -0.0000   -0.0000   -0.0000    0.0000  100.8598    0.0000
       6     -0.0000   -0.0000   -0.0000   -0.0000    0.0000  100.8598
-------------------------------------------------------------------------------


  Elastic Compliance Matrix: (Units=1/GPa)

-------------------------------------------------------------------------------
  Indices      1         2         3         4         5         6    
-------------------------------------------------------------------------------
       1    0.001732 -0.000282 -0.000282  0.000000  0.000000  0.000000
       2   -0.000282  0.001732 -0.000282 -0.000000  0.000000  0.000000
       3   -0.000282 -0.000282  0.001732  0.000000  0.000000  0.000000
       4    0.000000 -0.000000  0.000000  0.009915 -0.000000  0.000000
       5    0.000000  0.000000  0.000000 -0.000000  0.009915 -0.000000
       6    0.000000  0.000000  0.000000  0.000000 -0.000000  0.009915
-------------------------------------------------------------------------------

  Mechanical properties :

-------------------------------------------------------------------------------
  Convention :                    Reuss         Voigt         Hill
-------------------------------------------------------------------------------
  Bulk  Modulus (GPa)     =     285.20524     285.20524     285.20524
  Shear Modulus (GPa)     =     132.28031     159.84228     146.06129
-------------------------------------------------------------------------------
  Velocity S-wave (km/s)  =       4.59717       5.05346       4.83071
  Velocity P-wave (km/s)  =       8.58749       8.92280       8.75675
-------------------------------------------------------------------------------
  Compressibility (1/GPa) =    0.00350625
-------------------------------------------------------------------------------
  Stress axis :                     x             y             z
-------------------------------------------------------------------------------
  Youngs Moduli (GPa)     =     577.38110     577.38110     577.38110
-------------------------------------------------------------------------------
  Poissons Ratio (x)      =                     0.16259       0.16259
  Poissons Ratio (y)      =       0.16259                     0.16259
  Poissons Ratio (z)      =       0.16259       0.16259
-------------------------------------------------------------------------------


  Piezoelectric Strain Matrix: (Units=C/m**2)

-------------------------------------------------------------------------------
  Indices      1         2         3         4         5         6    
-------------------------------------------------------------------------------
       x    -0.00000   0.00000   0.00000   0.00000   0.00000   0.00000
       y    -0.00000  -0.00000  -0.00000   0.00000   0.00000   0.00000
       z    -0.00000  -0.00000  -0.00000   0.00000   0.00000   0.00000
-------------------------------------------------------------------------------


  Piezoelectric Stress Matrix: (Units=10**-11 C/N)

-------------------------------------------------------------------------------
  Indices      1         2         3         4         5         6    
-------------------------------------------------------------------------------
       x    -0.00000   0.00000   0.00000   0.00000   0.00000   0.00000
       y    -0.00000  -0.00000  -0.00000   0.00000   0.00000   0.00000
       z     0.00000   0.00000  -0.00000   0.00000   0.00000   0.00000
-------------------------------------------------------------------------------


  Static dielectric constant tensor : 

-------------------------------------------------------------------------------
              x         y         z
-------------------------------------------------------------------------------
       x    26.88485   0.00000   0.00000
       y     0.00000  26.88485   0.00000
       z     0.00000   0.00000  26.88485
--------------------------------------------------------------------------------

  High frequency dielectric constant tensor : 

-------------------------------------------------------------------------------
              x         y         z
-------------------------------------------------------------------------------
       x     2.63099   0.00000   0.00000
       y     0.00000   2.63099   0.00000
       z     0.00000   0.00000   2.63099
-------------------------------------------------------------------------------

  Static refractive indices : 

-------------------------------------------------------------------------------
    1 =    5.18506      2 =    5.18506      3 =    5.18506
-------------------------------------------------------------------------------

  High frequency refractive indices : 

-------------------------------------------------------------------------------
    1 =    1.62203      2 =    1.62203      3 =    1.62203
-------------------------------------------------------------------------------


  Time to end of optimisation =       0.0542 seconds

********************************************************************************
*  Defect calculation for configuration   1 :                                  *
********************************************************************************

  Total number of defects =      1

  Total charge on defect  =  -4.00

  Defect centre is at   0.0000   0.0000   0.0000  Frac

  Region 1 radius =  12.0000      Number of ions =   1312

  Number of symmetry inequivalent region 1 ions  =     56

  Region 2 radius =  24.0000      Number of ions =   9264

  Number of symmetry inequivalent region 2a ions =    266

  Region 2a mode = 4 : screened electrostatics due to region 1 
                       neglect correction to region 1 forces from 2a
                       region 2a displacements based on defects only

  Region 2a ions will only interact with defects in region 1

  Vacancies:

--------------------------------------------------------------------------------
    Specification type     Symbol/Number         x          y          z
--------------------------------------------------------------------------------
    Fractional                               0.000000   0.000000   0.000000
--------------------------------------------------------------------------------


  Symmetry reduced region 1 (Relative to defect centre) :

--------------------------------------------------------------------------------
   No.   Atomic       x            y             z       Radius  Multiplicity   
         Label      (Angs)       (Angs)        (Angs)    (Angs)     
--------------------------------------------------------------------------------
     1  O     c     -1.2689 *     1.2689      -1.2689    0.0000     8          
     2  Zr    c      2.5378 *     2.5378       0.0000    0.0000    12          
     3  O     c     -1.2689 *     3.8068 *     1.2689    0.0000    24          
     4  Zr    c      0.0000       0.0000       5.0757 *  0.0000     6          
     5  O     c     -3.8068 *     3.8068      -1.2689 *  0.0000    24          
     6  Zr    c      5.0757 *     2.5378 *     2.5378    0.0000    24          
     7  O     c      1.2689 *     1.2689       6.3446 *  0.0000    24          
     8  O     c     -3.8068 *     3.8068       3.8068    0.0000     8          
     9  Zr    c      5.0757 *     5.0757       0.0000    0.0000    12          
    10  O     c      3.8068 *    -1.2689 *     6.3446 *  0.0000    48          
    11  Zr    c      2.5378 *     0.0000       7.6135 *  0.0000    24          
    12  O     c      6.3446 *     3.8068 *     3.8068    0.0000    24          
    13  Zr    c     -5.0757 *     5.0757       5.0757    0.0000     8          
    14  O     c      6.3446 *     6.3446       1.2689 *  0.0000    24          
    15  O     c      1.2689 *     8.8824 *    -1.2689    0.0000    24          
    16  Zr    c      5.0757 *    -2.5378 *     7.6135 *  0.0000    48          
    17  O     c     -3.8068 *     6.3446 *     6.3446    0.0000    24          
    18  O     c     -8.8824 *    -3.8068 *     1.2689 *  0.0000    48          
    19  Zr    c      0.0000       0.0000      10.1514 *  0.0000     6          
    20  O     c     -8.8824 *    -3.8068 *    -3.8068    0.0000    24          
    21  Zr    c      7.6135 *     7.6135       0.0000    0.0000    12          
    22  Zr    c      2.5378 *    -2.5378      10.1514 *  0.0000    24          
    23  O     c      6.3446 *     6.3446       6.3446    0.0000     8          
    24  O     c     -8.8824 *    -6.3446 *    -1.2689 *  0.0000    48          
    25  Zr    c      5.0757 *     0.0000      10.1514 *  0.0000    24          
    26  O     c      8.8824 *     6.3446 *     3.8068 *  0.0000    48          
    27  O     c      1.2689 *     1.2689      11.4203 *  0.0000    24          
    28  Zr    c      7.6135 *     7.6135       5.0757 *  0.0000    24          
    29  O     s     -1.2689 *     1.2689      -1.2689    0.0000     8          
    30  Zr    s      2.5378 *     2.5378       0.0000    0.0000    12          
    31  O     s     -1.2689 *     3.8068 *     1.2689    0.0000    24          
    32  Zr    s      0.0000       0.0000       5.0757 *  0.0000     6          
    33  O     s     -3.8068 *     3.8068      -1.2689 *  0.0000    24          
    34  Zr    s      5.0757 *     2.5378 *     2.5378    0.0000    24          
    35  O     s      1.2689 *     1.2689       6.3446 *  0.0000    24          
    36  O     s     -3.8068 *     3.8068       3.8068    0.0000     8          
    37  Zr    s      5.0757 *     5.0757       0.0000    0.0000    12          
    38  O     s      3.8068 *    -1.2689 *     6.3446 *  0.0000    48          
    39  Zr    s      2.5378 *     0.0000       7.6135 *  0.0000    24          
    40  O     s      6.3446 *     3.8068 *     3.8068    0.0000    24          
    41  Zr    s     -5.0757 *     5.0757       5.0757    0.0000     8          
    42  O     s      6.3446 *     6.3446       1.2689 *  0.0000    24          
    43  O     s      1.2689 *     8.8824 *    -1.2689    0.0000    24          
    44  Zr    s      5.0757 *    -2.5378 *     7.6135 *  0.0000    48          
    45  O     s     -3.8068 *     6.3446 *     6.3446    0.0000    24          
    46  O     s     -8.8824 *    -3.8068 *     1.2689 *  0.0000    48          
    47  Zr    s      0.0000       0.0000      10.1514 *  0.0000     6          
    48  O     s     -8.8824 *    -3.8068 *    -3.8068    0.0000    24          
    49  Zr    s      7.6135 *     7.6135       0.0000    0.0000    12          
    50  Zr    s      2.5378 *    -2.5378      10.1514 *  0.0000    24          
    51  O     s      6.3446 *     6.3446       6.3446    0.0000     8          
    52  O     s     -8.8824 *    -6.3446 *    -1.2689 *  0.0000    48          
    53  Zr    s      5.0757 *     0.0000      10.1514 *  0.0000    24          
    54  O     s      8.8824 *     6.3446 *     3.8068 *  0.0000    48          
    55  O     s      1.2689 *     1.2689      11.4203 *  0.0000    24          
    56  Zr    s      7.6135 *     7.6135       5.0757 *  0.0000    24          
--------------------------------------------------------------------------------


  Constraints on symmetry reduced coordinates :

--------------------------------------------------------------------------------
  Constraint no.      Unconstrained     Constrained    Coefficient    
                         Variable         Variable
--------------------------------------------------------------------------------
           1                 1 x             1 y        -1.00000
           2                 1 x             1 z         1.00000
           3                 2 x             2 y         1.00000
           4                 3 x             3 z        -1.00000
           5                 5 x             5 y        -1.00000
           6                 6 y             6 z         1.00000
           7                 7 x             7 y         1.00000
           8                 8 x             8 y        -1.00000
           9                 8 x             8 z        -1.00000
          10                 9 x             9 y         1.00000
          11                12 y            12 z         1.00000
          12                13 x            13 y        -1.00000
          13                13 x            13 z        -1.00000
          14                14 x            14 y         1.00000
          15                15 x            15 z        -1.00000
          16                17 y            17 z         1.00000
          17                20 y            20 z         1.00000
          18                21 x            21 y         1.00000
          19                22 x            22 y        -1.00000
          20                23 x            23 y         1.00000
          21                23 x            23 z         1.00000
          22                27 x            27 y         1.00000
          23                28 x            28 y         1.00000
          24                29 x            29 y        -1.00000
          25                29 x            29 z         1.00000
          26                30 x            30 y         1.00000
          27                31 x            31 z        -1.00000
          28                33 x            33 y        -1.00000
          29                34 y            34 z         1.00000
          30                35 x            35 y         1.00000
          31                36 x            36 y        -1.00000
          32                36 x            36 z        -1.00000
          33                37 x            37 y         1.00000
          34                40 y            40 z         1.00000
          35                41 x            41 y        -1.00000
          36                41 x            41 z        -1.00000
          37                42 x            42 y         1.00000
          38                43 x            43 z        -1.00000
          39                45 y            45 z         1.00000
          40                48 y            48 z         1.00000
          41                49 x            49 y         1.00000
          42                50 x            50 y        -1.00000
          43                51 x            51 y         1.00000
          44                51 x            51 z         1.00000
          45                55 x            55 y         1.00000
          46                56 x            56 y         1.00000
--------------------------------------------------------------------------------


  Components of defect energy : 

--------------------------------------------------------------------------------
  Region 1 - region 1                   =    -26.12422989 eV
  Region 1 - region 2a (unrelaxed)      =    174.68247988 eV
  Region 1 - 2a (relaxed - correction)  =     -9.25035377 eV
  Region 1 (Total)                      =    139.30789622 eV
  Region 2a                             =      4.62492517 eV
  Region 2b                             =     -4.63222028 eV
--------------------------------------------------------------------------------
  Total defect energy                   =    139.30060111 eV
--------------------------------------------------------------------------------

  Largest displacement in region 2 =   0.0091 Angstroms


  Number of variables =      104

  Maximum number of calculations  =        1000
  Maximum Hessian update interval =          10
  Maximum step size               =   1.0000000
  Maximum parameter tolerance     =   0.0000100
  Maximum function  tolerance     =   0.0000100
  Maximum gradient  tolerance     =   0.0010000

  Symmetry adapted optimisation

  Symmetry to be used for second derivatives

  Newton-Raphson optimiser to be used

  BFGS hessian update to be used

  Lower half triangular hessian to be used

  Start of defect optimisation :

  Cycle:      0 Defect Energy: 139.300601  Gnorm:     4.584020  CPU:    1.954
  ** Hessian calculated **
  Cycle:      1 Defect Energy:  87.829081  Gnorm:     0.428408  CPU:    3.003
  ** Hessian calculated **
  Cycle:      2 Defect Energy:  85.982171  Gnorm:     0.029526  CPU:    4.028
  Cycle:      3 Defect Energy:  85.979678  Gnorm:     0.020677  CPU:    4.205
  Cycle:      4 Defect Energy:  85.978190  Gnorm:     0.014481  CPU:    4.385
  Cycle:      5 Defect Energy:  85.977332  Gnorm:     0.010135  CPU:    4.564
  Cycle:      6 Defect Energy:  85.976822  Gnorm:     0.007095  CPU:    4.741
  Cycle:      7 Defect Energy:  85.976510  Gnorm:     0.004967  CPU:    4.920
  Cycle:      8 Defect Energy:  85.976313  Gnorm:     0.003477  CPU:    5.100
  Cycle:      9 Defect Energy:  85.976186  Gnorm:     0.002434  CPU:    5.276
  Cycle:     10 Defect Energy:  85.976102  Gnorm:     0.001704  CPU:    5.454
  Cycle:     11 Defect Energy:  85.976046  Gnorm:     0.001193  CPU:    5.633
  ** Hessian calculated **
  Cycle:     12 Defect Energy:  85.976008  Gnorm:     0.000835  CPU:    6.017
  Cycle:     13 Defect Energy:  85.975982  Gnorm:     0.000584  CPU:    6.195
  Cycle:     14 Defect Energy:  85.975965  Gnorm:     0.000409  CPU:    6.373
  Cycle:     15 Defect Energy:  85.975952  Gnorm:     0.000286  CPU:    6.551
  Cycle:     16 Defect Energy:  85.975944  Gnorm:     0.000200  CPU:    6.729


  **** Optimisation achieved ****


  Final defect energy  =       85.97593763
  Final defect Gnorm   =        0.00014031

  Components of defect energy : 

--------------------------------------------------------------------------------
  Region 1 - region 1                   =    -80.78166312 eV
  Region 1 - region 2a (unrelaxed)      =    175.49241454 eV
  Region 1 - 2a (relaxed - correction)  =     -8.20601927 eV
  Region 1 (Total)                      =     86.50473215 eV
  Region 2a                             =      4.10342577 eV
  Region 2b                             =     -4.63222028 eV
--------------------------------------------------------------------------------
  Total defect energy                   =     85.97593763 eV
--------------------------------------------------------------------------------

  Largest displacement in region 2 =   0.0091 Angstroms

  Final coordinates of region 1 :

--------------------------------------------------------------------------------
   No.  Atomic        x           y           z          Radius      Charge
        Label       (Angs)      (Angs)      (Angs)       (Angs)       (e) 
--------------------------------------------------------------------------------
     1  O     c    -1.497639    1.497639   -1.497639    0.000000    0.077000
     2  O     c     1.497639   -1.497639   -1.497639    0.000000    0.077000
     3  O     c     1.497639    1.497639   -1.497639    0.000000    0.077000
     4  O     c     1.497639   -1.497639    1.497639    0.000000    0.077000
     5  O     c    -1.497639    1.497639    1.497639    0.000000    0.077000
     6  O     c    -1.497639   -1.497639    1.497639    0.000000    0.077000
     7  O     c     1.497639    1.497639    1.497639    0.000000    0.077000
     8  O     c    -1.497639   -1.497639   -1.497639    0.000000    0.077000
     9  Zr    c     2.475401    2.475401    0.000000    0.000000    2.650000
    10  Zr    c    -2.475401   -2.475401    0.000000    0.000000    2.650000
    11  Zr    c     2.475401    0.000000    2.475401    0.000000    2.650000
    12  Zr    c     0.000000   -2.475401    2.475401    0.000000    2.650000
    13  Zr    c    -2.475401    0.000000   -2.475401    0.000000    2.650000
    14  Zr    c     0.000000    2.475401   -2.475401    0.000000    2.650000
    15  Zr    c     0.000000    2.475401    2.475401    0.000000    2.650000
    16  Zr    c    -2.475401    0.000000    2.475401    0.000000    2.650000
    17  Zr    c    -2.475401    2.475401    0.000000    0.000000    2.650000
    18  Zr    c     0.000000   -2.475401   -2.475401    0.000000    2.650000
    19  Zr    c     2.475401    0.000000   -2.475401    0.000000    2.650000
    20  Zr    c     2.475401   -2.475401    0.000000    0.000000    2.650000
    21  O     c    -1.248327    3.909101    1.248327    0.000000    0.077000
    22  O     c     3.909101   -1.248327    1.248327    0.000000    0.077000
    23  O     c     3.909101    1.248327    1.248327    0.000000    0.077000
    24  O     c     1.248327    3.909101    1.248327    0.000000    0.077000
    25  O     c     1.248327   -1.248327    3.909101    0.000000    0.077000
    26  O     c    -3.909101   -1.248327   -1.248327    0.000000    0.077000
    27  O     c     1.248327    3.909101   -1.248327    0.000000    0.077000
    28  O     c    -1.248327    1.248327    3.909101    0.000000    0.077000
    29  O     c    -3.909101    1.248327    1.248327    0.000000    0.077000
    30  O     c    -1.248327   -3.909101   -1.248327    0.000000    0.077000
    31  O     c     3.909101    1.248327   -1.248327    0.000000    0.077000
    32  O     c     1.248327   -3.909101    1.248327    0.000000    0.077000
    33  O     c    -1.248327   -1.248327   -3.909101    0.000000    0.077000
    34  O     c     1.248327    1.248327   -3.909101    0.000000    0.077000
    35  O     c     1.248327    1.248327    3.909101    0.000000    0.077000
    36  O     c    -1.248327   -1.248327    3.909101    0.000000    0.077000
    37  O     c    -1.248327    3.909101   -1.248327    0.000000    0.077000
    38  O     c     3.909101   -1.248327   -1.248327    0.000000    0.077000
    39  O     c    -1.248327   -3.909101    1.248327    0.000000    0.077000
    40  O     c    -1.248327    1.248327   -3.909101    0.000000    0.077000
    41  O     c    -3.909101   -1.248327    1.248327    0.000000    0.077000
    42  O     c    -3.909101    1.248327   -1.248327    0.000000    0.077000
    43  O     c     1.248327   -1.248327   -3.909101    0.000000    0.077000
    44  O     c     1.248327   -3.909101   -1.248327    0.000000    0.077000
    45  Zr    c     0.000000    0.000000    5.063704    0.000000    2.650000
    46  Zr    c     0.000000    5.063704    0.000000    0.000000    2.650000
    47  Zr    c    -5.063704    0.000000    0.000000    0.000000    2.650000
    48  Zr    c     5.063704    0.000000    0.000000    0.000000    2.650000
    49  Zr    c     0.000000   -5.063704    0.000000    0.000000    2.650000
    50  Zr    c     0.000000    0.000000   -5.063704    0.000000    2.650000
    51  O     c    -3.818048    3.818048   -1.282342    0.000000    0.077000
    52  O     c     3.818048   -3.818048   -1.282342    0.000000    0.077000
    53  O     c     3.818048    3.818048    1.282342    0.000000    0.077000
    54  O     c    -3.818048   -3.818048    1.282342    0.000000    0.077000
    55  O     c     3.818048    1.282342    3.818048    0.000000    0.077000
    56  O     c    -1.282342   -3.818048    3.818048    0.000000    0.077000
    57  O     c    -3.818048    1.282342   -3.818048    0.000000    0.077000
    58  O     c    -1.282342    3.818048   -3.818048    0.000000    0.077000
    59  O     c     1.282342    3.818048    3.818048    0.000000    0.077000
    60  O     c    -3.818048   -1.282342    3.818048    0.000000    0.077000
    61  O     c     1.282342   -3.818048   -3.818048    0.000000    0.077000
    62  O     c     3.818048   -1.282342   -3.818048    0.000000    0.077000
    63  O     c     3.818048    3.818048   -1.282342    0.000000    0.077000
    64  O     c     3.818048   -1.282342    3.818048    0.000000    0.077000
    65  O     c     1.282342    3.818048   -3.818048    0.000000    0.077000
    66  O     c    -1.282342    3.818048    3.818048    0.000000    0.077000
    67  O     c     3.818048    1.282342   -3.818048    0.000000    0.077000
    68  O     c    -3.818048    3.818048    1.282342    0.000000    0.077000
    69  O     c     3.818048   -3.818048    1.282342    0.000000    0.077000
    70  O     c    -3.818048   -3.818048   -1.282342    0.000000    0.077000
    71  O     c     1.282342   -3.818048    3.818048    0.000000    0.077000
    72  O     c    -3.818048   -1.282342   -3.818048    0.000000    0.077000
    73  O     c    -3.818048    1.282342    3.818048    0.000000    0.077000
    74  O     c    -1.282342   -3.818048   -3.818048    0.000000    0.077000
    75  Zr    c     5.048556    2.516255    2.516255    0.000000    2.650000
    76  Zr    c    -2.516255   -5.048556    2.516255    0.000000    2.650000
    77  Zr    c     2.516255    5.048556   -2.516255    0.000000    2.650000
    78  Zr    c    -5.048556   -2.516255   -2.516255    0.000000    2.650000
    79  Zr    c     2.516255    5.048556    2.516255    0.000000    2.650000
    80  Zr    c    -5.048556   -2.516255    2.516255    0.000000    2.650000
    81  Zr    c    -5.048556    2.516255   -2.516255    0.000000    2.650000
    82  Zr    c    -2.516255    5.048556   -2.516255    0.000000    2.650000
    83  Zr    c    -2.516255    5.048556    2.516255    0.000000    2.650000
    84  Zr    c    -5.048556    2.516255    2.516255    0.000000    2.650000
    85  Zr    c     5.048556    2.516255   -2.516255    0.000000    2.650000
    86  Zr    c    -2.516255   -5.048556   -2.516255    0.000000    2.650000
    87  Zr    c     5.048556   -2.516255    2.516255    0.000000    2.650000
    88  Zr    c     2.516255   -5.048556    2.516255    0.000000    2.650000
    89  Zr    c     2.516255   -5.048556   -2.516255    0.000000    2.650000
    90  Zr    c     5.048556   -2.516255   -2.516255    0.000000    2.650000
    91  Zr    c     2.516255   -2.516255    5.048556    0.000000    2.650000
    92  Zr    c    -2.516255    2.516255   -5.048556    0.000000    2.650000
    93  Zr    c     2.516255    2.516255    5.048556    0.000000    2.650000
    94  Zr    c    -2.516255   -2.516255    5.048556    0.000000    2.650000
    95  Zr    c    -2.516255    2.516255    5.048556    0.000000    2.650000
    96  Zr    c    -2.516255   -2.516255   -5.048556    0.000000    2.650000
    97  Zr    c     2.516255    2.516255   -5.048556    0.000000    2.650000
    98  Zr    c     2.516255   -2.516255   -5.048556    0.000000    2.650000
    99  O     c     1.277962    1.277962    6.419203    0.000000    0.077000
   100  O     c    -1.277962   -1.277962    6.419203    0.000000    0.077000
   101  O     c     1.277962    6.419203    1.277962    0.000000    0.077000
   102  O     c    -6.419203   -1.277962    1.277962    0.000000    0.077000
   103  O     c    -1.277962    6.419203   -1.277962    0.000000    0.077000
   104  O     c    -1.277962    1.277962   -6.419203    0.000000    0.077000
   105  O     c     1.277962   -6.419203   -1.277962    0.000000    0.077000
   106  O     c     6.419203   -1.277962   -1.277962    0.000000    0.077000
   107  O     c     1.277962   -1.277962   -6.419203    0.000000    0.077000
   108  O     c     1.277962   -1.277962    6.419203    0.000000    0.077000
   109  O     c    -1.277962    1.277962    6.419203    0.000000    0.077000
   110  O     c    -1.277962    6.419203    1.277962    0.000000    0.077000
   111  O     c     6.419203   -1.277962    1.277962    0.000000    0.077000
   112  O     c    -6.419203    1.277962   -1.277962    0.000000    0.077000
   113  O     c     6.419203    1.277962    1.277962    0.000000    0.077000
   114  O     c    -1.277962   -6.419203    1.277962    0.000000    0.077000
   115  O     c     1.277962    6.419203   -1.277962    0.000000    0.077000
   116  O     c     6.419203    1.277962   -1.277962    0.000000    0.077000
   117  O     c    -6.419203    1.277962    1.277962    0.000000    0.077000
   118  O     c     1.277962   -6.419203    1.277962    0.000000    0.077000
   119  O     c    -1.277962   -1.277962   -6.419203    0.000000    0.077000
   120  O     c     1.277962    1.277962   -6.419203    0.000000    0.077000
   121  O     c    -6.419203   -1.277962   -1.277962    0.000000    0.077000
   122  O     c    -1.277962   -6.419203   -1.277962    0.000000    0.077000
   123  O     c    -3.813637    3.813637    3.813637    0.000000    0.077000
   124  O     c     3.813637   -3.813637    3.813637    0.000000    0.077000
   125  O     c    -3.813637   -3.813637   -3.813637    0.000000    0.077000
   126  O     c     3.813637    3.813637    3.813637    0.000000    0.077000
   127  O     c     3.813637    3.813637   -3.813637    0.000000    0.077000
   128  O     c    -3.813637   -3.813637    3.813637    0.000000    0.077000
   129  O     c    -3.813637    3.813637   -3.813637    0.000000    0.077000
   130  O     c     3.813637   -3.813637   -3.813637    0.000000    0.077000
   131  Zr    c     5.052396    5.052396    0.000000    0.000000    2.650000
   132  Zr    c    -5.052396   -5.052396    0.000000    0.000000    2.650000
   133  Zr    c     5.052396    0.000000    5.052396    0.000000    2.650000
   134  Zr    c     0.000000   -5.052396    5.052396    0.000000    2.650000
   135  Zr    c    -5.052396    0.000000   -5.052396    0.000000    2.650000
   136  Zr    c     0.000000    5.052396   -5.052396    0.000000    2.650000
   137  Zr    c     0.000000    5.052396    5.052396    0.000000    2.650000
   138  Zr    c    -5.052396    0.000000    5.052396    0.000000    2.650000
   139  Zr    c    -5.052396    5.052396    0.000000    0.000000    2.650000
   140  Zr    c     0.000000   -5.052396   -5.052396    0.000000    2.650000
   141  Zr    c     5.052396    0.000000   -5.052396    0.000000    2.650000
   142  Zr    c     5.052396   -5.052396    0.000000    0.000000    2.650000
   143  O     c     3.812410   -1.268175    6.348769    0.000000    0.077000
   144  O     c     1.268175   -3.812410    6.348769    0.000000    0.077000
   145  O     c    -1.268175    3.812410    6.348769    0.000000    0.077000
   146  O     c    -3.812410    1.268175    6.348769    0.000000    0.077000
   147  O     c    -1.268175    6.348769    3.812410    0.000000    0.077000
   148  O     c    -6.348769    1.268175    3.812410    0.000000    0.077000
   149  O     c    -6.348769    3.812410    1.268175    0.000000    0.077000
   150  O     c    -3.812410    6.348769    1.268175    0.000000    0.077000
   151  O     c    -3.812410   -1.268175   -6.348769    0.000000    0.077000
   152  O     c    -1.268175   -3.812410   -6.348769    0.000000    0.077000
   153  O     c     6.348769    3.812410    1.268175    0.000000    0.077000
   154  O     c     3.812410    6.348769    1.268175    0.000000    0.077000
   155  O     c     3.812410    1.268175    6.348769    0.000000    0.077000
   156  O     c     1.268175    3.812410    6.348769    0.000000    0.077000
   157  O     c     3.812410    6.348769   -1.268175    0.000000    0.077000
   158  O     c    -6.348769   -3.812410   -1.268175    0.000000    0.077000
   159  O     c    -6.348769   -1.268175   -3.812410    0.000000    0.077000
   160  O     c     1.268175    6.348769   -3.812410    0.000000    0.077000
   161  O     c     6.348769    3.812410   -1.268175    0.000000    0.077000
   162  O     c    -3.812410   -6.348769   -1.268175    0.000000    0.077000
   163  O     c     6.348769   -1.268175    3.812410    0.000000    0.077000
   164  O     c     1.268175   -6.348769    3.812410    0.000000    0.077000
   165  O     c     1.268175    3.812410   -6.348769    0.000000    0.077000
   166  O     c    -1.268175   -6.348769   -3.812410    0.000000    0.077000
   167  O     c     6.348769    1.268175   -3.812410    0.000000    0.077000
   168  O     c     3.812410   -6.348769    1.268175    0.000000    0.077000
   169  O     c     6.348769   -3.812410    1.268175    0.000000    0.077000
   170  O     c     3.812410    1.268175   -6.348769    0.000000    0.077000
   171  O     c     6.348769    1.268175    3.812410    0.000000    0.077000
   172  O     c    -1.268175   -3.812410    6.348769    0.000000    0.077000
   173  O     c    -1.268175    6.348769   -3.812410    0.000000    0.077000
   174  O     c     1.268175    6.348769    3.812410    0.000000    0.077000
   175  O     c    -3.812410   -1.268175    6.348769    0.000000    0.077000
   176  O     c    -3.812410    6.348769   -1.268175    0.000000    0.077000
   177  O     c     6.348769   -1.268175   -3.812410    0.000000    0.077000
   178  O     c     6.348769   -3.812410   -1.268175    0.000000    0.077000
   179  O     c    -3.812410   -6.348769    1.268175    0.000000    0.077000
   180  O     c    -1.268175    3.812410   -6.348769    0.000000    0.077000
   181  O     c    -6.348769   -3.812410    1.268175    0.000000    0.077000
   182  O     c     3.812410   -1.268175   -6.348769    0.000000    0.077000
   183  O     c    -1.268175   -6.348769    3.812410    0.000000    0.077000
   184  O     c    -3.812410    1.268175   -6.348769    0.000000    0.077000
   185  O     c    -6.348769    1.268175   -3.812410    0.000000    0.077000
   186  O     c    -6.348769   -1.268175    3.812410    0.000000    0.077000
   187  O     c    -6.348769    3.812410   -1.268175    0.000000    0.077000
   188  O     c     1.268175   -3.812410   -6.348769    0.000000    0.077000
   189  O     c     1.268175   -6.348769   -3.812410    0.000000    0.077000
   190  O     c     3.812410   -6.348769   -1.268175    0.000000    0.077000
   191  Zr    c     2.527248    0.000000    7.608196    0.000000    2.650000
   192  Zr    c     0.000000   -2.527248    7.608196    0.000000    2.650000
   193  Zr    c     2.527248    7.608196    0.000000    0.000000    2.650000
   194  Zr    c    -7.608196   -2.527248    0.000000    0.000000    2.650000
   195  Zr    c     0.000000    7.608196   -2.527248    0.000000    2.650000
   196  Zr    c    -7.608196    0.000000   -2.527248    0.000000    2.650000
   197  Zr    c     0.000000    2.527248    7.608196    0.000000    2.650000
   198  Zr    c    -2.527248    0.000000    7.608196    0.000000    2.650000
   199  Zr    c     0.000000    7.608196    2.527248    0.000000    2.650000
   200  Zr    c    -7.608196    0.000000    2.527248    0.000000    2.650000
   201  Zr    c    -2.527248    7.608196    0.000000    0.000000    2.650000
   202  Zr    c    -7.608196    2.527248    0.000000    0.000000    2.650000
   203  Zr    c     7.608196    2.527248    0.000000    0.000000    2.650000
   204  Zr    c    -2.527248   -7.608196    0.000000    0.000000    2.650000
   205  Zr    c     7.608196    0.000000    2.527248    0.000000    2.650000
   206  Zr    c     0.000000   -7.608196    2.527248    0.000000    2.650000
   207  Zr    c    -2.527248    0.000000   -7.608196    0.000000    2.650000
   208  Zr    c     0.000000    2.527248   -7.608196    0.000000    2.650000
   209  Zr    c     7.608196    0.000000   -2.527248    0.000000    2.650000
   210  Zr    c     0.000000   -7.608196   -2.527248    0.000000    2.650000
   211  Zr    c     7.608196   -2.527248    0.000000    0.000000    2.650000
   212  Zr    c     2.527248   -7.608196    0.000000    0.000000    2.650000
   213  Zr    c     0.000000   -2.527248   -7.608196    0.000000    2.650000
   214  Zr    c     2.527248    0.000000   -7.608196    0.000000    2.650000
   215  O     c     6.353372    3.818035    3.818035    0.000000    0.077000
   216  O     c    -3.818035   -6.353372    3.818035    0.000000    0.077000
   217  O     c    -3.818035    3.818035   -6.353372    0.000000    0.077000
   218  O     c     3.818035    6.353372    3.818035    0.000000    0.077000
   219  O     c    -6.353372   -3.818035    3.818035    0.000000    0.077000
   220  O     c     3.818035    3.818035    6.353372    0.000000    0.077000
   221  O     c    -3.818035   -3.818035    6.353372    0.000000    0.077000
   222  O     c     3.818035   -3.818035   -6.353372    0.000000    0.077000
   223  O     c     3.818035   -6.353372   -3.818035    0.000000    0.077000
   224  O     c     6.353372   -3.818035   -3.818035    0.000000    0.077000
   225  O     c     3.818035   -3.818035    6.353372    0.000000    0.077000
   226  O     c    -3.818035    3.818035    6.353372    0.000000    0.077000
   227  O     c    -3.818035    6.353372    3.818035    0.000000    0.077000
   228  O     c     6.353372   -3.818035    3.818035    0.000000    0.077000
   229  O     c    -6.353372    3.818035   -3.818035    0.000000    0.077000
   230  O     c    -3.818035    6.353372   -3.818035    0.000000    0.077000
   231  O     c     3.818035    6.353372   -3.818035    0.000000    0.077000
   232  O     c    -6.353372    3.818035    3.818035    0.000000    0.077000
   233  O     c     6.353372    3.818035   -3.818035    0.000000    0.077000
   234  O     c     3.818035   -6.353372    3.818035    0.000000    0.077000
   235  O     c     3.818035    3.818035   -6.353372    0.000000    0.077000
   236  O     c    -6.353372   -3.818035   -3.818035    0.000000    0.077000
   237  O     c    -3.818035   -6.353372   -3.818035    0.000000    0.077000
   238  O     c    -3.818035   -3.818035   -6.353372    0.000000    0.077000
   239  Zr    c    -5.056614    5.056614    5.056614    0.000000    2.650000
   240  Zr    c     5.056614   -5.056614   -5.056614    0.000000    2.650000
   241  Zr    c    -5.056614    5.056614   -5.056614    0.000000    2.650000
   242  Zr    c     5.056614   -5.056614    5.056614    0.000000    2.650000
   243  Zr    c     5.056614    5.056614    5.056614    0.000000    2.650000
   244  Zr    c    -5.056614   -5.056614    5.056614    0.000000    2.650000
   245  Zr    c     5.056614    5.056614   -5.056614    0.000000    2.650000
   246  Zr    c    -5.056614   -5.056614   -5.056614    0.000000    2.650000
   247  O     c     6.351955    6.351955    1.273003    0.000000    0.077000
   248  O     c    -6.351955   -6.351955    1.273003    0.000000    0.077000
   249  O     c     6.351955    1.273003    6.351955    0.000000    0.077000
   250  O     c    -1.273003   -6.351955    6.351955    0.000000    0.077000
   251  O     c    -6.351955    1.273003   -6.351955    0.000000    0.077000
   252  O     c    -1.273003    6.351955   -6.351955    0.000000    0.077000
   253  O     c     1.273003    6.351955    6.351955    0.000000    0.077000
   254  O     c    -6.351955   -1.273003    6.351955    0.000000    0.077000
   255  O     c    -6.351955    6.351955   -1.273003    0.000000    0.077000
   256  O     c     1.273003   -6.351955   -6.351955    0.000000    0.077000
   257  O     c     6.351955   -1.273003   -6.351955    0.000000    0.077000
   258  O     c     6.351955   -6.351955   -1.273003    0.000000    0.077000
   259  O     c     6.351955    6.351955   -1.273003    0.000000    0.077000
   260  O     c     6.351955   -1.273003    6.351955    0.000000    0.077000
   261  O     c    -1.273003    6.351955    6.351955    0.000000    0.077000
   262  O     c     1.273003   -6.351955    6.351955    0.000000    0.077000
   263  O     c    -6.351955    1.273003    6.351955    0.000000    0.077000
   264  O     c    -6.351955    6.351955    1.273003    0.000000    0.077000
   265  O     c     6.351955   -6.351955    1.273003    0.000000    0.077000
   266  O     c    -6.351955   -6.351955   -1.273003    0.000000    0.077000
   267  O     c    -6.351955   -1.273003   -6.351955    0.000000    0.077000
   268  O     c     1.273003    6.351955   -6.351955    0.000000    0.077000
   269  O     c    -1.273003   -6.351955   -6.351955    0.000000    0.077000
   270  O     c     6.351955    1.273003   -6.351955    0.000000    0.077000
   271  O     c     1.270104    8.928538   -1.270104    0.000000    0.077000
   272  O     c    -8.928538   -1.270104   -1.270104    0.000000    0.077000
   273  O     c    -1.270104    8.928538    1.270104    0.000000    0.077000
   274  O     c    -8.928538    1.270104    1.270104    0.000000    0.077000
   275  O     c     8.928538    1.270104   -1.270104    0.000000    0.077000
   276  O     c    -1.270104   -8.928538   -1.270104    0.000000    0.077000
   277  O     c     8.928538   -1.270104    1.270104    0.000000    0.077000
   278  O     c     1.270104   -8.928538    1.270104    0.000000    0.077000
   279  O     c    -1.270104   -1.270104   -8.928538    0.000000    0.077000
   280  O     c     1.270104    8.928538    1.270104    0.000000    0.077000
   281  O     c    -8.928538   -1.270104    1.270104    0.000000    0.077000
   282  O     c    -1.270104    8.928538   -1.270104    0.000000    0.077000
   283  O     c    -8.928538    1.270104   -1.270104    0.000000    0.077000
   284  O     c     8.928538    1.270104    1.270104    0.000000    0.077000
   285  O     c    -1.270104   -8.928538    1.270104    0.000000    0.077000
   286  O     c     8.928538   -1.270104   -1.270104    0.000000    0.077000
   287  O     c     1.270104   -8.928538   -1.270104    0.000000    0.077000
   288  O     c     1.270104   -1.270104    8.928538    0.000000    0.077000
   289  O     c    -1.270104    1.270104    8.928538    0.000000    0.077000
   290  O     c     1.270104    1.270104   -8.928538    0.000000    0.077000
   291  O     c     1.270104    1.270104    8.928538    0.000000    0.077000
   292  O     c    -1.270104   -1.270104    8.928538    0.000000    0.077000
   293  O     c    -1.270104    1.270104   -8.928538    0.000000    0.077000
   294  O     c     1.270104   -1.270104   -8.928538    0.000000    0.077000
   295  Zr    c     5.064597   -2.532947    7.601380    0.000000    2.650000
   296  Zr    c    -5.064597    2.532947   -7.601380    0.000000    2.650000
   297  Zr    c    -2.532947    7.601380   -5.064597    0.000000    2.650000
   298  Zr    c    -2.532947    5.064597    7.601380    0.000000    2.650000
   299  Zr    c    -7.601380    2.532947    5.064597    0.000000    2.650000
   300  Zr    c     2.532947   -7.601380    5.064597    0.000000    2.650000
   301  Zr    c     2.532947   -5.064597   -7.601380    0.000000    2.650000
   302  Zr    c     7.601380   -2.532947   -5.064597    0.000000    2.650000
   303  Zr    c     7.601380    5.064597    2.532947    0.000000    2.650000
   304  Zr    c    -5.064597   -7.601380    2.532947    0.000000    2.650000
   305  Zr    c     2.532947   -5.064597    7.601380    0.000000    2.650000
   306  Zr    c     5.064597    7.601380   -2.532947    0.000000    2.650000
   307  Zr    c    -7.601380   -5.064597   -2.532947    0.000000    2.650000
   308  Zr    c    -2.532947    5.064597   -7.601380    0.000000    2.650000
   309  Zr    c     5.064597    7.601380    2.532947    0.000000    2.650000
   310  Zr    c    -7.601380   -5.064597    2.532947    0.000000    2.650000
   311  Zr    c     5.064597    2.532947    7.601380    0.000000    2.650000
   312  Zr    c    -2.532947   -5.064597    7.601380    0.000000    2.650000
   313  Zr    c     2.532947    5.064597    7.601380    0.000000    2.650000
   314  Zr    c    -5.064597   -2.532947    7.601380    0.000000    2.650000
   315  Zr    c    -7.601380    5.064597   -2.532947    0.000000    2.650000
   316  Zr    c    -5.064597    7.601380   -2.532947    0.000000    2.650000
   317  Zr    c    -5.064597    2.532947    7.601380    0.000000    2.650000
   318  Zr    c    -2.532947    7.601380    5.064597    0.000000    2.650000
   319  Zr    c    -5.064597    7.601380    2.532947    0.000000    2.650000
   320  Zr    c    -7.601380    5.064597    2.532947    0.000000    2.650000
   321  Zr    c     7.601380    5.064597   -2.532947    0.000000    2.650000
   322  Zr    c    -5.064597   -7.601380   -2.532947    0.000000    2.650000
   323  Zr    c    -5.064597   -2.532947   -7.601380    0.000000    2.650000
   324  Zr    c     2.532947    5.064597   -7.601380    0.000000    2.650000
   325  Zr    c     7.601380   -5.064597    2.532947    0.000000    2.650000
   326  Zr    c     5.064597   -7.601380    2.532947    0.000000    2.650000
   327  Zr    c    -2.532947   -5.064597   -7.601380    0.000000    2.650000
   328  Zr    c     5.064597    2.532947   -7.601380    0.000000    2.650000
   329  Zr    c     5.064597   -2.532947   -7.601380    0.000000    2.650000
   330  Zr    c     2.532947   -7.601380   -5.064597    0.000000    2.650000
   331  Zr    c     5.064597   -7.601380   -2.532947    0.000000    2.650000
   332  Zr    c     7.601380   -5.064597   -2.532947    0.000000    2.650000
   333  Zr    c     7.601380    2.532947    5.064597    0.000000    2.650000
   334  Zr    c    -2.532947   -7.601380    5.064597    0.000000    2.650000
   335  Zr    c     2.532947    7.601380   -5.064597    0.000000    2.650000
   336  Zr    c    -7.601380   -2.532947   -5.064597    0.000000    2.650000
   337  Zr    c    -7.601380    2.532947   -5.064597    0.000000    2.650000
   338  Zr    c     2.532947    7.601380    5.064597    0.000000    2.650000
   339  Zr    c    -7.601380   -2.532947    5.064597    0.000000    2.650000
   340  Zr    c     7.601380   -2.532947    5.064597    0.000000    2.650000
   341  Zr    c     7.601380    2.532947   -5.064597    0.000000    2.650000
   342  Zr    c    -2.532947   -7.601380   -5.064597    0.000000    2.650000
   343  O     c    -3.805050    6.353735    6.353735    0.000000    0.077000
   344  O     c    -6.353735    3.805050    6.353735    0.000000    0.077000
   345  O     c    -6.353735    6.353735    3.805050    0.000000    0.077000
   346  O     c     6.353735   -3.805050    6.353735    0.000000    0.077000
   347  O     c     3.805050   -6.353735    6.353735    0.000000    0.077000
   348  O     c    -6.353735   -6.353735   -3.805050    0.000000    0.077000
   349  O     c    -6.353735   -3.805050   -6.353735    0.000000    0.077000
   350  O     c    -3.805050   -6.353735   -6.353735    0.000000    0.077000
   351  O     c     6.353735    6.353735    3.805050    0.000000    0.077000
   352  O     c     6.353735    3.805050    6.353735    0.000000    0.077000
   353  O     c     3.805050    6.353735    6.353735    0.000000    0.077000
   354  O     c     3.805050   -6.353735   -6.353735    0.000000    0.077000
   355  O     c     6.353735   -3.805050   -6.353735    0.000000    0.077000
   356  O     c     6.353735   -6.353735   -3.805050    0.000000    0.077000
   357  O     c     6.353735   -6.353735    3.805050    0.000000    0.077000
   358  O     c    -6.353735    6.353735   -3.805050    0.000000    0.077000
   359  O     c     6.353735    6.353735   -3.805050    0.000000    0.077000
   360  O     c     3.805050    6.353735   -6.353735    0.000000    0.077000
   361  O     c     6.353735    3.805050   -6.353735    0.000000    0.077000
   362  O     c    -6.353735   -6.353735    3.805050    0.000000    0.077000
   363  O     c    -3.805050   -6.353735    6.353735    0.000000    0.077000
   364  O     c    -6.353735    3.805050   -6.353735    0.000000    0.077000
   365  O     c    -3.805050    6.353735   -6.353735    0.000000    0.077000
   366  O     c    -6.353735   -3.805050    6.353735    0.000000    0.077000
   367  O     c    -8.885572   -3.811717    1.269615    0.000000    0.077000
   368  O     c     1.269615    8.885572    3.811717    0.000000    0.077000
   369  O     c    -8.885572   -1.269615    3.811717    0.000000    0.077000
   370  O     c    -8.885572    3.811717   -1.269615    0.000000    0.077000
   371  O     c    -3.811717    8.885572   -1.269615    0.000000    0.077000
   372  O     c    -3.811717   -8.885572    1.269615    0.000000    0.077000
   373  O     c     8.885572    1.269615    3.811717    0.000000    0.077000
   374  O     c    -1.269615   -8.885572    3.811717    0.000000    0.077000
   375  O     c     1.269615   -8.885572   -3.811717    0.000000    0.077000
   376  O     c     8.885572   -1.269615   -3.811717    0.000000    0.077000
   377  O     c     3.811717   -8.885572   -1.269615    0.000000    0.077000
   378  O     c     8.885572   -3.811717   -1.269615    0.000000    0.077000
   379  O     c     3.811717    8.885572   -1.269615    0.000000    0.077000
   380  O     c    -1.269615    8.885572    3.811717    0.000000    0.077000
   381  O     c    -8.885572    1.269615    3.811717    0.000000    0.077000
   382  O     c    -8.885572    3.811717    1.269615    0.000000    0.077000
   383  O     c     8.885572    3.811717   -1.269615    0.000000    0.077000
   384  O     c     8.885572   -1.269615    3.811717    0.000000    0.077000
   385  O     c     1.269615   -8.885572    3.811717    0.000000    0.077000
   386  O     c     3.811717   -8.885572    1.269615    0.000000    0.077000
   387  O     c     3.811717    1.269615    8.885572    0.000000    0.077000
   388  O     c    -1.269615   -3.811717    8.885572    0.000000    0.077000
   389  O     c     3.811717    8.885572    1.269615    0.000000    0.077000
   390  O     c    -8.885572    1.269615   -3.811717    0.000000    0.077000
   391  O     c    -1.269615    8.885572   -3.811717    0.000000    0.077000
   392  O     c     1.269615    3.811717    8.885572    0.000000    0.077000
   393  O     c    -3.811717   -1.269615    8.885572    0.000000    0.077000
   394  O     c     8.885572    3.811717    1.269615    0.000000    0.077000
   395  O     c    -3.811717    1.269615   -8.885572    0.000000    0.077000
   396  O     c    -1.269615    3.811717   -8.885572    0.000000    0.077000
   397  O     c     1.269615   -3.811717   -8.885572    0.000000    0.077000
   398  O     c     3.811717   -1.269615   -8.885572    0.000000    0.077000
   399  O     c     3.811717   -1.269615    8.885572    0.000000    0.077000
   400  O     c     1.269615   -3.811717    8.885572    0.000000    0.077000
   401  O     c    -8.885572   -3.811717   -1.269615    0.000000    0.077000
   402  O     c     1.269615    8.885572   -3.811717    0.000000    0.077000
   403  O     c    -8.885572   -1.269615   -3.811717    0.000000    0.077000
   404  O     c    -1.269615    3.811717    8.885572    0.000000    0.077000
   405  O     c    -3.811717    1.269615    8.885572    0.000000    0.077000
   406  O     c    -3.811717    8.885572    1.269615    0.000000    0.077000
   407  O     c    -3.811717   -8.885572   -1.269615    0.000000    0.077000
   408  O     c    -3.811717   -1.269615   -8.885572    0.000000    0.077000
   409  O     c     1.269615    3.811717   -8.885572    0.000000    0.077000
   410  O     c     8.885572    1.269615   -3.811717    0.000000    0.077000
   411  O     c    -1.269615   -8.885572   -3.811717    0.000000    0.077000
   412  O     c     8.885572   -3.811717    1.269615    0.000000    0.077000
   413  O     c    -1.269615   -3.811717   -8.885572    0.000000    0.077000
   414  O     c     3.811717    1.269615   -8.885572    0.000000    0.077000
   415  Zr    c     0.000000    0.000000   10.156074    0.000000    2.650000
   416  Zr    c     0.000000   10.156074    0.000000    0.000000    2.650000
   417  Zr    c   -10.156074    0.000000    0.000000    0.000000    2.650000
   418  Zr    c    10.156074    0.000000    0.000000    0.000000    2.650000
   419  Zr    c     0.000000  -10.156074    0.000000    0.000000    2.650000
   420  Zr    c     0.000000    0.000000  -10.156074    0.000000    2.650000
   421  O     c    -8.883879   -3.807250   -3.807250    0.000000    0.077000
   422  O     c    -3.807250    8.883879    3.807250    0.000000    0.077000
   423  O     c    -8.883879    3.807250    3.807250    0.000000    0.077000
   424  O     c    -3.807250   -8.883879   -3.807250    0.000000    0.077000
   425  O     c     8.883879    3.807250    3.807250    0.000000    0.077000
   426  O     c     3.807250    8.883879    3.807250    0.000000    0.077000
   427  O     c     3.807250   -8.883879   -3.807250    0.000000    0.077000
   428  O     c     8.883879   -3.807250   -3.807250    0.000000    0.077000
   429  O     c     3.807250   -3.807250    8.883879    0.000000    0.077000
   430  O     c     3.807250    8.883879   -3.807250    0.000000    0.077000
   431  O     c    -3.807250    3.807250    8.883879    0.000000    0.077000
   432  O     c     8.883879    3.807250   -3.807250    0.000000    0.077000
   433  O     c     8.883879   -3.807250    3.807250    0.000000    0.077000
   434  O     c     3.807250   -8.883879    3.807250    0.000000    0.077000
   435  O     c    -3.807250   -3.807250   -8.883879    0.000000    0.077000
   436  O     c    -3.807250   -8.883879    3.807250    0.000000    0.077000
   437  O     c    -3.807250    3.807250   -8.883879    0.000000    0.077000
   438  O     c    -8.883879   -3.807250    3.807250    0.000000    0.077000
   439  O     c     3.807250    3.807250    8.883879    0.000000    0.077000
   440  O     c    -3.807250   -3.807250    8.883879    0.000000    0.077000
   441  O     c    -8.883879    3.807250   -3.807250    0.000000    0.077000
   442  O     c    -3.807250    8.883879   -3.807250    0.000000    0.077000
   443  O     c     3.807250   -3.807250   -8.883879    0.000000    0.077000
   444  O     c     3.807250    3.807250   -8.883879    0.000000    0.077000
   445  Zr    c     7.601101    7.601101    0.000000    0.000000    2.650000
   446  Zr    c    -7.601101   -7.601101    0.000000    0.000000    2.650000
   447  Zr    c     7.601101    0.000000    7.601101    0.000000    2.650000
   448  Zr    c     0.000000   -7.601101    7.601101    0.000000    2.650000
   449  Zr    c    -7.601101    0.000000   -7.601101    0.000000    2.650000
   450  Zr    c     0.000000    7.601101   -7.601101    0.000000    2.650000
   451  Zr    c     0.000000    7.601101    7.601101    0.000000    2.650000
   452  Zr    c    -7.601101    0.000000    7.601101    0.000000    2.650000
   453  Zr    c    -7.601101    7.601101    0.000000    0.000000    2.650000
   454  Zr    c     0.000000   -7.601101   -7.601101    0.000000    2.650000
   455  Zr    c     7.601101    0.000000   -7.601101    0.000000    2.650000
   456  Zr    c     7.601101   -7.601101    0.000000    0.000000    2.650000
   457  Zr    c     2.532293   -2.532293   10.144705    0.000000    2.650000
   458  Zr    c     2.532293   10.144705   -2.532293    0.000000    2.650000
   459  Zr    c   -10.144705   -2.532293   -2.532293    0.000000    2.650000
   460  Zr    c     2.532293    2.532293   10.144705    0.000000    2.650000
   461  Zr    c    -2.532293   -2.532293   10.144705    0.000000    2.650000
   462  Zr    c     2.532293   10.144705    2.532293    0.000000    2.650000
   463  Zr    c   -10.144705   -2.532293    2.532293    0.000000    2.650000
   464  Zr    c    -2.532293   10.144705   -2.532293    0.000000    2.650000
   465  Zr    c   -10.144705    2.532293   -2.532293    0.000000    2.650000
   466  Zr    c    -2.532293    2.532293   10.144705    0.000000    2.650000
   467  Zr    c    -2.532293   10.144705    2.532293    0.000000    2.650000
   468  Zr    c   -10.144705    2.532293    2.532293    0.000000    2.650000
   469  Zr    c    10.144705    2.532293    2.532293    0.000000    2.650000
   470  Zr    c    -2.532293  -10.144705    2.532293    0.000000    2.650000
   471  Zr    c    -2.532293    2.532293  -10.144705    0.000000    2.650000
   472  Zr    c    10.144705    2.532293   -2.532293    0.000000    2.650000
   473  Zr    c    -2.532293  -10.144705   -2.532293    0.000000    2.650000
   474  Zr    c    10.144705   -2.532293    2.532293    0.000000    2.650000
   475  Zr    c     2.532293  -10.144705    2.532293    0.000000    2.650000
   476  Zr    c    -2.532293   -2.532293  -10.144705    0.000000    2.650000
   477  Zr    c     2.532293    2.532293  -10.144705    0.000000    2.650000
   478  Zr    c    10.144705   -2.532293   -2.532293    0.000000    2.650000
   479  Zr    c     2.532293  -10.144705   -2.532293    0.000000    2.650000
   480  Zr    c     2.532293   -2.532293  -10.144705    0.000000    2.650000
   481  O     c     6.345177    6.345177    6.345177    0.000000    0.077000
   482  O     c    -6.345177   -6.345177    6.345177    0.000000    0.077000
   483  O     c     6.345177   -6.345177   -6.345177    0.000000    0.077000
   484  O     c    -6.345177    6.345177   -6.345177    0.000000    0.077000
   485  O     c    -6.345177    6.345177    6.345177    0.000000    0.077000
   486  O     c     6.345177   -6.345177    6.345177    0.000000    0.077000
   487  O     c     6.345177    6.345177   -6.345177    0.000000    0.077000
   488  O     c    -6.345177   -6.345177   -6.345177    0.000000    0.077000
   489  O     c    -8.888703   -6.345959   -1.267399    0.000000    0.077000
   490  O     c    -8.888703    6.345959    1.267399    0.000000    0.077000
   491  O     c    -6.345959    8.888703    1.267399    0.000000    0.077000
   492  O     c    -6.345959   -8.888703   -1.267399    0.000000    0.077000
   493  O     c     6.345959   -8.888703    1.267399    0.000000    0.077000
   494  O     c     8.888703   -6.345959    1.267399    0.000000    0.077000
   495  O     c     8.888703    6.345959    1.267399    0.000000    0.077000
   496  O     c     6.345959    8.888703    1.267399    0.000000    0.077000
   497  O     c    -8.888703    6.345959   -1.267399    0.000000    0.077000
   498  O     c    -6.345959    8.888703   -1.267399    0.000000    0.077000
   499  O     c     6.345959   -8.888703   -1.267399    0.000000    0.077000
   500  O     c     8.888703   -6.345959   -1.267399    0.000000    0.077000
   501  O     c     6.345959   -1.267399    8.888703    0.000000    0.077000
   502  O     c     1.267399   -6.345959    8.888703    0.000000    0.077000
   503  O     c    -8.888703   -1.267399   -6.345959    0.000000    0.077000
   504  O     c     1.267399    8.888703   -6.345959    0.000000    0.077000
   505  O     c    -1.267399    6.345959    8.888703    0.000000    0.077000
   506  O     c    -6.345959    1.267399    8.888703    0.000000    0.077000
   507  O     c    -1.267399    8.888703    6.345959    0.000000    0.077000
   508  O     c    -8.888703    1.267399    6.345959    0.000000    0.077000
   509  O     c     8.888703   -1.267399    6.345959    0.000000    0.077000
   510  O     c     1.267399   -8.888703    6.345959    0.000000    0.077000
   511  O     c    -6.345959   -1.267399   -8.888703    0.000000    0.077000
   512  O     c    -1.267399   -8.888703   -6.345959    0.000000    0.077000
   513  O     c     8.888703    1.267399   -6.345959    0.000000    0.077000
   514  O     c    -1.267399   -6.345959   -8.888703    0.000000    0.077000
   515  O     c     8.888703    1.267399    6.345959    0.000000    0.077000
   516  O     c    -1.267399   -8.888703    6.345959    0.000000    0.077000
   517  O     c    -6.345959    1.267399   -8.888703    0.000000    0.077000
   518  O     c    -1.267399    6.345959   -8.888703    0.000000    0.077000
   519  O     c     6.345959    1.267399    8.888703    0.000000    0.077000
   520  O     c    -8.888703    1.267399   -6.345959    0.000000    0.077000
   521  O     c    -1.267399    8.888703   -6.345959    0.000000    0.077000
   522  O     c     1.267399    8.888703    6.345959    0.000000    0.077000
   523  O     c    -8.888703   -1.267399    6.345959    0.000000    0.077000
   524  O     c     1.267399    6.345959    8.888703    0.000000    0.077000
   525  O     c     1.267399   -6.345959   -8.888703    0.000000    0.077000
   526  O     c     6.345959   -1.267399   -8.888703    0.000000    0.077000
   527  O     c     1.267399   -8.888703   -6.345959    0.000000    0.077000
   528  O     c     8.888703   -1.267399   -6.345959    0.000000    0.077000
   529  O     c     6.345959    8.888703   -1.267399    0.000000    0.077000
   530  O     c     8.888703    6.345959   -1.267399    0.000000    0.077000
   531  O     c     1.267399    6.345959   -8.888703    0.000000    0.077000
   532  O     c     6.345959    1.267399   -8.888703    0.000000    0.077000
   533  O     c    -6.345959   -8.888703    1.267399    0.000000    0.077000
   534  O     c    -8.888703   -6.345959    1.267399    0.000000    0.077000
   535  O     c    -1.267399   -6.345959    8.888703    0.000000    0.077000
   536  O     c    -6.345959   -1.267399    8.888703    0.000000    0.077000
   537  Zr    c     5.069767    0.000000   10.132912    0.000000    2.650000
   538  Zr    c     0.000000   -5.069767   10.132912    0.000000    2.650000
   539  Zr    c     5.069767   10.132912    0.000000    0.000000    2.650000
   540  Zr    c   -10.132912   -5.069767    0.000000    0.000000    2.650000
   541  Zr    c     0.000000   10.132912   -5.069767    0.000000    2.650000
   542  Zr    c   -10.132912    0.000000   -5.069767    0.000000    2.650000
   543  Zr    c     0.000000    5.069767   10.132912    0.000000    2.650000
   544  Zr    c    -5.069767    0.000000   10.132912    0.000000    2.650000
[...]
    45  O     s    -3.805169    6.354327    6.354327   -2.077000
    46  O     s    -8.885846   -3.812024    1.269523   -2.077000
    47  Zr    s     0.000000    0.000000   10.160583    1.350000
    48  O     s    -8.883868   -3.807224   -3.807224   -2.077000
    49  Zr    s     7.602903    7.602903    0.000000    1.350000
    50  Zr    s     2.533668   -2.533668   10.146473    1.350000
    51  O     s     6.345640    6.345640    6.345640   -2.077000
    52  O     s    -8.888968   -6.345917   -1.267073   -2.077000
    53  Zr    s     5.070405    0.000000   10.135778    1.350000
    54  O     s     8.896076    6.352642    3.813333   -2.077000
    55  O     s     1.272396    1.272396   11.449593   -2.077000
    56  Zr    s     7.601180    7.601180    5.066928    1.350000
--------------------------------------------------------------------------------


  Final derivatives for region 1 :

--------------------------------------------------------------------------------
   No.  Atomic          x             y             z            Radius
        Label       (eV/Angs)     (eV/Angs)     (eV/Angs)       (eV/Angs)
--------------------------------------------------------------------------------
     1  O     c      -0.000874      0.000000      0.000000      0.000000
     2  Zr    c      -0.005116      0.000000      0.000000      0.000000
     3  O     c       0.000119     -0.000600      0.000000      0.000000
     4  Zr    c       0.000000      0.000000     -0.003400      0.000000
     5  O     c       0.000481      0.000000      0.000321      0.000000
     6  Zr    c       0.000827      0.002929      0.000000      0.000000
     7  O     c      -0.000144      0.000000     -0.000071      0.000000
     8  O     c       0.000010      0.000000      0.000000      0.000000
     9  Zr    c      -0.003098      0.000000      0.000000      0.000000
    10  O     c      -0.000049      0.000048     -0.000076      0.000000
    11  Zr    c       0.000962      0.000000     -0.001599      0.000000
    12  O     c      -0.000009     -0.000010      0.000000      0.000000
    13  Zr    c       0.000418      0.000000      0.000000      0.000000
    14  O     c      -0.000065      0.000000     -0.000025      0.000000
    15  O     c       0.000036     -0.000015      0.000000      0.000000
    16  Zr    c      -0.000392      0.000495     -0.001230      0.000000
    17  O     c       0.000015     -0.000030      0.000000      0.000000
    18  O     c       0.000045     -0.000013     -0.000002      0.000000
    19  Zr    c       0.000000      0.000000     -0.000280      0.000000
    20  O     c       0.000010      0.000021      0.000000      0.000000
    21  Zr    c      -0.000657      0.000000      0.000000      0.000000
    22  Zr    c       0.000607      0.000000     -0.000363      0.000000
    23  O     c      -0.000008      0.000000      0.000000      0.000000
    24  O     c       0.000038      0.000013      0.000007      0.000000
    25  Zr    c      -0.000021      0.000000     -0.000559      0.000000
    26  O     c      -0.000025     -0.000010     -0.000007      0.000000
    27  O     c       0.000000      0.000000     -0.000013      0.000000
    28  Zr    c      -0.000592      0.000000     -0.000196      0.000000
    29  O     s       0.002868      0.000000      0.000000      0.000000
    30  Zr    s       0.000016      0.000000      0.000000      0.000000
    31  O     s      -0.004035      0.003078      0.000000      0.000000
    32  Zr    s       0.000000      0.000000      0.002231      0.000000
    33  O     s       0.000358      0.000000     -0.003075      0.000000
    34  Zr    s      -0.003390     -0.007627      0.000000      0.000000
    35  O     s       0.000123      0.000000      0.001132      0.000000
    36  O     s       0.000078      0.000000      0.000000      0.000000
    37  Zr    s       0.000280      0.000000      0.000000      0.000000
    38  O     s       0.000617     -0.000909      0.003205      0.000000
    39  Zr    s      -0.001608      0.000000     -0.001526      0.000000
    40  O     s       0.000552      0.000758      0.000000      0.000000
    41  Zr    s       0.000163      0.000000      0.000000      0.000000
    42  O     s       0.000924      0.000000      0.000166      0.000000
    43  O     s       0.000272      0.000671      0.000000      0.000000
    44  Zr    s      -0.000530      0.000694     -0.001352      0.000000
    45  O     s      -0.000330      0.000761      0.000000      0.000000
    46  O     s      -0.001262      0.000195      0.000103      0.000000
    47  Zr    s       0.000000      0.000000     -0.000011      0.000000
    48  O     s      -0.000505     -0.000183      0.000000      0.000000
    49  Zr    s      -0.000307      0.000000      0.000000      0.000000
    50  Zr    s      -0.000733      0.000000     -0.000622      0.000000
    51  O     s       0.000273      0.000000      0.000000      0.000000
    52  O     s      -0.001106     -0.000499     -0.000225      0.000000
    53  Zr    s      -0.000079      0.000000     -0.000329      0.000000
    54  O     s       0.000805      0.000474      0.000330      0.000000
    55  O     s      -0.000116      0.000000      0.000334      0.000000
    56  Zr    s      -0.000374      0.000000     -0.000154      0.000000
--------------------------------------------------------------------------------

  Comparison of initial and final region 1 : 

--------------------------------------------------------------------------------
  Parameter   Initial value   Final value   Difference    Units      Percent
--------------------------------------------------------------------------------
      1 x         -1.268921     -1.497639    -0.228718    Cartesian   18.02
      1 y          1.268921      1.497639     0.228718    Cartesian   18.02
      1 z         -1.268921     -1.497639    -0.228718    Cartesian   18.02
      2 x          2.537842      2.475401    -0.062441    Cartesian   -2.46
      2 y          2.537842      2.475401    -0.062441    Cartesian   -2.46
      2 z          0.000000      0.000000     0.000000    Cartesian    0.00
      3 x         -1.268921     -1.248327     0.020594    Cartesian   -1.62
      3 y          3.806763      3.909101     0.102339    Cartesian    2.69
      3 z          1.268921      1.248327    -0.020594    Cartesian   -1.62
      4 x          0.000000      0.000000     0.000000    Cartesian    0.00
      4 y          0.000000      0.000000     0.000000    Cartesian    0.00
      4 z          5.075684      5.063704    -0.011980    Cartesian   -0.24
      5 x         -3.806763     -3.818048    -0.011286    Cartesian    0.30
      5 y          3.806763      3.818048     0.011286    Cartesian    0.30
      5 z         -1.268921     -1.282342    -0.013422    Cartesian    1.06
      6 x          5.075684      5.048556    -0.027127    Cartesian   -0.53
      6 y          2.537842      2.516255    -0.021586    Cartesian   -0.85
      6 z          2.537842      2.516255    -0.021586    Cartesian   -0.85
      7 x          1.268921      1.277962     0.009041    Cartesian    0.71
      7 y          1.268921      1.277962     0.009041    Cartesian    0.71
      7 z          6.344605      6.419203     0.074599    Cartesian    1.18
      8 x         -3.806763     -3.813637    -0.006874    Cartesian    0.18
      8 y          3.806763      3.813637     0.006874    Cartesian    0.18
      8 z          3.806763      3.813637     0.006874    Cartesian    0.18
      9 x          5.075684      5.052396    -0.023287    Cartesian   -0.46
      9 y          5.075684      5.052396    -0.023287    Cartesian   -0.46
      9 z          0.000000      0.000000     0.000000    Cartesian    0.00
     10 x          3.806763      3.812410     0.005647    Cartesian    0.15
     10 y         -1.268921     -1.268175     0.000746    Cartesian   -0.06
     10 z          6.344605      6.348769     0.004164    Cartesian    0.07
     11 x          2.537842      2.527248    -0.010594    Cartesian   -0.42
     11 y          0.000000      0.000000     0.000000    Cartesian    0.00
     11 z          7.613525      7.608196    -0.005330    Cartesian   -0.07
     12 x          6.344605      6.353372     0.008768    Cartesian    0.14
     12 y          3.806763      3.818035     0.011272    Cartesian    0.30
     12 z          3.806763      3.818035     0.011272    Cartesian    0.30
     13 x         -5.075684     -5.056614     0.019069    Cartesian   -0.38
     13 y          5.075684      5.056614    -0.019069    Cartesian   -0.38
     13 z          5.075684      5.056614    -0.019069    Cartesian   -0.38
     14 x          6.344605      6.351955     0.007351    Cartesian    0.12
     14 y          6.344605      6.351955     0.007351    Cartesian    0.12
     14 z          1.268921      1.273003     0.004082    Cartesian    0.32
     15 x          1.268921      1.270104     0.001183    Cartesian    0.09
     15 y          8.882446      8.928538     0.046092    Cartesian    0.52
     15 z         -1.268921     -1.270104    -0.001183    Cartesian    0.09
     16 x          5.075684      5.064597    -0.011087    Cartesian   -0.22
     16 y         -2.537842     -2.532947     0.004895    Cartesian   -0.19
     16 z          7.613525      7.601380    -0.012145    Cartesian   -0.16
     17 x         -3.806763     -3.805050     0.001713    Cartesian   -0.05
     17 y          6.344605      6.353735     0.009131    Cartesian    0.14
     17 z          6.344605      6.353735     0.009131    Cartesian    0.14
     18 x         -8.882446     -8.885572    -0.003126    Cartesian    0.04
     18 y         -3.806763     -3.811717    -0.004954    Cartesian    0.13
     18 z          1.268921      1.269615     0.000694    Cartesian    0.05
     19 x          0.000000      0.000000     0.000000    Cartesian    0.00
     19 y          0.000000      0.000000     0.000000    Cartesian    0.00
     19 z         10.151367     10.156074     0.004706    Cartesian    0.05
     20 x         -8.882446     -8.883879    -0.001433    Cartesian    0.02
     20 y         -3.806763     -3.807250    -0.000487    Cartesian    0.01
     20 z         -3.806763     -3.807250    -0.000487    Cartesian    0.01
     21 x          7.613525      7.601101    -0.012425    Cartesian   -0.16
     21 y          7.613525      7.601101    -0.012425    Cartesian   -0.16
     21 z          0.000000      0.000000     0.000000    Cartesian    0.00
     22 x          2.537842      2.532293    -0.005549    Cartesian   -0.22
     22 y         -2.537842     -2.532293     0.005549    Cartesian   -0.22
     22 z         10.151367     10.144705    -0.006663    Cartesian   -0.07
     23 x          6.344605      6.345177     0.000572    Cartesian    0.01
     23 y          6.344605      6.345177     0.000572    Cartesian    0.01
     23 z          6.344605      6.345177     0.000572    Cartesian    0.01
     24 x         -8.882446     -8.888703    -0.006256    Cartesian    0.07
     24 y         -6.344605     -6.345959    -0.001354    Cartesian    0.02
     24 z         -1.268921     -1.267399     0.001522    Cartesian   -0.12
     25 x          5.075684      5.069767    -0.005916    Cartesian   -0.12
     25 y          0.000000      0.000000     0.000000    Cartesian    0.00
     25 z         10.151367     10.132912    -0.018456    Cartesian   -0.18
     26 x          8.882446      8.895708     0.013261    Cartesian    0.15
     26 y          6.344605      6.352231     0.007626    Cartesian    0.12
     26 z          3.806763      3.812920     0.006157    Cartesian    0.16
     27 x          1.268921      1.272407     0.003486    Cartesian    0.27
     27 y          1.268921      1.272407     0.003486    Cartesian    0.27
     27 z         11.420288     11.448974     0.028686    Cartesian    0.25
     28 x          7.613525      7.599271    -0.014254    Cartesian   -0.19
     28 y          7.613525      7.599271    -0.014254    Cartesian   -0.19
     28 z          5.075684      5.065267    -0.010416    Cartesian   -0.21
     29 x         -1.268921     -1.501287    -0.232366    Cartesian   18.31
     29 y          1.268921      1.501287     0.232366    Cartesian   18.31
     29 z         -1.268921     -1.501287    -0.232366    Cartesian   18.31
     30 x          2.537842      2.485885    -0.051957    Cartesian   -2.05
     30 y          2.537842      2.485885    -0.051957    Cartesian   -2.05
     30 z          0.000000      0.000000     0.000000    Cartesian    0.00
     31 x         -1.268921     -1.248149     0.020771    Cartesian   -1.64
     31 y          3.806763      3.912099     0.105337    Cartesian    2.77
     31 z          1.268921      1.248149    -0.020771    Cartesian   -1.64
     32 x          0.000000      0.000000     0.000000    Cartesian    0.00
     32 y          0.000000      0.000000     0.000000    Cartesian    0.00
     32 z          5.075684      5.083112     0.007429    Cartesian    0.15
     33 x         -3.806763     -3.819264    -0.012501    Cartesian    0.33
     33 y          3.806763      3.819264     0.012501    Cartesian    0.33
     33 z         -1.268921     -1.283496    -0.014576    Cartesian    1.15
     34 x          5.075684      5.054583    -0.021100    Cartesian   -0.42
     34 y          2.537842      2.519842    -0.018000    Cartesian   -0.71
     34 z          2.537842      2.519842    -0.018000    Cartesian   -0.71
     35 x          1.268921      1.278058     0.009137    Cartesian    0.72
     35 y          1.268921      1.278058     0.009137    Cartesian    0.72
     35 z          6.344605      6.421060     0.076455    Cartesian    1.21
     36 x         -3.806763     -3.814227    -0.007464    Cartesian    0.20
     36 y          3.806763      3.814227     0.007464    Cartesian    0.20
     36 z          3.806763      3.814227     0.007464    Cartesian    0.20
     37 x          5.075684      5.056123    -0.019561    Cartesian   -0.39
     37 y          5.075684      5.056123    -0.019561    Cartesian   -0.39
     37 z          0.000000      0.000000     0.000000    Cartesian    0.00
     38 x          3.806763      3.812872     0.006109    Cartesian    0.16
     38 y         -1.268921     -1.268177     0.000744    Cartesian   -0.06
     38 z          6.344605      6.349063     0.004458    Cartesian    0.07
     39 x          2.537842      2.530462    -0.007380    Cartesian   -0.29
     39 y          0.000000      0.000000     0.000000    Cartesian    0.00
     39 z          7.613525      7.612950    -0.000575    Cartesian   -0.01
     40 x          6.344605      6.354058     0.009454    Cartesian    0.15
     40 y          3.806763      3.818850     0.012087    Cartesian    0.32
     40 z          3.806763      3.818850     0.012087    Cartesian    0.32
     41 x         -5.075684     -5.059951     0.015733    Cartesian   -0.31
     41 y          5.075684      5.059951    -0.015733    Cartesian   -0.31
     41 z          5.075684      5.059951    -0.015733    Cartesian   -0.31
     42 x          6.344605      6.352575     0.007971    Cartesian    0.13
     42 y          6.344605      6.352575     0.007971    Cartesian    0.13
     42 z          1.268921      1.273322     0.004401    Cartesian    0.35
     43 x          1.268921      1.270360     0.001439    Cartesian    0.11
     43 y          8.882446      8.929682     0.047236    Cartesian    0.53
     43 z         -1.268921     -1.270360    -0.001439    Cartesian    0.11
     44 x          5.075684      5.066745    -0.008939    Cartesian   -0.18
     44 y         -2.537842     -2.533986     0.003855    Cartesian   -0.15
     44 z          7.613525      7.603853    -0.009672    Cartesian   -0.13
     45 x         -3.806763     -3.805169     0.001594    Cartesian   -0.04
     45 y          6.344605      6.354327     0.009722    Cartesian    0.15
     45 z          6.344605      6.354327     0.009722    Cartesian    0.15
     46 x         -8.882446     -8.885846    -0.003400    Cartesian    0.04
     46 y         -3.806763     -3.812024    -0.005261    Cartesian    0.14
     46 z          1.268921      1.269523     0.000602    Cartesian    0.05
     47 x          0.000000      0.000000     0.000000    Cartesian    0.00
     47 y          0.000000      0.000000     0.000000    Cartesian    0.00
     47 z         10.151367     10.160583     0.009216    Cartesian    0.09
     48 x         -8.882446     -8.883868    -0.001422    Cartesian    0.02
     48 y         -3.806763     -3.807224    -0.000462    Cartesian    0.01
     48 z         -3.806763     -3.807224    -0.000462    Cartesian    0.01
     49 x          7.613525      7.602903    -0.010622    Cartesian   -0.14
     49 y          7.613525      7.602903    -0.010622    Cartesian   -0.14
     49 z          0.000000      0.000000     0.000000    Cartesian    0.00
     50 x          2.537842      2.533668    -0.004173    Cartesian   -0.16
     50 y         -2.537842     -2.533668     0.004173    Cartesian   -0.16
     50 z         10.151367     10.146473    -0.004895    Cartesian   -0.05
     51 x          6.344605      6.345640     0.001036    Cartesian    0.02
     51 y          6.344605      6.345640     0.001036    Cartesian    0.02
     51 z          6.344605      6.345640     0.001036    Cartesian    0.02
     52 x         -8.882446     -8.888968    -0.006522    Cartesian    0.07
     52 y         -6.344605     -6.345917    -0.001313    Cartesian    0.02
     52 z         -1.268921     -1.267073     0.001848    Cartesian   -0.15
     53 x          5.075684      5.070405    -0.005279    Cartesian   -0.10
     53 y          0.000000      0.000000     0.000000    Cartesian    0.00
     53 z         10.151367     10.135778    -0.015589    Cartesian   -0.15
     54 x          8.882446      8.896076     0.013629    Cartesian    0.15
     54 y          6.344605      6.352642     0.008038    Cartesian    0.13
     54 z          3.806763      3.813333     0.006570    Cartesian    0.17
     55 x          1.268921      1.272396     0.003475    Cartesian    0.27
     55 y          1.268921      1.272396     0.003475    Cartesian    0.27
     55 z         11.420288     11.449593     0.029305    Cartesian    0.26
     56 x          7.613525      7.601180    -0.012346    Cartesian   -0.16
     56 y          7.613525      7.601180    -0.012346    Cartesian   -0.16
     56 z          5.075684      5.066928    -0.008756    Cartesian   -0.17
--------------------------------------------------------------------------------


  Time to end of optimisation  =        6.9111 seconds


  Peak dynamic memory used =     270.72 MB 


  Timing analysis for GULP :

--------------------------------------------------------------------------------
  Task / Subroutine                                          Time (Seconds)
--------------------------------------------------------------------------------
  Calculation of reciprocal space energy and derivatives          0.0004
  Calculation of reciprocal space energy using symmetry           0.0009
  Calculation of real space energy and derivatives                0.0035
  Calculation of real space energy using symmetry                 0.0234
  Calculation for region 1 energy and derivatives (2-b)           3.0265
  Calculation for region 2a energy                                3.3225
  Calculation for region 2b energy                                0.0002
  Calculation and manipulation of Hessian matrix                  0.0931
  Calculation of matrix inversion                                 0.0008
  Symmetry generation of equivalent positions                     0.0066
--------------------------------------------------------------------------------
  Total CPU time                                                  6.9111
--------------------------------------------------------------------------------


  Dump file written as ZrO2.grs


  Job Finished at 10:31.12  6th October    2020                               

