********************************************************************************
*                       GENERAL UTILITY LATTICE PROGRAM                        *
*                                 Julian Gale                                  *
*                       Curtin Institute for Computation                       *
*                    School of Molecular and Life Sciences                     *
*                    Curtin University, Western Australia                      *
********************************************************************************
* Version = 5.2.0 * Last modified =  10th September 2020                       *
********************************************************************************
*  optimise     - perform optimisation run                                     *
*  conp         - constant pressure calculation                                *
*  property     - calculate properties for final geometry                      *
*  defect       - perform defect calculation after bulk run                    *
*  compare      - compare initial and final structures                         *
********************************************************************************

  Job Started  at 17:35.26 20th October    2020                               

  Number of CPUs =     1


  Total number of configurations input =      1

********************************************************************************
*  Input for Configuration =   1                                               *
********************************************************************************

  Formula = ClOLi3                                                      

  Number of irreducible atoms/shells =       5


  Total number atoms/shells =       7

  Dimensionality = 3               :  Bulk   


  Symmetry :

  Crystal family                   :  Cubic       
  Crystal class  (Groth - 1921)    :  Cubic Hexakisoctahedral              

  Space group (centrosymmetric)    :  P M 3 M         

  Patterson group                  :  P m -3 m 

  Cartesian lattice vectors (Angstroms) :

        3.918873    0.000000    0.000000
        0.000000    3.918873    0.000000
        0.000000    0.000000    3.918873

  Cell parameters (Angstroms/Degrees):

  a =       3.9189    alpha =  90.0000
  b =       3.9189    beta  =  90.0000
  c =       3.9189    gamma =  90.0000

  Initial cell volume =          60.184349 Angs**3

  Temperature of configuration =   0.00     K 

  Pressure of configuration =         0.000 GPa 

  Fractional coordinates of asymmetric unit :

--------------------------------------------------------------------------------
   No.  Atomic       x           y          z         Charge      Occupancy
        Label      (Frac)      (Frac)     (Frac)        (e)         (Frac)  
--------------------------------------------------------------------------------
      1 Cl    c    0.000000    0.000000    0.000000     1.48500    1.000000    
      2 O     c    0.500000    0.500000    0.500000     0.18300    1.000000    
      3 Li    c    0.500000    0.500000    0.000000     1.00000    1.000000    
      4 Cl    s    0.000000    0.000000    0.000000    -2.48500    1.000000    
      5 O     s    0.500000    0.500000    0.500000    -2.18300    1.000000    
--------------------------------------------------------------------------------


  Constraints : 

--------------------------------------------------------------------------------
  Constraint no.      Unconstrained     Constrained    Coefficient    Offset
                         Variable         Variable
--------------------------------------------------------------------------------
           1              Strain 1        Strain 2       1.00000      0.0000
           2              Strain 1        Strain 3       1.00000      0.0000
--------------------------------------------------------------------------------


********************************************************************************
*  General input information                                                   *
********************************************************************************

  Species output for all configurations : 

--------------------------------------------------------------------------------
  Species    Type    Atomic    Atomic    Charge       Radii (Angs)     Library
                     Number     Mass       (e)     Cova   Ionic  VDW   Symbol
--------------------------------------------------------------------------------
    Li       Core        3       6.94   1.000000   0.680  0.000  1.800          
    O        Core        8      16.00   0.183000   0.730  0.000  1.360          
    O        Shell       8       0.00  -2.183000   0.730  0.000  1.360          
    Cl       Core       17      35.45   1.485000   0.990  0.000  1.650          
    Cl       Shell      17       0.00  -2.485000   0.990  0.000  1.650          
--------------------------------------------------------------------------------


  Lattice summation method               =    Ewald          (3-D)
                                         =    Parry          (2-D)
                                         =    Saunders et al (1-D)
  Accuracy factor for lattice sums       =   12.000


  Analytic derivatives to be used

  Time limit = Infinity

  Maximum range for interatomic potentials =    100000.000000 Angstroms

  General interatomic potentials :

--------------------------------------------------------------------------------
Atom  Types   Potential      Parameter       Value         Units   Cutoffs(Ang)
  1     2                                                            Min /  Max 
--------------------------------------------------------------------------------
O    c O    s Spring (c-s)  Spring k 2       593.72000    eV*Ang^-2 0.000  0.800
                            Spring k 4       0.0000000    eV*Ang^-4 
--------------------------------------------------------------------------------
Cl   c Cl   s Spring (c-s)  Spring k 2       29.380000    eV*Ang^-2 0.000  0.800
                            Spring k 4       0.0000000    eV*Ang^-4 
--------------------------------------------------------------------------------
Li   c Li   c Buckingham    Buckingham A     360.53000    eV        0.000 12.000
                            Buckingham rho  0.16100000    Ang       
                            Buckingham C     0.0000000    eV*Ang^6  
--------------------------------------------------------------------------------
Li   c O    s Buckingham    Buckingham A     292.30000    eV        0.000 12.000
                            Buckingham rho  0.34720000    Ang       
                            Buckingham C     0.0000000    eV*Ang^6  
--------------------------------------------------------------------------------
Li   c Cl   s Buckingham    Buckingham A     421.04000    eV        0.000 12.000
                            Buckingham rho  0.33400000    Ang       
                            Buckingham C     0.0000000    eV*Ang^6  
--------------------------------------------------------------------------------
O    s O    s Buckingham    Buckingham A     22764.300    eV        0.000 12.000
                            Buckingham rho  0.14900000    Ang       
                            Buckingham C     13.190000    eV*Ang^6  
--------------------------------------------------------------------------------
O    s Cl   s Buckingham    Buckingham A     8286.9100    eV        0.000 12.000
                            Buckingham rho  0.25900000    Ang       
                            Buckingham C     62.200000    eV*Ang^6  
--------------------------------------------------------------------------------
Cl   s Cl   s Buckingham    Buckingham A     1227.2000    eV        0.000 12.000
                            Buckingham rho  0.32100000    Ang       
                            Buckingham C     14.530000    eV*Ang^6  
--------------------------------------------------------------------------------

********************************************************************************
*  Output for configuration   1                                                *
********************************************************************************


  Components of energy : 

--------------------------------------------------------------------------------
  Interatomic potentials     =           7.26836263 eV    
  Monopole - monopole (real) =         -11.53475722 eV    
  Monopole - monopole (recip)=         -33.94580548 eV    
  Monopole - monopole (total)=         -45.48056271 eV    
--------------------------------------------------------------------------------
  Total lattice energy       =         -38.21220008 eV    
--------------------------------------------------------------------------------
  Total lattice energy       =           -3686.8932 kJ/(mole unit cells)
--------------------------------------------------------------------------------


  Number of variables =        1

  Maximum number of calculations  =          1000
  Maximum Hessian update interval =            10
  Maximum step size               =   1.000000000
  Maximum parameter tolerance     =   0.000010000
  Maximum function  tolerance     =   0.000010000
  Maximum gradient  tolerance     =   0.001000000
  Maximum gradient  component     =   0.010000000

  Symmetry constrained optimisation

  Symmetry used for second derivatives

  Cell parameters to be optimised using strains

  Newton-Raphson optimiser to be used

  BFGS hessian update to be used

  Lower half triangular hessian to be used

  Start of bulk optimisation :

  Cycle:      0 Energy:       -38.212200  Gnorm:      0.095699  CPU:    0.008
  ** Hessian calculated **
  Cycle:      1 Energy:       -38.212222  Gnorm:      0.000105  CPU:    0.010


  **** Optimisation achieved ****


  Final energy =     -38.21222207 eV
  Final Gnorm  =       0.00000016

  Components of energy : 

--------------------------------------------------------------------------------
  Interatomic potentials     =           7.24743141 eV    
  Monopole - monopole (real) =         -11.52945423 eV    
  Monopole - monopole (recip)=         -33.93019924 eV    
  Monopole - monopole (total)=         -45.45965348 eV    
--------------------------------------------------------------------------------
  Total lattice energy       =         -38.21222207 eV    
--------------------------------------------------------------------------------
  Total lattice energy       =           -3686.8953 kJ/(mole unit cells)
--------------------------------------------------------------------------------

  Final asymmetric unit coordinates :

--------------------------------------------------------------------------------
   No.  Atomic        x           y           z         Radius
        Label       (Frac)      (Frac)      (Frac)       (Angs) 
--------------------------------------------------------------------------------
     1  Cl    c     0.000000    0.000000    0.000000    0.000000
     2  O     c     0.500000    0.500000    0.500000    0.000000
     3  Li    c     0.500000    0.500000    0.000000    0.000000
     4  Cl    s     0.000000    0.000000    0.000000    0.000000
     5  O     s     0.500000    0.500000    0.500000    0.000000
--------------------------------------------------------------------------------

  Final Cartesian lattice vectors (Angstroms) :

        3.920675    0.000000    0.000000
        0.000000    3.920675    0.000000
        0.000000    0.000000    3.920675


  Final cell parameters and derivatives :

--------------------------------------------------------------------------------
       a            3.920675 Angstrom     dE/de1(xx)    -0.000000 eV/strain
       b            3.920675 Angstrom     dE/de2(yy)     0.000000 eV/strain
       c            3.920675 Angstrom     dE/de3(zz)     0.000000 eV/strain
       alpha       90.000000 Degrees      dE/de4(yz)     0.000000 eV/strain
       beta        90.000000 Degrees      dE/de5(xz)     0.000000 eV/strain
       gamma       90.000000 Degrees      dE/de6(xy)     0.000000 eV/strain
--------------------------------------------------------------------------------

  Primitive cell volume =            60.267433 Angs**3

  Density of cell =      1.991276 g/cm**3

  Non-primitive cell volume =            60.267433 Angs**3


  Final internal derivatives :

--------------------------------------------------------------------------------
   No.  Atomic          a             b             c           Radius
        Label          (eV)          (eV)          (eV)        (eV/Angs)
--------------------------------------------------------------------------------
      1 Cl    c       0.000000      0.000000      0.000000      0.000000
      2 O     c       0.000000      0.000000      0.000000      0.000000
      3 Li    c       0.000000      0.000000      0.000000      0.000000
      4 Cl    s       0.000000      0.000000      0.000000      0.000000
      5 O     s       0.000000      0.000000      0.000000      0.000000
--------------------------------------------------------------------------------
  Maximum abs         0.000000      0.000000      0.000000      0.000000
--------------------------------------------------------------------------------

  Comparison of initial and final structures : 

--------------------------------------------------------------------------------
  Parameter   Initial value   Final value   Difference    Units      Percent
--------------------------------------------------------------------------------
    Volume        60.184349     60.267433     0.083084    Angs**3      0.14
    a              3.918873      3.920675     0.001802    Angstroms    0.05
    b              3.918873      3.920675     0.001802    Angstroms    0.05
    c              3.918873      3.920675     0.001802    Angstroms    0.05
    alpha         90.000000     90.000000     0.000000    Degrees      0.00
    beta          90.000000     90.000000     0.000000    Degrees      0.00
    gamma         90.000000     90.000000     0.000000    Degrees      0.00
      1 x          0.000000      0.000000     0.000000    Fractional   0.00
      1 y          0.000000      0.000000     0.000000    Fractional   0.00
      1 z          0.000000      0.000000     0.000000    Fractional   0.00
      2 x          0.500000      0.500000     0.000000    Fractional   0.00
      2 y          0.500000      0.500000     0.000000    Fractional   0.00
      2 z          0.500000      0.500000     0.000000    Fractional   0.00
      3 x          0.500000      0.500000     0.000000    Fractional   0.00
      3 y          0.500000      0.500000     0.000000    Fractional   0.00
      3 z          0.000000      0.000000     0.000000    Fractional   0.00
      4 x          0.000000      0.000000     0.000000    Fractional   0.00
      4 y          0.000000      0.000000     0.000000    Fractional   0.00
      4 z          0.000000      0.000000     0.000000    Fractional   0.00
      5 x          0.500000      0.500000     0.000000    Fractional   0.00
      5 y          0.500000      0.500000     0.000000    Fractional   0.00
      5 z          0.500000      0.500000     0.000000    Fractional   0.00
--------------------------------------------------------------------------------


  Born effective charge tensors : 

-------------------------------------------------------------------------------
  Atom             x           y             z
-------------------------------------------------------------------------------
    1 Cl    x      -0.9489     -0.0000     -0.0000
            y      -0.0000     -0.9489     -0.0000
            z      -0.0000     -0.0000     -0.9489
-------------------------------------------------------------------------------
    2 O     x      -2.4688      0.0000      0.0000
            y       0.0000     -2.4688      0.0000
            z       0.0000      0.0000     -2.4688
-------------------------------------------------------------------------------
    3 Li    x       1.3129      0.0000     -0.0000
            y       0.0000      1.3129      0.0000
            z      -0.0000      0.0000      0.7919
-------------------------------------------------------------------------------




  Elastic Constant Matrix: (Units=GPa)

-------------------------------------------------------------------------------
  Indices      1         2         3         4         5         6    
-------------------------------------------------------------------------------
       1     94.3368   44.9178   44.9178    0.0000   -0.0000    0.0000
       2     44.9178   94.3368   44.9178   -0.0000    0.0000   -0.0000
       3     44.9178   44.9178   94.3368    0.0000   -0.0000    0.0000
       4      0.0000   -0.0000    0.0000   44.9178   -0.0000    0.0000
       5     -0.0000    0.0000   -0.0000   -0.0000   44.9178    0.0000
       6      0.0000   -0.0000    0.0000    0.0000    0.0000   44.9178
-------------------------------------------------------------------------------


  Elastic Compliance Matrix: (Units=1/GPa)

-------------------------------------------------------------------------------
  Indices      1         2         3         4         5         6    
-------------------------------------------------------------------------------
       1    0.015300 -0.004935 -0.004935 -0.000000  0.000000 -0.000000
       2   -0.004935  0.015300 -0.004935  0.000000 -0.000000  0.000000
       3   -0.004935 -0.004935  0.015300 -0.000000  0.000000 -0.000000
       4   -0.000000  0.000000 -0.000000  0.022263  0.000000 -0.000000
       5    0.000000 -0.000000  0.000000  0.000000  0.022263 -0.000000
       6   -0.000000  0.000000 -0.000000 -0.000000 -0.000000  0.022263
-------------------------------------------------------------------------------

  Mechanical properties :

-------------------------------------------------------------------------------
  Convention :                    Reuss         Voigt         Hill
-------------------------------------------------------------------------------
  Bulk  Modulus (GPa)     =      61.39080      61.39080      61.39080
  Shear Modulus (GPa)     =      33.84570      36.83448      35.34009
-------------------------------------------------------------------------------
  Velocity S-wave (km/s)  =       4.12274       4.30092       4.21277
  Velocity P-wave (km/s)  =       7.31386       7.44942       7.38195
-------------------------------------------------------------------------------
  Compressibility (1/GPa) =    0.01628909
-------------------------------------------------------------------------------
  Stress axis :                     x             y             z
-------------------------------------------------------------------------------
  Youngs Moduli (GPa)     =      65.35947      65.35947      65.35947
-------------------------------------------------------------------------------
  Poissons Ratio (x)      =                     0.32256       0.32256
  Poissons Ratio (y)      =       0.32256                     0.32256
  Poissons Ratio (z)      =       0.32256       0.32256
-------------------------------------------------------------------------------


  Piezoelectric Strain Matrix: (Units=C/m**2)

-------------------------------------------------------------------------------
  Indices      1         2         3         4         5         6    
-------------------------------------------------------------------------------
       x    -0.00000   0.00000   0.00000  -0.00000  -0.00000   0.00000
       y    -0.00000   0.00000   0.00000  -0.00000  -0.00000  -0.00000
       z     0.00000   0.00000   0.00000   0.00000  -0.00000  -0.00000
-------------------------------------------------------------------------------


  Piezoelectric Stress Matrix: (Units=10**-11 C/N)

-------------------------------------------------------------------------------
  Indices      1         2         3         4         5         6    
-------------------------------------------------------------------------------
       x    -0.00000   0.00000   0.00000  -0.00000  -0.00000   0.00000
       y    -0.00000   0.00000   0.00000  -0.00000  -0.00000  -0.00000
       z    -0.00000  -0.00000   0.00000   0.00000  -0.00000  -0.00000
-------------------------------------------------------------------------------


  Static dielectric constant tensor : 

-------------------------------------------------------------------------------
              x         y         z
-------------------------------------------------------------------------------
       x    12.11703   0.00000  -0.00000
       y     0.00000  12.11703  -0.00000
       z    -0.00000  -0.00000  12.11703
--------------------------------------------------------------------------------

  High frequency dielectric constant tensor : 

-------------------------------------------------------------------------------
              x         y         z
-------------------------------------------------------------------------------
       x     1.74104   0.00000   0.00000
       y     0.00000   1.74104   0.00000
       z     0.00000   0.00000   1.74104
-------------------------------------------------------------------------------

  Static refractive indices : 

-------------------------------------------------------------------------------
    1 =    3.48095      2 =    3.48095      3 =    3.48095
-------------------------------------------------------------------------------

  High frequency refractive indices : 

-------------------------------------------------------------------------------
    1 =    1.31948      2 =    1.31948      3 =    1.31948
-------------------------------------------------------------------------------


  Time to end of optimisation =       0.0136 seconds

********************************************************************************
*  Defect calculation for configuration   1 :                                  *
********************************************************************************

  Total number of defects =      3

  Total charge on defect  =   1.00

  Defect centre is at   0.1959   0.0000   0.0000  Angs

  Region 1 radius =  20.0000      Number of ions =   3868

  Number of symmetry inequivalent region 1 ions  =    626

  Region 2 radius =  24.0000      Number of ions =   2880

  Number of symmetry inequivalent region 2a ions =    421

  Region 2a mode = 4 : screened electrostatics due to region 1 
                       neglect correction to region 1 forces from 2a
                       region 2a displacements based on defects only

  Region 2a ions will only interact with defects in region 1

  Vacancies:

--------------------------------------------------------------------------------
    Specification type     Symbol/Number         x          y          z
--------------------------------------------------------------------------------
    Cartesian                                0.000000   0.000000   0.000000
    Cartesian                                3.918873   0.000000   0.000000
--------------------------------------------------------------------------------

  Interstitials:

--------------------------------------------------------------------------------
    Specification type     Symbol/Number         x          y          z
--------------------------------------------------------------------------------
    Atom/Fractional         Cl               0.195944   0.000000   0.000000
--------------------------------------------------------------------------------


  Symmetry reduced region 1 (Relative to defect centre) :

--------------------------------------------------------------------------------
   No.   Atomic       x            y             z       Radius  Multiplicity   
         Label      (Angs)       (Angs)        (Angs)    (Angs)     
--------------------------------------------------------------------------------
     1  Cl    c      0.5723       0.0000       0.0000    0.0000     1    Defect
     2  Li    c      1.7644 *    -1.9603 *     0.0000    0.0000     4          
     3  Li    c     -0.1959 *    -1.9603 *    -1.9603    0.0000     4          
     4  Li    c     -2.1563 *    -1.9603 *     0.0000    0.0000     4          
     5  O     c      1.7644 *    -1.9603 *    -1.9603    0.0000     4          
     6  O     c     -2.1563 *    -1.9603 *    -1.9603    0.0000     4          
     7  Cl    c     -0.1959 *     0.0000       3.9207 *  0.0000     4          
     8  Cl    c     -4.1166 *     0.0000       0.0000    0.0000     1          
     9  Li    c      3.7247 *    -1.9603 *    -1.9603    0.0000     4          
    10  Li    c      1.7644 *    -1.9603 *     3.9207 *  0.0000     8          
    11  Li    c     -2.1563 *    -1.9603 *     3.9207 *  0.0000     8          
    12  Li    c     -4.1166 *    -1.9603 *    -1.9603    0.0000     4          
    13  Cl    c      3.7247 *     0.0000       3.9207 *  0.0000     4          
    14  Cl    c     -0.1959 *     3.9207 *     3.9207    0.0000     4          
    15  Cl    c     -4.1166 *     0.0000       3.9207 *  0.0000     4          
    16  Li    c      5.6851 *    -1.9603 *     0.0000    0.0000     4          
    17  Li    c      1.7644 *     5.8810 *     0.0000    0.0000     4          
    18  Li    c     -0.1959 *     5.8810 *    -1.9603 *  0.0000     8          
    19  Li    c     -2.1563 *     5.8810 *     0.0000    0.0000     4          
    20  O     c      5.6851 *    -1.9603 *    -1.9603    0.0000     4          
    21  Li    c     -6.0770 *    -1.9603 *     0.0000    0.0000     4          
    22  O     c      1.7644 *    -1.9603 *     5.8810 *  0.0000     8          
    23  O     c     -2.1563 *     5.8810 *    -1.9603 *  0.0000     8          
    24  O     c     -6.0770 *    -1.9603 *    -1.9603    0.0000     4          
    25  Cl    c      3.7247 *     3.9207 *     3.9207    0.0000     4          
    26  Cl    c     -4.1166 *     3.9207 *     3.9207    0.0000     4          
    27  Li    c      5.6851 *    -1.9603 *     3.9207 *  0.0000     8          
    28  Li    c      3.7247 *    -1.9603 *     5.8810 *  0.0000     8          
    29  Li    c      1.7644 *     5.8810 *     3.9207 *  0.0000     8          
    30  Li    c     -2.1563 *     5.8810 *     3.9207 *  0.0000     8          
    31  Li    c     -4.1166 *     5.8810 *    -1.9603 *  0.0000     8          
    32  Li    c     -6.0770 *    -1.9603 *     3.9207 *  0.0000     8          
    33  Cl    c      7.6454 *     0.0000       0.0000    0.0000     1          
    34  Cl    c     -0.1959 *     0.0000       7.8414 *  0.0000     4          
    35  Cl    c     -8.0373 *     0.0000       0.0000    0.0000     1          
    36  Li    c      7.6454 *    -1.9603 *    -1.9603    0.0000     4          
    37  Li    c      5.6851 *     5.8810 *     0.0000    0.0000     4          
    38  Li    c      1.7644 *    -1.9603 *     7.8414 *  0.0000     8          
    39  Li    c     -0.1959 *     5.8810 *     5.8810    0.0000     4          
    40  Li    c     -2.1563 *    -1.9603 *     7.8414 *  0.0000     8          
    41  O     c      5.6851 *    -1.9603 *     5.8810 *  0.0000     8          
    42  Li    c     -6.0770 *     5.8810 *     0.0000    0.0000     4          
    43  Li    c     -8.0373 *    -1.9603 *    -1.9603    0.0000     4          
    44  O     c      1.7644 *     5.8810 *     5.8810    0.0000     4          
    45  O     c     -2.1563 *     5.8810 *     5.8810    0.0000     4          
    46  Cl    c      7.6454 *     0.0000       3.9207 *  0.0000     4          
    47  O     c     -6.0770 *    -1.9603 *     5.8810 *  0.0000     8          
    48  Cl    c      3.7247 *     0.0000       7.8414 *  0.0000     4          
    49  Cl    c     -0.1959 *     3.9207 *     7.8414 *  0.0000     8          
    50  Cl    c     -4.1166 *     0.0000       7.8414 *  0.0000     4          
    51  Cl    c     -8.0373 *     0.0000       3.9207 *  0.0000     4          
    52  Li    c      5.6851 *     5.8810 *     3.9207 *  0.0000     8          
    53  Li    c      3.7247 *     5.8810 *     5.8810    0.0000     4          
    54  Li    c     -4.1166 *     5.8810 *     5.8810    0.0000     4          
    55  Li    c     -6.0770 *     3.9207 *     5.8810 *  0.0000     8          
    56  Cl    c      7.6454 *     3.9207 *     3.9207    0.0000     4          
    57  Cl    c      3.7247 *     3.9207 *     7.8414 *  0.0000     8          
    58  Cl    c     -4.1166 *     3.9207 *     7.8414 *  0.0000     8          
    59  Cl    c     -8.0373 *     3.9207 *     3.9207    0.0000     4          
    60  Li    c      9.6057 *    -1.9603 *     0.0000    0.0000     4          
    61  Li    c      7.6454 *    -1.9603 *     5.8810 *  0.0000     8          
    62  Li    c      5.6851 *    -1.9603 *     7.8414 *  0.0000     8          
    63  Li    c      1.7644 *     5.8810 *     7.8414 *  0.0000     8          
    64  Li    c      1.7644 *     9.8017 *     0.0000    0.0000     4          
    65  Li    c     -0.1959 *    -1.9603 *     9.8017 *  0.0000     8          
    66  O     c      9.6057 *    -1.9603 *    -1.9603    0.0000     4          
    67  Li    c     -2.1563 *     5.8810 *     7.8414 *  0.0000     8          
    68  Li    c     -2.1563 *     9.8017 *     0.0000    0.0000     4          
    69  O     c      5.6851 *     5.8810 *     5.8810    0.0000     4          
    70  Li    c     -6.0770 *    -1.9603 *     7.8414 *  0.0000     8          
    71  Li    c     -8.0373 *    -1.9603 *     5.8810 *  0.0000     8          
    72  O     c      1.7644 *    -1.9603 *     9.8017 *  0.0000     8          
    73  Li    c     -9.9976 *    -1.9603 *     0.0000    0.0000     4          
    74  O     c     -2.1563 *    -1.9603 *     9.8017 *  0.0000     8          
    75  O     c     -6.0770 *     5.8810 *     5.8810    0.0000     4          
    76  O     c     -9.9976 *    -1.9603 *    -1.9603    0.0000     4          
    77  Li    c      9.6057 *    -1.9603 *     3.9207 *  0.0000     8          
    78  Li    c      3.7247 *    -1.9603 *     9.8017 *  0.0000     8          
    79  Li    c      1.7644 *     3.9207 *     9.8017 *  0.0000     8          
    80  Li    c     -2.1563 *     9.8017 *     3.9207 *  0.0000     8          
    81  Li    c     -4.1166 *    -1.9603 *     9.8017 *  0.0000     8          
    82  Li    c     -9.9976 *    -1.9603 *     3.9207 *  0.0000     8          
    83  Cl    c      7.6454 *     0.0000       7.8414 *  0.0000     4          
    84  Cl    c     -0.1959 *     7.8414 *     7.8414    0.0000     4          
    85  Cl    c     -8.0373 *     0.0000       7.8414 *  0.0000     4          
    86  Li    c      9.6057 *     5.8810 *     0.0000    0.0000     4          
    87  Li    c      7.6454 *     5.8810 *     5.8810    0.0000     4          
    88  Li    c      5.6851 *     5.8810 *     7.8414 *  0.0000     8          
    89  Li    c      5.6851 *     9.8017 *     0.0000    0.0000     4          
    90  Li    c     -0.1959 *     5.8810 *     9.8017 *  0.0000     8          
    91  O     c      9.6057 *    -1.9603 *     5.8810 *  0.0000     8          
    92  O     c      5.6851 *     9.8017 *    -1.9603 *  0.0000     8          
    93  Li    c     -6.0770 *     5.8810 *     7.8414 *  0.0000     8          
    94  Li    c     -6.0770 *     9.8017 *     0.0000    0.0000     4          
    95  Li    c     -8.0373 *     5.8810 *     5.8810    0.0000     4          
    96  O     c      1.7644 *     5.8810 *     9.8017 *  0.0000     8          
    97  Cl    c     11.5661 *     0.0000       0.0000    0.0000     1          
    98  Li    c     -9.9976 *     5.8810 *     0.0000    0.0000     4          
    99  O     c     -2.1563 *     5.8810 *     9.8017 *  0.0000     8          
   100  Cl    c      7.6454 *     3.9207 *     7.8414 *  0.0000     8          
   101  O     c     -6.0770 *    -1.9603 *     9.8017 *  0.0000     8          
   102  Cl    c      3.7247 *     7.8414 *     7.8414    0.0000     4          
   103  O     c     -9.9976 *     5.8810 *    -1.9603 *  0.0000     8          
   104  Cl    c     -0.1959 *     0.0000      11.7620 *  0.0000     4          
   105  Cl    c     -4.1166 *     7.8414 *     7.8414    0.0000     4          
   106  Cl    c     -8.0373 *     7.8414 *     3.9207 *  0.0000     8          
   107  Li    c     11.5661 *    -1.9603 *    -1.9603    0.0000     4          
   108  Li    c      9.6057 *     5.8810 *     3.9207 *  0.0000     8          
   109  Cl    c    -11.9580 *     0.0000       0.0000    0.0000     1          
   110  Li    c      5.6851 *     9.8017 *     3.9207 *  0.0000     8          
   111  Li    c      3.7247 *     5.8810 *     9.8017 *  0.0000     8          
   112  Li    c      1.7644 *    -1.9603 *    11.7620 *  0.0000     8          
   113  Li    c     -2.1563 *    -1.9603 *    11.7620 *  0.0000     8          
   114  Li    c     -4.1166 *     5.8810 *     9.8017 *  0.0000     8          
   115  Li    c     -6.0770 *     9.8017 *     3.9207 *  0.0000     8          
   116  Cl    c     11.5661 *     0.0000       3.9207 *  0.0000     4          
   117  Li    c     -9.9976 *     5.8810 *     3.9207 *  0.0000     8          
   118  Li    c    -11.9580 *    -1.9603 *    -1.9603    0.0000     4          
   119  Cl    c      3.7247 *     0.0000      11.7620 *  0.0000     4          
   120  Cl    c     -0.1959 *    11.7620 *     3.9207 *  0.0000     8          
   121  Cl    c     -4.1166 *     0.0000      11.7620 *  0.0000     4          
   122  Li    c      9.6057 *    -1.9603 *     7.8414 *  0.0000     8          
   123  Cl    c    -11.9580 *     0.0000       3.9207 *  0.0000     4          
   124  Li    c      7.6454 *    -1.9603 *     9.8017 *  0.0000     8          
   125  Li    c      1.7644 *     9.8017 *     7.8414 *  0.0000     8          
   126  O     c      9.6057 *     5.8810 *     5.8810    0.0000     4          
   127  Li    c     -2.1563 *     9.8017 *     7.8414 *  0.0000     8          
   128  O     c      5.6851 *     9.8017 *     5.8810 *  0.0000     8          
   129  Li    c     -8.0373 *    -1.9603 *     9.8017 *  0.0000     8          
   130  Cl    c     11.5661 *     3.9207 *     3.9207    0.0000     4          
   131  Li    c     -9.9976 *    -1.9603 *     7.8414 *  0.0000     8          
   132  O     c     -6.0770 *     5.8810 *     9.8017 *  0.0000     8          
   133  Cl    c      3.7247 *     3.9207 *    11.7620 *  0.0000     8          
   134  O     c     -9.9976 *     5.8810 *     5.8810    0.0000     4          
   135  Cl    c     -4.1166 *     3.9207 *    11.7620 *  0.0000     8          
   136  Li    c     11.5661 *    -1.9603 *     5.8810 *  0.0000     8          
   137  Cl    c    -11.9580 *     3.9207 *     3.9207    0.0000     4          
   138  Li    c      5.6851 *    -1.9603 *    11.7620 *  0.0000     8          
   139  Li    c      1.7644 *     5.8810 *    11.7620 *  0.0000     8          
   140  Li    c     -2.1563 *     5.8810 *    11.7620 *  0.0000     8          
   141  Li    c     -6.0770 *    -1.9603 *    11.7620 *  0.0000     8          
   142  Li    c    -11.9580 *    -1.9603 *     5.8810 *  0.0000     8          
   143  Cl    c      7.6454 *     7.8414 *     7.8414    0.0000     4          
   144  Li    c     13.5264 *    -1.9603 *     0.0000    0.0000     4          
   145  Cl    c     -8.0373 *     7.8414 *     7.8414    0.0000     4          
   146  Li    c      9.6057 *     5.8810 *     7.8414 *  0.0000     8          
   147  Li    c      9.6057 *     9.8017 *     0.0000    0.0000     4          
   148  Li    c      7.6454 *     5.8810 *     9.8017 *  0.0000     8          
   149  Li    c      5.6851 *     9.8017 *     7.8414 *  0.0000     8          
   150  O     c     13.5264 *    -1.9603 *    -1.9603    0.0000     4          
   151  Li    c      1.7644 *    13.7224 *     0.0000    0.0000     4          
   152  Li    c     -0.1959 *    13.7224 *    -1.9603 *  0.0000     8          
   153  Li    c     -0.1959 *     9.8017 *     9.8017    0.0000     4          
   154  O     c      9.6057 *     9.8017 *    -1.9603 *  0.0000     8          
   155  Li    c     -2.1563 *    13.7224 *     0.0000    0.0000     4          
   156  Li    c     -6.0770 *     9.8017 *     7.8414 *  0.0000     8          
   157  Li    c     -8.0373 *     5.8810 *     9.8017 *  0.0000     8          
   158  O     c      1.7644 *    -1.9603 *    13.7224 *  0.0000     8          
   159  O     c      1.7644 *     9.8017 *     9.8017    0.0000     4          
   160  Cl    c     11.5661 *     0.0000       7.8414 *  0.0000     4          
   161  Li    c     -9.9976 *     5.8810 *     7.8414 *  0.0000     8          
   162  Li    c     -9.9976 *     9.8017 *     0.0000    0.0000     4          
   163  O     c     -2.1563 *    -1.9603 *    13.7224 *  0.0000     8          
   164  O     c     -2.1563 *     9.8017 *     9.8017    0.0000     4          
   165  Cl    c      7.6454 *     0.0000      11.7620 *  0.0000     4          
   166  Li    c    -13.9183 *    -1.9603 *     0.0000    0.0000     4          
   167  O     c     -9.9976 *     9.8017 *    -1.9603 *  0.0000     8          
   168  Cl    c     -0.1959 *    11.7620 *     7.8414 *  0.0000     8          
   169  O     c    -13.9183 *    -1.9603 *    -1.9603    0.0000     4          
   170  Li    c     13.5264 *    -1.9603 *     3.9207 *  0.0000     8          
   171  Cl    c     -8.0373 *     0.0000      11.7620 *  0.0000     4          
   172  Li    c     11.5661 *     5.8810 *     5.8810    0.0000     4          
   173  Li    c      9.6057 *     9.8017 *     3.9207 *  0.0000     8          
   174  Cl    c    -11.9580 *     0.0000       7.8414 *  0.0000     4          
   175  Li    c      5.6851 *     5.8810 *    11.7620 *  0.0000     8          
   176  Li    c      3.7247 *    -1.9603 *    13.7224 *  0.0000     8          
   177  Li    c      3.7247 *     9.8017 *     9.8017    0.0000     4          
   178  Li    c      1.7644 *    13.7224 *     3.9207 *  0.0000     8          
   179  Li    c     -2.1563 *    13.7224 *     3.9207 *  0.0000     8          
   180  Li    c     -4.1166 *    13.7224 *    -1.9603 *  0.0000     8          
   181  Li    c     -4.1166 *     9.8017 *     9.8017    0.0000     4          
   182  Li    c     -6.0770 *     5.8810 *    11.7620 *  0.0000     8          
   183  Cl    c     11.5661 *     3.9207 *     7.8414 *  0.0000     8          
   184  Li    c     -9.9976 *     9.8017 *     3.9207 *  0.0000     8          
   185  Li    c    -11.9580 *     5.8810 *     5.8810    0.0000     4          
   186  Cl    c      7.6454 *     3.9207 *    11.7620 *  0.0000     8          
   187  Li    c    -13.9183 *    -1.9603 *     3.9207 *  0.0000     8          
   188  Cl    c      3.7247 *     7.8414 *    11.7620 *  0.0000     8          
   189  Cl    c     -4.1166 *     7.8414 *    11.7620 *  0.0000     8          
   190  Li    c     13.5264 *     5.8810 *     0.0000    0.0000     4          
   191  Cl    c     -8.0373 *     3.9207 *    11.7620 *  0.0000     8          
   192  Cl    c    -11.9580 *     3.9207 *     7.8414 *  0.0000     8          
   193  Li    c      5.6851 *    13.7224 *     0.0000    0.0000     4          
   194  O     c     13.5264 *    -1.9603 *     5.8810 *  0.0000     8          
   195  Li    c     -0.1959 *     5.8810 *    13.7224 *  0.0000     8          
   196  O     c      9.6057 *     9.8017 *     5.8810 *  0.0000     8          
   197  O     c      5.6851 *    13.7224 *    -1.9603 *  0.0000     8          
   198  O     c      5.6851 *     9.8017 *     9.8017    0.0000     4          
   199  Li    c     -6.0770 *    13.7224 *     0.0000    0.0000     4          
   200  O     c      1.7644 *     5.8810 *    13.7224 *  0.0000     8          
   201  O     c     -2.1563 *     5.8810 *    13.7224 *  0.0000     8          
   202  Li    c    -13.9183 *     5.8810 *     0.0000    0.0000     4          
   203  O     c     -6.0770 *    -1.9603 *    13.7224 *  0.0000     8          
   204  O     c     -6.0770 *     9.8017 *     9.8017    0.0000     4          
   205  O     c     -9.9976 *     5.8810 *     9.8017 *  0.0000     8          
   206  O     c    -13.9183 *    -1.9603 *     5.8810 *  0.0000     8          
   207  Li    c     13.5264 *     5.8810 *     3.9207 *  0.0000     8          
   208  Li    c     11.5661 *    -1.9603 *     9.8017 *  0.0000     8          
   209  Li    c      9.6057 *    -1.9603 *    11.7620 *  0.0000     8          
   210  Li    c      5.6851 *    13.7224 *     3.9207 *  0.0000     8          
   211  Li    c      3.7247 *     5.8810 *    13.7224 *  0.0000     8          
   212  Li    c      1.7644 *     9.8017 *    11.7620 *  0.0000     8          
   213  Li    c     -2.1563 *     9.8017 *    11.7620 *  0.0000     8          
   214  Li    c     -4.1166 *    13.7224 *     5.8810 *  0.0000     8          
   215  Cl    c     15.4868 *     0.0000       0.0000    0.0000     1          
   216  Li    c     -6.0770 *    13.7224 *     3.9207 *  0.0000     8          
   217  Li    c     -9.9976 *    -1.9603 *    11.7620 *  0.0000     8          
   218  Li    c    -11.9580 *    -1.9603 *     9.8017 *  0.0000     8          
   219  Li    c    -13.9183 *     5.8810 *     3.9207 *  0.0000     8          
   220  Cl    c     -0.1959 *     0.0000      15.6827 *  0.0000     4          
   221  Li    c     15.4868 *    -1.9603 *    -1.9603    0.0000     4          
   222  Li    c     13.5264 *    -1.9603 *     7.8414 *  0.0000     8          
   223  Li    c      9.6057 *     9.8017 *     7.8414 *  0.0000     8          
   224  Li    c      7.6454 *    -1.9603 *    13.7224 *  0.0000     8          
   225  Li    c      7.6454 *     9.8017 *     9.8017    0.0000     4          
   226  Cl    c    -15.8786 *     0.0000       0.0000    0.0000     1          
   227  O     c     13.5264 *     5.8810 *     5.8810    0.0000     4          
   228  Li    c      1.7644 *    -1.9603 *    15.6827 *  0.0000     8          
   229  Li    c      1.7644 *    13.7224 *     7.8414 *  0.0000     8          
   230  Li    c     -2.1563 *    -1.9603 *    15.6827 *  0.0000     8          
   231  Li    c     -2.1563 *    13.7224 *     7.8414 *  0.0000     8          
   232  O     c      5.6851 *    13.7224 *     5.8810 *  0.0000     8          
   233  Cl    c     15.4868 *     0.0000       3.9207 *  0.0000     4          
   234  Li    c     -8.0373 *    -1.9603 *    13.7224 *  0.0000     8          
   235  Li    c     -8.0373 *     9.8017 *     9.8017    0.0000     4          
   236  Cl    c     11.5661 *     7.8414 *     7.8414    0.0000     4          
   237  Li    c     -9.9976 *     9.8017 *     7.8414 *  0.0000     8          
   238  Cl    c      7.6454 *     7.8414 *    11.7620 *  0.0000     8          
   239  Li    c    -13.9183 *    -1.9603 *     7.8414 *  0.0000     8          
   240  Li    c    -15.8786 *    -1.9603 *    -1.9603    0.0000     4          
   241  O     c     -6.0770 *     5.8810 *    13.7224 *  0.0000     8          
   242  Cl    c      3.7247 *     0.0000      15.6827 *  0.0000     4          
   243  Cl    c     -0.1959 *     3.9207 *    15.6827 *  0.0000     8          
   244  O     c    -13.9183 *     5.8810 *     5.8810    0.0000     4          
   245  Cl    c     -4.1166 *     0.0000      15.6827 *  0.0000     4          
   246  Cl    c     -8.0373 *     7.8414 *    11.7620 *  0.0000     8          
   247  Li    c     11.5661 *     5.8810 *     9.8017 *  0.0000     8          
   248  Li    c      9.6057 *     5.8810 *    11.7620 *  0.0000     8          
   249  Cl    c    -11.9580 *     7.8414 *     7.8414    0.0000     4          
   250  Li    c      5.6851 *     9.8017 *    11.7620 *  0.0000     8          
   251  Cl    c    -15.8786 *     0.0000       3.9207 *  0.0000     4          
   252  Cl    c     15.4868 *     3.9207 *     3.9207    0.0000     4          
   253  Li    c     -6.0770 *     9.8017 *    11.7620 *  0.0000     8          
   254  Cl    c     11.5661 *     0.0000      11.7620 *  0.0000     4          
   255  Li    c     -9.9976 *     5.8810 *    11.7620 *  0.0000     8          
   256  Li    c    -11.9580 *     5.8810 *     9.8017 *  0.0000     8          
   257  Cl    c      3.7247 *     3.9207 *    15.6827 *  0.0000     8          
   258  Cl    c     -0.1959 *    11.7620 *    11.7620    0.0000     4          
   259  Cl    c     -4.1166 *     3.9207 *    15.6827 *  0.0000     8          
   260  Li    c     15.4868 *     5.8810 *    -1.9603 *  0.0000     8          
   261  Li    c     13.5264 *     5.8810 *     7.8414 *  0.0000     8          
   262  Li    c     13.5264 *     9.8017 *     0.0000    0.0000     4          
   263  Li    c      9.6057 *    13.7224 *     0.0000    0.0000     4          
   264  Cl    c    -11.9580 *     0.0000      11.7620 *  0.0000     4          
   265  Li    c      7.6454 *     5.8810 *    13.7224 *  0.0000     8          
   266  Li    c      5.6851 *    -1.9603 *    15.6827 *  0.0000     8          
   267  Li    c      5.6851 *    13.7224 *     7.8414 *  0.0000     8          
   268  Cl    c    -15.8786 *     3.9207 *     3.9207    0.0000     4          
   269  O     c     13.5264 *    -1.9603 *     9.8017 *  0.0000     8          
   270  Li    c      1.7644 *     5.8810 *    15.6827 *  0.0000     8          
   271  Li    c     -0.1959 *     9.8017 *    13.7224 *  0.0000     8          
   272  O     c      9.6057 *    13.7224 *    -1.9603 *  0.0000     8          
   273  O     c      9.6057 *     9.8017 *     9.8017    0.0000     4          
   274  Li    c     -2.1563 *     5.8810 *    15.6827 *  0.0000     8          
   275  Li    c     -6.0770 *    -1.9603 *    15.6827 *  0.0000     8          
   276  Li    c     -6.0770 *    13.7224 *     7.8414 *  0.0000     8          
   277  Li    c     -8.0373 *     5.8810 *    13.7224 *  0.0000     8          
   278  O     c      1.7644 *     9.8017 *    13.7224 *  0.0000     8          
   279  Cl    c     11.5661 *     3.9207 *    11.7620 *  0.0000     8          
   280  Li    c     -9.9976 *    13.7224 *     0.0000    0.0000     4          
   281  O     c     -2.1563 *     9.8017 *    13.7224 *  0.0000     8          
   282  Li    c    -13.9183 *     7.8414 *     5.8810 *  0.0000     8          
   283  Li    c    -13.9183 *     9.8017 *     0.0000    0.0000     4          
   284  Li    c    -15.8786 *    -1.9603 *     5.8810 *  0.0000     8          
   285  Cl    c      3.7247 *    11.7620 *    11.7620    0.0000     4          
   286  O     c     -9.9976 *    -1.9603 *    13.7224 *  0.0000     8          
   287  O     c     -9.9976 *     9.8017 *     9.8017    0.0000     4          
   288  O     c    -13.9183 *    -1.9603 *     9.8017 *  0.0000     8          
   289  Cl    c     -4.1166 *    11.7620 *    11.7620    0.0000     4          
   290  Li    c     13.5264 *     3.9207 *     9.8017 *  0.0000     8          
   291  Li    c      9.6057 *    13.7224 *     3.9207 *  0.0000     8          
   292  Cl    c    -11.9580 *     3.9207 *    11.7620 *  0.0000     8          
   293  Li    c      3.7247 *     9.8017 *    13.7224 *  0.0000     8          
   294  Li    c     -4.1166 *    13.7224 *     9.8017 *  0.0000     8          
   295  Cl    c     15.4868 *     0.0000       7.8414 *  0.0000     4          
   296  Li    c     -9.9976 *    13.7224 *     3.9207 *  0.0000     8          
   297  Cl    c      7.6454 *     0.0000      15.6827 *  0.0000     4          
   298  Li    c    -13.9183 *     9.8017 *     3.9207 *  0.0000     8          
   299  Cl    c     -0.1959 *     7.8414 *    15.6827 *  0.0000     8          
   300  Li    c     17.4471 *    -1.9603 *     0.0000    0.0000     4          
   301  Li    c     15.4868 *     5.8810 *     5.8810    0.0000     4          
   302  Cl    c     -8.0373 *     0.0000      15.6827 *  0.0000     4          
   303  O     c     17.4471 *    -1.9603 *    -1.9603    0.0000     4          
   304  Li    c      5.6851 *    15.6827 *     5.8810 *  0.0000     8          
   305  Cl    c    -15.8786 *     0.0000       7.8414 *  0.0000     4          
   306  O     c     13.5264 *     5.8810 *     9.8017 *  0.0000     8          
   307  Li    c      1.7644 *    17.6430 *     0.0000    0.0000     4          
   308  Li    c     -0.1959 *    -1.9603 *    17.6430 *  0.0000     8          
   309  O     c      9.6057 *    13.7224 *     5.8810 *  0.0000     8          
   310  Li    c     -2.1563 *    17.6430 *     0.0000    0.0000     4          
   311  O     c      5.6851 *     9.8017 *    13.7224 *  0.0000     8          
   312  Cl    c     15.4868 *     3.9207 *     7.8414 *  0.0000     8          
   313  Li    c     -6.0770 *     5.8810 *    15.6827 *  0.0000     8          
   314  O     c      1.7644 *    17.6430 *    -1.9603 *  0.0000     8          
   315  O     c     -2.1563 *    -1.9603 *    17.6430 *  0.0000     8          
   316  Cl    c      7.6454 *     3.9207 *    15.6827 *  0.0000     8          
   317  Li    c    -15.8786 *     5.8810 *     5.8810    0.0000     4          
   318  O     c     -6.0770 *     9.8017 *    13.7224 *  0.0000     8          
   319  Cl    c      3.7247 *     7.8414 *    15.6827 *  0.0000     8          
   320  Li    c    -17.8390 *    -1.9603 *     0.0000    0.0000     4          
   321  O     c     -9.9976 *     5.8810 *    13.7224 *  0.0000     8          
   322  Li    c     17.4471 *    -1.9603 *     3.9207 *  0.0000     8          
   323  O     c    -13.9183 *     5.8810 *     9.8017 *  0.0000     8          
   324  Cl    c     -4.1166 *     7.8414 *    15.6827 *  0.0000     8          
   325  Li    c     13.5264 *    11.7620 *    -1.9603 *  0.0000     8          
   326  O     c    -17.8390 *    -1.9603 *    -1.9603    0.0000     4          
   327  Cl    c     -8.0373 *     3.9207 *    15.6827 *  0.0000     8          
   328  Li    c     11.5661 *    -1.9603 *    13.7224 *  0.0000     8          
   329  Li    c     11.5661 *     9.8017 *     9.8017    0.0000     4          
   330  Li    c      9.6057 *     9.8017 *    11.7620 *  0.0000     8          
   331  Cl    c    -15.8786 *     3.9207 *     7.8414 *  0.0000     8          
   332  Li    c      3.7247 *    -1.9603 *    17.6430 *  0.0000     8          
   333  Li    c      1.7644 *    13.7224 *    11.7620 *  0.0000     8          
   334  Li    c      1.7644 *    17.6430 *     3.9207 *  0.0000     8          
   335  Li    c     -2.1563 *    13.7224 *    11.7620 *  0.0000     8          
   336  Li    c     -2.1563 *    17.6430 *     3.9207 *  0.0000     8          
   337  Li    c     -4.1166 *    -1.9603 *    17.6430 *  0.0000     8          
   338  Cl    c     11.5661 *     7.8414 *    11.7620 *  0.0000     8          
   339  Li    c     -9.9976 *     9.8017 *    11.7620 *  0.0000     8          
   340  Li    c    -11.9580 *    -1.9603 *    13.7224 *  0.0000     8          
   341  Li    c    -11.9580 *     9.8017 *     9.8017    0.0000     4          
   342  Cl    c      7.6454 *    11.7620 *    11.7620    0.0000     4          
   343  Li    c    -13.9183 *    -1.9603 *    11.7620 *  0.0000     8          
   344  Li    c    -17.8390 *    -1.9603 *     3.9207 *  0.0000     8          
   345  Li    c     17.4471 *     5.8810 *     0.0000    0.0000     4          
   346  Li    c     15.4868 *    -1.9603 *     9.8017 *  0.0000     8          
   347  Li    c     13.5264 *     7.8414 *     9.8017 *  0.0000     8          
   348  Cl    c     -8.0373 *    11.7620 *    11.7620    0.0000     4          
   349  Li    c      9.6057 *    -1.9603 *    15.6827 *  0.0000     8          
   350  Li    c      9.6057 *    13.7224 *     7.8414 *  0.0000     8          
   351  Cl    c    -11.9580 *     7.8414 *    11.7620 *  0.0000     8          
   352  Li    c      7.6454 *     9.8017 *    13.7224 *  0.0000     8          
   353  O     c     17.4471 *    -1.9603 *     5.8810 *  0.0000     8          
   354  Li    c      5.6851 *    17.6430 *     0.0000    0.0000     4          
   355  Li    c      1.7644 *     9.8017 *    15.6827 *  0.0000     8          
   356  Li    c     -0.1959 *    17.6430 *     5.8810 *  0.0000     8          
   357  Li    c     -2.1563 *     9.8017 *    15.6827 *  0.0000     8          
   358  O     c      5.6851 *    -1.9603 *    17.6430 *  0.0000     8          
   359  Li    c     -6.0770 *    17.6430 *     0.0000    0.0000     4          
   360  Li    c     -8.0373 *     9.8017 *    13.7224 *  0.0000     8          
   361  O     c      1.7644 *     5.8810 *    17.6430 *  0.0000     8          
   362  Li    c     -9.9976 *    15.6827 *    -1.9603 *  0.0000     8          
   363  Li    c     -9.9976 *    13.7224 *     7.8414 *  0.0000     8          
   364  O     c     -2.1563 *     5.8810 *    17.6430 *  0.0000     8          
   365  Li    c    -13.9183 *     9.8017 *     7.8414 *  0.0000     8          
   366  Li    c    -15.8786 *    -1.9603 *     9.8017 *  0.0000     8          
   367  O     c     -6.0770 *    17.6430 *    -1.9603 *  0.0000     8          
   368  Li    c    -17.8390 *     5.8810 *     0.0000    0.0000     4          
   369  Li    c     17.4471 *     3.9207 *     5.8810 *  0.0000     8          
   370  Li    c     13.5264 *    11.7620 *     5.8810 *  0.0000     8          
   371  O     c    -17.8390 *     5.8810 *    -1.9603 *  0.0000     8          
   372  Li    c     11.5661 *     5.8810 *    13.7224 *  0.0000     8          
   373  Li    c      5.6851 *    13.7224 *    11.7620 *  0.0000     8          
   374  Li    c      5.6851 *     3.9207 *    17.6430 *  0.0000     8          
   375  Li    c      3.7247 *     5.8810 *    17.6430 *  0.0000     8          
   376  Li    c     -4.1166 *     5.8810 *    17.6430 *  0.0000     8          
   377  Cl    c     15.4868 *     7.8414 *     7.8414    0.0000     4          
   378  Li    c     -6.0770 *    13.7224 *    11.7620 *  0.0000     8          
   379  Li    c     -6.0770 *    17.6430 *     3.9207 *  0.0000     8          
   380  Li    c    -11.9580 *     5.8810 *    13.7224 *  0.0000     8          
   381  Cl    c      7.6454 *     7.8414 *    15.6827 *  0.0000     8          
   382  Li    c    -13.9183 *     5.8810 *    11.7620 *  0.0000     8          
   383  Li    c    -17.8390 *     5.8810 *     3.9207 *  0.0000     8          
   384  Li    c     17.4471 *    -1.9603 *     7.8414 *  0.0000     8          
   385  Li    c     15.4868 *     5.8810 *     9.8017 *  0.0000     8          
   386  Li    c     13.5264 *    13.7224 *     0.0000    0.0000     4          
   387  Cl    c     -8.0373 *     7.8414 *    15.6827 *  0.0000     8          
   388  Li    c      9.6057 *     5.8810 *    15.6827 *  0.0000     8          
   389  Li    c      7.6454 *    -1.9603 *    17.6430 *  0.0000     8          
   390  O     c     17.4471 *     5.8810 *     5.8810    0.0000     4          
   391  Li    c      5.6851 *     9.8017 *    15.6827 *  0.0000     8          
   392  Cl    c    -15.8786 *     7.8414 *     7.8414    0.0000     4          
   393  O     c     13.5264 *    -1.9603 *    13.7224 *  0.0000     8          
   394  O     c     13.5264 *     9.8017 *     9.8017    0.0000     4          
   395  Li    c      1.7644 *    17.6430 *     7.8414 *  0.0000     8          
   396  Li    c     -0.1959 *    13.7224 *    13.7224    0.0000     4          
   397  O     c      9.6057 *     9.8017 *    13.7224 *  0.0000     8          
   398  Cl    c     19.4074 *     0.0000       0.0000    0.0000     1          
   399  Li    c     -2.1563 *    17.6430 *     7.8414 *  0.0000     8          
   400  O     c      5.6851 *     5.8810 *    17.6430 *  0.0000     8          
   401  Cl    c     15.4868 *     0.0000      11.7620 *  0.0000     4          
   402  Li    c     -6.0770 *     9.8017 *    15.6827 *  0.0000     8          
   403  Li    c     -8.0373 *    17.6430 *    -1.9603 *  0.0000     8          
   404  O     c      1.7644 *    13.7224 *    13.7224    0.0000     4          
   405  Cl    c     11.5661 *     0.0000      15.6827 *  0.0000     4          
   406  Li    c     -9.9976 *     5.8810 *    15.6827 *  0.0000     8          
   407  O     c     -2.1563 *    13.7224 *    13.7224    0.0000     4          
   408  Li    c    -13.9183 *    13.7224 *     0.0000    0.0000     4          
   409  Li    c    -15.8786 *     5.8810 *     9.8017 *  0.0000     8          
   410  O     c     -6.0770 *    17.6430 *     5.8810 *  0.0000     8          
   411  Li    c    -17.8390 *    -1.9603 *     7.8414 *  0.0000     8          
   412  O     c     -9.9976 *     9.8017 *    13.7224 *  0.0000     8          
   413  Cl    c     -0.1959 *    11.7620 *    15.6827 *  0.0000     8          
   414  Cl    c     -0.1959 *     0.0000      19.6034 *  0.0000     4          
   415  Li    c     19.4074 *    -1.9603 *    -1.9603    0.0000     4          
   416  O     c    -13.9183 *    -1.9603 *    13.7224 *  0.0000     8          
   417  O     c    -13.9183 *     9.8017 *     9.8017    0.0000     4          
   418  Li    c     13.5264 *     3.9207 *    13.7224 *  0.0000     8          
   419  O     c    -17.8390 *     5.8810 *     5.8810    0.0000     4          
   420  Cl    c    -11.9580 *     0.0000      15.6827 *  0.0000     4          
   421  Cl    c    -15.8786 *     0.0000      11.7620 *  0.0000     4          
   422  Li    c      3.7247 *    13.7224 *    13.7224    0.0000     4          
   423  Li    c      1.7644 *    19.6034 *    -1.9603 *  0.0000     8          
   424  Cl    c    -19.7993 *     0.0000       0.0000    0.0000     1          
   425  Cl    c     19.4074 *     0.0000       3.9207 *  0.0000     4          
   426  Li    c     -2.1563 *    -1.9603 *    19.6034 *  0.0000     8          
   427  Li    c     -4.1166 *    13.7224 *    13.7224    0.0000     4          
   428  Cl    c     15.4868 *     3.9207 *    11.7620 *  0.0000     8          
   429  Cl    c     11.5661 *     3.9207 *    15.6827 *  0.0000     8          
   430  Li    c    -13.9183 *    13.7224 *     3.9207 *  0.0000     8          
   431  Cl    c      3.7247 *    11.7620 *    15.6827 *  0.0000     8          
   432  Cl    c      3.7247 *     0.0000      19.6034 *  0.0000     4          
   433  Li    c    -19.7993 *    -1.9603 *    -1.9603    0.0000     4          
   434  Cl    c     -0.1959 *     3.9207 *    19.6034 *  0.0000     8          
   435  Cl    s      0.5723       0.0000       0.0000    0.0000     1    Defect
   436  O     s      1.7644 *    -1.9603 *    -1.9603    0.0000     4          
   437  O     s     -2.1563 *    -1.9603 *    -1.9603    0.0000     4          
   438  Cl    s     -0.1959 *     0.0000       3.9207 *  0.0000     4          
   439  Cl    s     -4.1166 *     0.0000       0.0000    0.0000     1          
   440  Cl    s      3.7247 *     0.0000       3.9207 *  0.0000     4          
   441  Cl    s     -0.1959 *     3.9207 *     3.9207    0.0000     4          
   442  Cl    s     -4.1166 *     0.0000       3.9207 *  0.0000     4          
   443  O     s      5.6851 *    -1.9603 *    -1.9603    0.0000     4          
   444  O     s      1.7644 *    -1.9603 *     5.8810 *  0.0000     8          
   445  O     s     -2.1563 *     5.8810 *    -1.9603 *  0.0000     8          
   446  O     s     -6.0770 *    -1.9603 *    -1.9603    0.0000     4          
   447  Cl    s      3.7247 *     3.9207 *     3.9207    0.0000     4          
   448  Cl    s     -4.1166 *     3.9207 *     3.9207    0.0000     4          
   449  Cl    s      7.6454 *     0.0000       0.0000    0.0000     1          
   450  Cl    s     -0.1959 *     0.0000       7.8414 *  0.0000     4          
   451  Cl    s     -8.0373 *     0.0000       0.0000    0.0000     1          
   452  O     s      5.6851 *    -1.9603 *     5.8810 *  0.0000     8          
   453  O     s      1.7644 *     5.8810 *     5.8810    0.0000     4          
   454  O     s     -2.1563 *     5.8810 *     5.8810    0.0000     4          
   455  Cl    s      7.6454 *     0.0000       3.9207 *  0.0000     4          
   456  O     s     -6.0770 *    -1.9603 *     5.8810 *  0.0000     8          
   457  Cl    s      3.7247 *     0.0000       7.8414 *  0.0000     4          
   458  Cl    s     -0.1959 *     3.9207 *     7.8414 *  0.0000     8          
   459  Cl    s     -4.1166 *     0.0000       7.8414 *  0.0000     4          
   460  Cl    s     -8.0373 *     0.0000       3.9207 *  0.0000     4          
   461  Cl    s      7.6454 *     3.9207 *     3.9207    0.0000     4          
   462  Cl    s      3.7247 *     3.9207 *     7.8414 *  0.0000     8          
   463  Cl    s     -4.1166 *     3.9207 *     7.8414 *  0.0000     8          
   464  Cl    s     -8.0373 *     3.9207 *     3.9207    0.0000     4          
   465  O     s      9.6057 *    -1.9603 *    -1.9603    0.0000     4          
   466  O     s      5.6851 *     5.8810 *     5.8810    0.0000     4          
   467  O     s      1.7644 *    -1.9603 *     9.8017 *  0.0000     8          
   468  O     s     -2.1563 *    -1.9603 *     9.8017 *  0.0000     8          
   469  O     s     -6.0770 *     5.8810 *     5.8810    0.0000     4          
   470  O     s     -9.9976 *    -1.9603 *    -1.9603    0.0000     4          
   471  Cl    s      7.6454 *     0.0000       7.8414 *  0.0000     4          
   472  Cl    s     -0.1959 *     7.8414 *     7.8414    0.0000     4          
   473  Cl    s     -8.0373 *     0.0000       7.8414 *  0.0000     4          
   474  O     s      9.6057 *    -1.9603 *     5.8810 *  0.0000     8          
   475  O     s      5.6851 *     9.8017 *    -1.9603 *  0.0000     8          
   476  O     s      1.7644 *     5.8810 *     9.8017 *  0.0000     8          
   477  Cl    s     11.5661 *     0.0000       0.0000    0.0000     1          
   478  O     s     -2.1563 *     5.8810 *     9.8017 *  0.0000     8          
   479  Cl    s      7.6454 *     3.9207 *     7.8414 *  0.0000     8          
   480  O     s     -6.0770 *    -1.9603 *     9.8017 *  0.0000     8          
   481  Cl    s      3.7247 *     7.8414 *     7.8414    0.0000     4          
   482  O     s     -9.9976 *     5.8810 *    -1.9603 *  0.0000     8          
   483  Cl    s     -0.1959 *     0.0000      11.7620 *  0.0000     4          
   484  Cl    s     -4.1166 *     7.8414 *     7.8414    0.0000     4          
   485  Cl    s     -8.0373 *     7.8414 *     3.9207 *  0.0000     8          
   486  Cl    s    -11.9580 *     0.0000       0.0000    0.0000     1          
   487  Cl    s     11.5661 *     0.0000       3.9207 *  0.0000     4          
   488  Cl    s      3.7247 *     0.0000      11.7620 *  0.0000     4          
   489  Cl    s     -0.1959 *    11.7620 *     3.9207 *  0.0000     8          
   490  Cl    s     -4.1166 *     0.0000      11.7620 *  0.0000     4          
   491  Cl    s    -11.9580 *     0.0000       3.9207 *  0.0000     4          
   492  O     s      9.6057 *     5.8810 *     5.8810    0.0000     4          
   493  O     s      5.6851 *     9.8017 *     5.8810 *  0.0000     8          
   494  Cl    s     11.5661 *     3.9207 *     3.9207    0.0000     4          
   495  O     s     -6.0770 *     5.8810 *     9.8017 *  0.0000     8          
   496  Cl    s      3.7247 *     3.9207 *    11.7620 *  0.0000     8          
   497  O     s     -9.9976 *     5.8810 *     5.8810    0.0000     4          
   498  Cl    s     -4.1166 *     3.9207 *    11.7620 *  0.0000     8          
   499  Cl    s    -11.9580 *     3.9207 *     3.9207    0.0000     4          
   500  Cl    s      7.6454 *     7.8414 *     7.8414    0.0000     4          
   501  Cl    s     -8.0373 *     7.8414 *     7.8414    0.0000     4          
   502  O     s     13.5264 *    -1.9603 *    -1.9603    0.0000     4          
   503  O     s      9.6057 *     9.8017 *    -1.9603 *  0.0000     8          
   504  O     s      1.7644 *    -1.9603 *    13.7224 *  0.0000     8          
   505  O     s      1.7644 *     9.8017 *     9.8017    0.0000     4          
   506  Cl    s     11.5661 *     0.0000       7.8414 *  0.0000     4          
   507  O     s     -2.1563 *    -1.9603 *    13.7224 *  0.0000     8          
   508  O     s     -2.1563 *     9.8017 *     9.8017    0.0000     4          
   509  Cl    s      7.6454 *     0.0000      11.7620 *  0.0000     4          
   510  O     s     -9.9976 *     9.8017 *    -1.9603 *  0.0000     8          
   511  Cl    s     -0.1959 *    11.7620 *     7.8414 *  0.0000     8          
   512  O     s    -13.9183 *    -1.9603 *    -1.9603    0.0000     4          
   513  Cl    s     -8.0373 *     0.0000      11.7620 *  0.0000     4          
   514  Cl    s    -11.9580 *     0.0000       7.8414 *  0.0000     4          
   515  Cl    s     11.5661 *     3.9207 *     7.8414 *  0.0000     8          
   516  Cl    s      7.6454 *     3.9207 *    11.7620 *  0.0000     8          
   517  Cl    s      3.7247 *     7.8414 *    11.7620 *  0.0000     8          
   518  Cl    s     -4.1166 *     7.8414 *    11.7620 *  0.0000     8          
   519  Cl    s     -8.0373 *     3.9207 *    11.7620 *  0.0000     8          
   520  Cl    s    -11.9580 *     3.9207 *     7.8414 *  0.0000     8          
   521  O     s     13.5264 *    -1.9603 *     5.8810 *  0.0000     8          
   522  O     s      9.6057 *     9.8017 *     5.8810 *  0.0000     8          
   523  O     s      5.6851 *    13.7224 *    -1.9603 *  0.0000     8          
   524  O     s      5.6851 *     9.8017 *     9.8017    0.0000     4          
   525  O     s      1.7644 *     5.8810 *    13.7224 *  0.0000     8          
   526  O     s     -2.1563 *     5.8810 *    13.7224 *  0.0000     8          
   527  O     s     -6.0770 *    -1.9603 *    13.7224 *  0.0000     8          
   528  O     s     -6.0770 *     9.8017 *     9.8017    0.0000     4          
   529  O     s     -9.9976 *     5.8810 *     9.8017 *  0.0000     8          
   530  O     s    -13.9183 *    -1.9603 *     5.8810 *  0.0000     8          
   531  Cl    s     15.4868 *     0.0000       0.0000    0.0000     1          
   532  Cl    s     -0.1959 *     0.0000      15.6827 *  0.0000     4          
   533  Cl    s    -15.8786 *     0.0000       0.0000    0.0000     1          
   534  O     s     13.5264 *     5.8810 *     5.8810    0.0000     4          
   535  O     s      5.6851 *    13.7224 *     5.8810 *  0.0000     8          
   536  Cl    s     15.4868 *     0.0000       3.9207 *  0.0000     4          
   537  Cl    s     11.5661 *     7.8414 *     7.8414    0.0000     4          
   538  Cl    s      7.6454 *     7.8414 *    11.7620 *  0.0000     8          
   539  O     s     -6.0770 *     5.8810 *    13.7224 *  0.0000     8          
   540  Cl    s      3.7247 *     0.0000      15.6827 *  0.0000     4          
   541  Cl    s     -0.1959 *     3.9207 *    15.6827 *  0.0000     8          
   542  O     s    -13.9183 *     5.8810 *     5.8810    0.0000     4          
   543  Cl    s     -4.1166 *     0.0000      15.6827 *  0.0000     4          
   544  Cl    s     -8.0373 *     7.8414 *    11.7620 *  0.0000     8          
   545  Cl    s    -11.9580 *     7.8414 *     7.8414    0.0000     4          
   546  Cl    s    -15.8786 *     0.0000       3.9207 *  0.0000     4          
   547  Cl    s     15.4868 *     3.9207 *     3.9207    0.0000     4          
   548  Cl    s     11.5661 *     0.0000      11.7620 *  0.0000     4          
   549  Cl    s      3.7247 *     3.9207 *    15.6827 *  0.0000     8          
   550  Cl    s     -0.1959 *    11.7620 *    11.7620    0.0000     4          
   551  Cl    s     -4.1166 *     3.9207 *    15.6827 *  0.0000     8          
   552  Cl    s    -11.9580 *     0.0000      11.7620 *  0.0000     4          
   553  Cl    s    -15.8786 *     3.9207 *     3.9207    0.0000     4          
   554  O     s     13.5264 *    -1.9603 *     9.8017 *  0.0000     8          
   555  O     s      9.6057 *    13.7224 *    -1.9603 *  0.0000     8          
   556  O     s      9.6057 *     9.8017 *     9.8017    0.0000     4          
   557  O     s      1.7644 *     9.8017 *    13.7224 *  0.0000     8          
   558  Cl    s     11.5661 *     3.9207 *    11.7620 *  0.0000     8          
   559  O     s     -2.1563 *     9.8017 *    13.7224 *  0.0000     8          
   560  Cl    s      3.7247 *    11.7620 *    11.7620    0.0000     4          
   561  O     s     -9.9976 *    -1.9603 *    13.7224 *  0.0000     8          
   562  O     s     -9.9976 *     9.8017 *     9.8017    0.0000     4          
   563  O     s    -13.9183 *    -1.9603 *     9.8017 *  0.0000     8          
   564  Cl    s     -4.1166 *    11.7620 *    11.7620    0.0000     4          
   565  Cl    s    -11.9580 *     3.9207 *    11.7620 *  0.0000     8          
   566  Cl    s     15.4868 *     0.0000       7.8414 *  0.0000     4          
   567  Cl    s      7.6454 *     0.0000      15.6827 *  0.0000     4          
   568  Cl    s     -0.1959 *     7.8414 *    15.6827 *  0.0000     8          
   569  Cl    s     -8.0373 *     0.0000      15.6827 *  0.0000     4          
   570  O     s     17.4471 *    -1.9603 *    -1.9603    0.0000     4          
   571  Cl    s    -15.8786 *     0.0000       7.8414 *  0.0000     4          
   572  O     s     13.5264 *     5.8810 *     9.8017 *  0.0000     8          
   573  O     s      9.6057 *    13.7224 *     5.8810 *  0.0000     8          
   574  O     s      5.6851 *     9.8017 *    13.7224 *  0.0000     8          
   575  Cl    s     15.4868 *     3.9207 *     7.8414 *  0.0000     8          
   576  O     s      1.7644 *    17.6430 *    -1.9603 *  0.0000     8          
   577  O     s     -2.1563 *    -1.9603 *    17.6430 *  0.0000     8          
   578  Cl    s      7.6454 *     3.9207 *    15.6827 *  0.0000     8          
   579  O     s     -6.0770 *     9.8017 *    13.7224 *  0.0000     8          
   580  Cl    s      3.7247 *     7.8414 *    15.6827 *  0.0000     8          
   581  O     s     -9.9976 *     5.8810 *    13.7224 *  0.0000     8          
   582  O     s    -13.9183 *     5.8810 *     9.8017 *  0.0000     8          
   583  Cl    s     -4.1166 *     7.8414 *    15.6827 *  0.0000     8          
   584  O     s    -17.8390 *    -1.9603 *    -1.9603    0.0000     4          
   585  Cl    s     -8.0373 *     3.9207 *    15.6827 *  0.0000     8          
   586  Cl    s    -15.8786 *     3.9207 *     7.8414 *  0.0000     8          
   587  Cl    s     11.5661 *     7.8414 *    11.7620 *  0.0000     8          
   588  Cl    s      7.6454 *    11.7620 *    11.7620    0.0000     4          
   589  Cl    s     -8.0373 *    11.7620 *    11.7620    0.0000     4          
   590  Cl    s    -11.9580 *     7.8414 *    11.7620 *  0.0000     8          
   591  O     s     17.4471 *    -1.9603 *     5.8810 *  0.0000     8          
   592  O     s      5.6851 *    -1.9603 *    17.6430 *  0.0000     8          
   593  O     s      1.7644 *     5.8810 *    17.6430 *  0.0000     8          
   594  O     s     -2.1563 *     5.8810 *    17.6430 *  0.0000     8          
   595  O     s     -6.0770 *    17.6430 *    -1.9603 *  0.0000     8          
   596  O     s    -17.8390 *     5.8810 *    -1.9603 *  0.0000     8          
   597  Cl    s     15.4868 *     7.8414 *     7.8414    0.0000     4          
   598  Cl    s      7.6454 *     7.8414 *    15.6827 *  0.0000     8          
   599  Cl    s     -8.0373 *     7.8414 *    15.6827 *  0.0000     8          
   600  O     s     17.4471 *     5.8810 *     5.8810    0.0000     4          
   601  Cl    s    -15.8786 *     7.8414 *     7.8414    0.0000     4          
   602  O     s     13.5264 *    -1.9603 *    13.7224 *  0.0000     8          
   603  O     s     13.5264 *     9.8017 *     9.8017    0.0000     4          
   604  O     s      9.6057 *     9.8017 *    13.7224 *  0.0000     8          
   605  Cl    s     19.4074 *     0.0000       0.0000    0.0000     1          
   606  O     s      5.6851 *     5.8810 *    17.6430 *  0.0000     8          
   607  Cl    s     15.4868 *     0.0000      11.7620 *  0.0000     4          
   608  O     s      1.7644 *    13.7224 *    13.7224    0.0000     4          
   609  Cl    s     11.5661 *     0.0000      15.6827 *  0.0000     4          
   610  O     s     -2.1563 *    13.7224 *    13.7224    0.0000     4          
   611  O     s     -6.0770 *    17.6430 *     5.8810 *  0.0000     8          
   612  O     s     -9.9976 *     9.8017 *    13.7224 *  0.0000     8          
   613  Cl    s     -0.1959 *    11.7620 *    15.6827 *  0.0000     8          
   614  Cl    s     -0.1959 *     0.0000      19.6034 *  0.0000     4          
   615  O     s    -13.9183 *    -1.9603 *    13.7224 *  0.0000     8          
   616  O     s    -13.9183 *     9.8017 *     9.8017    0.0000     4          
   617  O     s    -17.8390 *     5.8810 *     5.8810    0.0000     4          
   618  Cl    s    -11.9580 *     0.0000      15.6827 *  0.0000     4          
   619  Cl    s    -15.8786 *     0.0000      11.7620 *  0.0000     4          
   620  Cl    s    -19.7993 *     0.0000       0.0000    0.0000     1          
   621  Cl    s     19.4074 *     0.0000       3.9207 *  0.0000     4          
   622  Cl    s     15.4868 *     3.9207 *    11.7620 *  0.0000     8          
   623  Cl    s     11.5661 *     3.9207 *    15.6827 *  0.0000     8          
   624  Cl    s      3.7247 *    11.7620 *    15.6827 *  0.0000     8          
   625  Cl    s      3.7247 *     0.0000      19.6034 *  0.0000     4          
   626  Cl    s     -0.1959 *     3.9207 *    19.6034 *  0.0000     8          
--------------------------------------------------------------------------------


  Constraints on symmetry reduced coordinates :

--------------------------------------------------------------------------------
  Constraint no.      Unconstrained     Constrained    Coefficient    
                         Variable         Variable
--------------------------------------------------------------------------------
           1                 3 y             3 z         1.00000
           2                 5 y             5 z         1.00000
           3                 6 y             6 z         1.00000
           4                 9 y             9 z         1.00000
           5                12 y            12 z         1.00000
           6                14 y            14 z         1.00000
           7                20 y            20 z         1.00000
           8                24 y            24 z         1.00000
           9                25 y            25 z         1.00000
          10                26 y            26 z         1.00000
          11                36 y            36 z         1.00000
          12                39 y            39 z         1.00000
          13                43 y            43 z         1.00000
          14                44 y            44 z         1.00000
          15                45 y            45 z         1.00000
          16                53 y            53 z         1.00000
          17                54 y            54 z         1.00000
          18                56 y            56 z         1.00000
          19                59 y            59 z         1.00000
          20                66 y            66 z         1.00000
          21                69 y            69 z         1.00000
          22                75 y            75 z         1.00000
          23                76 y            76 z         1.00000
          24                84 y            84 z         1.00000
          25                87 y            87 z         1.00000
          26                95 y            95 z         1.00000
          27               102 y           102 z         1.00000
          28               105 y           105 z         1.00000
          29               107 y           107 z         1.00000
          30               118 y           118 z         1.00000
          31               126 y           126 z         1.00000
          32               130 y           130 z         1.00000
          33               134 y           134 z         1.00000
          34               137 y           137 z         1.00000
          35               143 y           143 z         1.00000
          36               145 y           145 z         1.00000
          37               150 y           150 z         1.00000
          38               153 y           153 z         1.00000
          39               159 y           159 z         1.00000
          40               164 y           164 z         1.00000
          41               169 y           169 z         1.00000
          42               172 y           172 z         1.00000
          43               177 y           177 z         1.00000
          44               181 y           181 z         1.00000
          45               185 y           185 z         1.00000
          46               198 y           198 z         1.00000
          47               204 y           204 z         1.00000
          48               221 y           221 z         1.00000
          49               225 y           225 z         1.00000
          50               227 y           227 z         1.00000
          51               235 y           235 z         1.00000
          52               236 y           236 z         1.00000
          53               240 y           240 z         1.00000
          54               244 y           244 z         1.00000
          55               249 y           249 z         1.00000
          56               252 y           252 z         1.00000
          57               258 y           258 z         1.00000
          58               268 y           268 z         1.00000
          59               273 y           273 z         1.00000
          60               285 y           285 z         1.00000
          61               287 y           287 z         1.00000
          62               289 y           289 z         1.00000
          63               301 y           301 z         1.00000
          64               303 y           303 z         1.00000
          65               317 y           317 z         1.00000
          66               326 y           326 z         1.00000
          67               329 y           329 z         1.00000
          68               341 y           341 z         1.00000
          69               342 y           342 z         1.00000
          70               348 y           348 z         1.00000
          71               377 y           377 z         1.00000
          72               390 y           390 z         1.00000
          73               392 y           392 z         1.00000
          74               394 y           394 z         1.00000
          75               396 y           396 z         1.00000
          76               404 y           404 z         1.00000
          77               407 y           407 z         1.00000
          78               415 y           415 z         1.00000
          79               417 y           417 z         1.00000
          80               419 y           419 z         1.00000
          81               422 y           422 z         1.00000
          82               427 y           427 z         1.00000
          83               433 y           433 z         1.00000
          84               436 y           436 z         1.00000
[...]
    546 y          0.000000      0.000000     0.000000    Cartesian    0.00
    546 z          3.920675      3.919299    -0.001376    Cartesian   -0.04
    547 x         15.682702     15.679651    -0.003051    Cartesian   -0.02
    547 y          3.920675      3.918958    -0.001718    Cartesian   -0.04
    547 z          3.920675      3.918958    -0.001718    Cartesian   -0.04
    548 x         11.762026     11.762235     0.000209    Cartesian    0.00
    548 y          0.000000      0.000000     0.000000    Cartesian    0.00
    548 z         11.762026     11.759044    -0.002983    Cartesian   -0.03
    549 x          3.920675      3.921965     0.001289    Cartesian    0.03
    549 y          3.920675      3.919938    -0.000738    Cartesian   -0.02
    549 z         15.682702     15.679433    -0.003269    Cartesian   -0.02
    550 x         -0.000000      0.001332     0.001332    Cartesian *******
    550 y         11.762026     11.758691    -0.003335    Cartesian   -0.03
    550 z         11.762026     11.758691    -0.003335    Cartesian   -0.03
    551 x         -3.920675     -3.917434     0.003241    Cartesian   -0.08
    551 y          3.920675      3.919066    -0.001610    Cartesian   -0.04
    551 z         15.682702     15.678657    -0.004045    Cartesian   -0.03
    552 x        -11.762026    -11.755073     0.006953    Cartesian   -0.06
    552 y          0.000000      0.000000     0.000000    Cartesian    0.00
    552 z         11.762026     11.756503    -0.005523    Cartesian   -0.05
    553 x        -15.682702    -15.677266     0.005436    Cartesian   -0.03
    553 y          3.920675      3.919011    -0.001664    Cartesian   -0.04
    553 z          3.920675      3.919011    -0.001664    Cartesian   -0.04
    554 x         13.722364     13.723305     0.000941    Cartesian    0.01
    554 y         -1.960338     -1.960428    -0.000090    Cartesian    0.00
    554 z          9.801689      9.801561    -0.000128    Cartesian   -0.00
    555 x          9.801689      9.803117     0.001429    Cartesian    0.01
    555 y         13.722364     13.723186     0.000821    Cartesian    0.01
    555 z         -1.960338     -1.960547    -0.000209    Cartesian    0.01
    556 x          9.801689      9.803582     0.001893    Cartesian    0.02
    556 y          9.801689      9.802160     0.000471    Cartesian    0.00
    556 z          9.801689      9.802160     0.000471    Cartesian    0.00
    557 x          1.960338      1.960867     0.000529    Cartesian    0.03
    557 y          9.801689      9.801324    -0.000364    Cartesian   -0.00
    557 z         13.722364     13.721906    -0.000458    Cartesian   -0.00
    558 x         11.762026     11.762203     0.000177    Cartesian    0.00
    558 y          3.920675      3.920407    -0.000269    Cartesian   -0.01
    558 z         11.762026     11.759163    -0.002863    Cartesian   -0.02
    559 x         -1.960338     -1.960322     0.000016    Cartesian   -0.00
    559 y          9.801689      9.800997    -0.000691    Cartesian   -0.01
    559 z         13.722364     13.721530    -0.000835    Cartesian   -0.01
    560 x          3.920675      3.922270     0.001595    Cartesian    0.04
    560 y         11.762026     11.759626    -0.002401    Cartesian   -0.02
    560 z         11.762026     11.759626    -0.002401    Cartesian   -0.02
    561 x         -9.801689     -9.799140     0.002549    Cartesian   -0.03
    561 y         -1.960338     -1.960534    -0.000196    Cartesian    0.01
    561 z         13.722364     13.719983    -0.002381    Cartesian   -0.02
    562 x         -9.801689     -9.798656     0.003033    Cartesian   -0.03
    562 y          9.801689      9.799293    -0.002395    Cartesian   -0.02
    562 z          9.801689      9.799293    -0.002395    Cartesian   -0.02
    563 x        -13.722364    -13.719338     0.003027    Cartesian   -0.02
    563 y         -1.960338     -1.960539    -0.000201    Cartesian    0.01
    563 z          9.801689      9.799779    -0.001909    Cartesian   -0.02
    564 x         -3.920675     -3.918794     0.001881    Cartesian   -0.05
    564 y         11.762026     11.758751    -0.003275    Cartesian   -0.03
    564 z         11.762026     11.758751    -0.003275    Cartesian   -0.03
    565 x        -11.762026    -11.756576     0.005451    Cartesian   -0.05
    565 y          3.920675      3.919830    -0.000845    Cartesian   -0.02
    565 z         11.762026     11.757868    -0.004159    Cartesian   -0.04
    566 x         15.682702     15.681107    -0.001595    Cartesian   -0.01
    566 y          0.000000      0.000000     0.000000    Cartesian    0.00
    566 z          7.841351      7.839401    -0.001949    Cartesian   -0.02
    567 x          7.841351      7.842764     0.001413    Cartesian    0.02
    567 y          0.000000      0.000000     0.000000    Cartesian    0.00
    567 z         15.682702     15.680429    -0.002273    Cartesian   -0.01
    568 x         -0.000000      0.001253     0.001253    Cartesian *******
    568 y          7.841351      7.840432    -0.000919    Cartesian   -0.01
    568 z         15.682702     15.680105    -0.002596    Cartesian   -0.02
    569 x         -7.841351     -7.838712     0.002639    Cartesian   -0.03
    569 y          0.000000      0.000000     0.000000    Cartesian    0.00
    569 z         15.682702     15.679378    -0.003324    Cartesian   -0.02
    570 x         17.643040     17.643676     0.000636    Cartesian    0.00
    570 y         -1.960338     -1.960622    -0.000285    Cartesian    0.01
    570 z         -1.960338     -1.960622    -0.000285    Cartesian    0.01
    571 x        -15.682702    -15.678360     0.004342    Cartesian   -0.03
    571 y          0.000000      0.000000     0.000000    Cartesian    0.00
    571 z          7.841351      7.839967    -0.001384    Cartesian   -0.02
    572 x         13.722364     13.723355     0.000991    Cartesian    0.01
    572 y          5.881013      5.881336     0.000322    Cartesian    0.01
    572 z          9.801689      9.801690     0.000002    Cartesian    0.00
    573 x          9.801689      9.803176     0.001487    Cartesian    0.02
    573 y         13.722364     13.723191     0.000827    Cartesian    0.01
    573 z          5.881013      5.881776     0.000763    Cartesian    0.01
    574 x          5.881013      5.882155     0.001142    Cartesian    0.02
    574 y          9.801689      9.802258     0.000569    Cartesian    0.01
    574 z         13.722364     13.722926     0.000561    Cartesian    0.00
    575 x         15.682702     15.680909    -0.001793    Cartesian   -0.01
    575 y          3.920675      3.919655    -0.001021    Cartesian   -0.03
    575 z          7.841351      7.839578    -0.001773    Cartesian   -0.02
    576 x          1.960338      1.961222     0.000885    Cartesian    0.05
    576 y         17.643040     17.642746    -0.000293    Cartesian   -0.00
    576 z         -1.960338     -1.960642    -0.000304    Cartesian    0.02
    577 x         -1.960338     -1.960561    -0.000224    Cartesian    0.01
    577 y         -1.960338     -1.960082     0.000256    Cartesian   -0.01
    577 z         17.643040     17.642741    -0.000299    Cartesian   -0.00
    578 x          7.841351      7.842764     0.001413    Cartesian    0.02
    578 y          3.920675      3.920372    -0.000304    Cartesian   -0.01
    578 z         15.682702     15.680097    -0.002605    Cartesian   -0.02
    579 x         -5.881013     -5.879930     0.001083    Cartesian   -0.02
    579 y          9.801689      9.801042    -0.000647    Cartesian   -0.01
    579 z         13.722364     13.721406    -0.000958    Cartesian   -0.01
    580 x          3.920675      3.921639     0.000963    Cartesian    0.02
    580 y          7.841351      7.840802    -0.000549    Cartesian   -0.01
    580 z         15.682702     15.680137    -0.002565    Cartesian   -0.02
    581 x         -9.801689     -9.800394     0.001294    Cartesian   -0.01
    581 y          5.881013      5.879837    -0.001177    Cartesian   -0.02
    581 z         13.722364     13.721046    -0.001318    Cartesian   -0.01
    582 x        -13.722364    -13.720434     0.001930    Cartesian   -0.01
    582 y          5.881013      5.879872    -0.001141    Cartesian   -0.02
    582 z          9.801689      9.800741    -0.000948    Cartesian   -0.01
    583 x         -3.920675     -3.918570     0.002105    Cartesian   -0.05
    583 y          7.841351      7.840271    -0.001080    Cartesian   -0.01
    583 z         15.682702     15.679586    -0.003116    Cartesian   -0.02
    584 x        -17.643040    -17.642117     0.000923    Cartesian   -0.01
    584 y         -1.960338     -1.960502    -0.000164    Cartesian    0.01
    584 z         -1.960338     -1.960502    -0.000164    Cartesian    0.01
    585 x         -7.841351     -7.839026     0.002325    Cartesian   -0.03
    585 y          3.920675      3.919430    -0.001246    Cartesian   -0.03
    585 z         15.682702     15.679398    -0.003304    Cartesian   -0.02
    586 x        -15.682702    -15.678337     0.004365    Cartesian   -0.03
    586 y          3.920675      3.919469    -0.001207    Cartesian   -0.03
    586 z          7.841351      7.840120    -0.001231    Cartesian   -0.02
    587 x         11.762026     11.762318     0.000292    Cartesian    0.00
    587 y          7.841351      7.839802    -0.001549    Cartesian   -0.02
    587 z         11.762026     11.759574    -0.002452    Cartesian   -0.02
    588 x          7.841351      7.841783     0.000432    Cartesian    0.01
    588 y         11.762026     11.760262    -0.001765    Cartesian   -0.02
    588 z         11.762026     11.760262    -0.001765    Cartesian   -0.02
    589 x         -7.841351     -7.838093     0.003258    Cartesian   -0.04
    589 y         11.762026     11.759012    -0.003015    Cartesian   -0.03
    589 z         11.762026     11.759012    -0.003015    Cartesian   -0.03
    590 x        -11.762026    -11.757807     0.004219    Cartesian   -0.04
    590 y          7.841351      7.838675    -0.002676    Cartesian   -0.03
    590 z         11.762026     11.758890    -0.003137    Cartesian   -0.03
    591 x         17.643040     17.643123     0.000083    Cartesian    0.00
    591 y         -1.960338     -1.960385    -0.000047    Cartesian    0.00
    591 z          5.881013      5.881220     0.000207    Cartesian    0.00
    592 x          5.881013      5.881848     0.000834    Cartesian    0.01
    592 y         -1.960338     -1.960620    -0.000282    Cartesian    0.01
    592 z         17.643040     17.642757    -0.000283    Cartesian   -0.00
    593 x          1.960338      1.960845     0.000507    Cartesian    0.03
    593 y          5.881013      5.881405     0.000391    Cartesian    0.01
    593 z         17.643040     17.642391    -0.000649    Cartesian   -0.00
    594 x         -1.960338     -1.960056     0.000282    Cartesian   -0.01
    594 y          5.881013      5.880955    -0.000058    Cartesian   -0.00
    594 z         17.643040     17.642227    -0.000812    Cartesian   -0.00
    595 x         -5.881013     -5.880493     0.000520    Cartesian   -0.01
    595 y         17.643040     17.641787    -0.001252    Cartesian   -0.01
    595 z         -1.960338     -1.960106     0.000232    Cartesian   -0.01
    596 x        -17.643040    -17.641354     0.001685    Cartesian   -0.01
    596 y          5.881013      5.880638    -0.000375    Cartesian   -0.01
    596 z         -1.960338     -1.960111     0.000227    Cartesian   -0.01
    597 x         15.682702     15.680094    -0.002608    Cartesian   -0.02
    597 y          7.841351      7.839009    -0.002342    Cartesian   -0.03
    597 z          7.841351      7.839009    -0.002342    Cartesian   -0.03
    598 x          7.841351      7.841193    -0.000158    Cartesian   -0.00
    598 y          7.841351      7.839891    -0.001460    Cartesian   -0.02
    598 z         15.682702     15.679489    -0.003213    Cartesian   -0.02
    599 x         -7.841351     -7.838529     0.002822    Cartesian   -0.04
    599 y          7.841351      7.839137    -0.002214    Cartesian   -0.03
    599 z         15.682702     15.678537    -0.004165    Cartesian   -0.03
    600 x         17.643040     17.641263    -0.001777    Cartesian   -0.01
    600 y          5.881013      5.879861    -0.001152    Cartesian   -0.02
    600 z          5.881013      5.879861    -0.001152    Cartesian   -0.02
    601 x        -15.682702    -15.677690     0.005012    Cartesian   -0.03
    601 y          7.841351      7.839204    -0.002147    Cartesian   -0.03
    601 z          7.841351      7.839204    -0.002147    Cartesian   -0.03
    602 x         13.722364     13.722208    -0.000156    Cartesian   -0.00
    602 y         -1.960338     -1.960279     0.000059    Cartesian   -0.00
    602 z         13.722364     13.721581    -0.000783    Cartesian   -0.01
    603 x         13.722364     13.720995    -0.001370    Cartesian   -0.01
    603 y          9.801689      9.799997    -0.001691    Cartesian   -0.02
    603 z          9.801689      9.799997    -0.001691    Cartesian   -0.02
    604 x          9.801689      9.800901    -0.000787    Cartesian   -0.01
    604 y          9.801689      9.800344    -0.001345    Cartesian   -0.01
    604 z         13.722364     13.720734    -0.001630    Cartesian   -0.01
    605 x         19.603377     19.598936    -0.004441    Cartesian   -0.02
    605 y          0.000000      0.000000     0.000000    Cartesian    0.00
    605 z          0.000000      0.000000     0.000000    Cartesian    0.00
    606 x          5.881013      5.880548    -0.000465    Cartesian   -0.01
    606 y          5.881013      5.880179    -0.000834    Cartesian   -0.01
    606 z         17.643040     17.641048    -0.001992    Cartesian   -0.01
    607 x         15.682702     15.679561    -0.003140    Cartesian   -0.02
    607 y          0.000000      0.000000     0.000000    Cartesian    0.00
    607 z         11.762026     11.758636    -0.003391    Cartesian   -0.03
    608 x          1.960338      1.960523     0.000186    Cartesian    0.01
    608 y         13.722364     13.721431    -0.000933    Cartesian   -0.01
    608 z         13.722364     13.721431    -0.000933    Cartesian   -0.01
    609 x         11.762026     11.760845    -0.001182    Cartesian   -0.01
    609 y          0.000000      0.000000     0.000000    Cartesian    0.00
    609 z         15.682702     15.678747    -0.003955    Cartesian   -0.03
    610 x         -1.960338     -1.960149     0.000189    Cartesian   -0.01
    610 y         13.722364     13.721013    -0.001351    Cartesian   -0.01
    610 z         13.722364     13.721013    -0.001351    Cartesian   -0.01
    611 x         -5.881013     -5.879693     0.001320    Cartesian   -0.02
    611 y         17.643040     17.640550    -0.002490    Cartesian   -0.01
    611 z          5.881013      5.879882    -0.001131    Cartesian   -0.02
    612 x         -9.801689     -9.799512     0.002176    Cartesian   -0.02
    612 y          9.801689      9.799672    -0.002017    Cartesian   -0.02
    612 z         13.722364     13.719830    -0.002534    Cartesian   -0.02
    613 x         -0.000000      0.000901     0.000901    Cartesian *******
    613 y         11.762026     11.759126    -0.002900    Cartesian   -0.02
    613 z         15.682702     15.678384    -0.004318    Cartesian   -0.03
    614 x         -0.000000      0.000949     0.000949    Cartesian *******
    614 y          0.000000      0.000000     0.000000    Cartesian    0.00
    614 z         19.603377     19.598758    -0.004619    Cartesian   -0.02
    615 x        -13.722364    -13.720295     0.002069    Cartesian   -0.02
    615 y         -1.960338     -1.960205     0.000133    Cartesian   -0.01
    615 z         13.722364     13.720416    -0.001948    Cartesian   -0.01
    616 x        -13.722364    -13.719501     0.002863    Cartesian   -0.02
    616 y          9.801689      9.799654    -0.002035    Cartesian   -0.02
    616 z          9.801689      9.799654    -0.002035    Cartesian   -0.02
    617 x        -17.643040    -17.640128     0.002912    Cartesian   -0.02
    617 y          5.881013      5.879923    -0.001090    Cartesian   -0.02
    617 z          5.881013      5.879923    -0.001090    Cartesian   -0.02
    618 x        -11.762026    -11.757627     0.004399    Cartesian   -0.04
    618 y          0.000000      0.000000     0.000000    Cartesian    0.00
    618 z         15.682702     15.677422    -0.005280    Cartesian   -0.03
    619 x        -15.682702    -15.676929     0.005773    Cartesian   -0.04
    619 y          0.000000      0.000000     0.000000    Cartesian    0.00
    619 z         11.762026     11.758336    -0.003690    Cartesian   -0.03
    620 x        -19.603377    -19.597500     0.005877    Cartesian   -0.03
    620 y          0.000000      0.000000     0.000000    Cartesian    0.00
    620 z          0.000000      0.000000     0.000000    Cartesian    0.00
    621 x         19.603377     19.597515    -0.005863    Cartesian   -0.03
    621 y          0.000000      0.000000     0.000000    Cartesian    0.00
    621 z          3.920675      3.919313    -0.001363    Cartesian   -0.03
    622 x         15.682702     15.678754    -0.003948    Cartesian   -0.03
    622 y          3.920675      3.919547    -0.001128    Cartesian   -0.03
    622 z         11.762026     11.758441    -0.003586    Cartesian   -0.03
    623 x         11.762026     11.760404    -0.001623    Cartesian   -0.01
    623 y          3.920675      3.919542    -0.001133    Cartesian   -0.03
    623 z         15.682702     15.678094    -0.004608    Cartesian   -0.03
    624 x          3.920675      3.920395    -0.000281    Cartesian   -0.01
    624 y         11.762026     11.759077    -0.002949    Cartesian   -0.03
    624 z         15.682702     15.678166    -0.004536    Cartesian   -0.03
    625 x          3.920675      3.920532    -0.000143    Cartesian   -0.00
    625 y          0.000000      0.000000     0.000000    Cartesian    0.00
    625 z         19.603377     19.597408    -0.005969    Cartesian   -0.03
    626 x         -0.000000      0.000657     0.000657    Cartesian *******
    626 y          3.920675      3.919539    -0.001137    Cartesian   -0.03
    626 z         19.603377     19.597417    -0.005960    Cartesian   -0.03
--------------------------------------------------------------------------------


  Time to end of optimisation  =       87.0482 seconds


  Peak dynamic memory used =    1727.30 MB 


  Timing analysis for GULP :

--------------------------------------------------------------------------------
  Task / Subroutine                                          Time (Seconds)
--------------------------------------------------------------------------------
  Calculation of reciprocal space energy and derivatives          0.0002
  Calculation of reciprocal space energy using symmetry           0.0003
  Calculation of real space energy and derivatives                0.0017
  Calculation of real space energy using symmetry                 0.0034
  Calculation for region 1 energy and derivatives (2-b)          46.6704
  Calculation for region 2a energy                               11.6029
  Calculation for region 2b energy                                0.0023
  Calculation and manipulation of Hessian matrix                 25.8440
  Calculation of matrix inversion                                 2.0647
  Symmetry generation of equivalent positions                     0.0019
--------------------------------------------------------------------------------
  Total CPU time                                                 87.0483
--------------------------------------------------------------------------------


  Dump file written as Li3OCl.grs


  Job Finished at 17:36.53 20th October    2020                               

