********************************************************************************
*                       GENERAL UTILITY LATTICE PROGRAM                        *
*                                 Julian Gale                                  *
*                       Curtin Institute for Computation                       *
*                    School of Molecular and Life Sciences                     *
*                    Curtin University, Western Australia                      *
********************************************************************************
* Version = 5.2.0 * Last modified =  10th September 2020                       *
********************************************************************************
*  optimise     - perform optimisation run                                     *
*  conp         - constant pressure calculation                                *
*  property     - calculate properties for final geometry                      *
*  defect       - perform defect calculation after bulk run                    *
*  compare      - compare initial and final structures                         *
********************************************************************************

  Job Started  at 17:48.55 20th October    2020                               

  Number of CPUs =     1


  Total number of configurations input =      1

********************************************************************************
*  Input for Configuration =   1                                               *
********************************************************************************

  Formula = ClOLi3                                                      

  Number of irreducible atoms/shells =       5


  Total number atoms/shells =       7

  Dimensionality = 3               :  Bulk   


  Symmetry :

  Crystal family                   :  Cubic       
  Crystal class  (Groth - 1921)    :  Cubic Hexakisoctahedral              

  Space group (centrosymmetric)    :  P M 3 M         

  Patterson group                  :  P m -3 m 

  Cartesian lattice vectors (Angstroms) :

        3.918873    0.000000    0.000000
        0.000000    3.918873    0.000000
        0.000000    0.000000    3.918873

  Cell parameters (Angstroms/Degrees):

  a =       3.9189    alpha =  90.0000
  b =       3.9189    beta  =  90.0000
  c =       3.9189    gamma =  90.0000

  Initial cell volume =          60.184349 Angs**3

  Temperature of configuration =   0.00     K 

  Pressure of configuration =         0.000 GPa 

  Fractional coordinates of asymmetric unit :

--------------------------------------------------------------------------------
   No.  Atomic       x           y          z         Charge      Occupancy
        Label      (Frac)      (Frac)     (Frac)        (e)         (Frac)  
--------------------------------------------------------------------------------
      1 Cl    c    0.000000    0.000000    0.000000     1.48500    1.000000    
      2 O     c    0.500000    0.500000    0.500000     0.18300    1.000000    
      3 Li    c    0.500000    0.500000    0.000000     1.00000    1.000000    
      4 Cl    s    0.000000    0.000000    0.000000    -2.48500    1.000000    
      5 O     s    0.500000    0.500000    0.500000    -2.18300    1.000000    
--------------------------------------------------------------------------------


  Constraints : 

--------------------------------------------------------------------------------
  Constraint no.      Unconstrained     Constrained    Coefficient    Offset
                         Variable         Variable
--------------------------------------------------------------------------------
           1              Strain 1        Strain 2       1.00000      0.0000
           2              Strain 1        Strain 3       1.00000      0.0000
--------------------------------------------------------------------------------


********************************************************************************
*  General input information                                                   *
********************************************************************************

  Species output for all configurations : 

--------------------------------------------------------------------------------
  Species    Type    Atomic    Atomic    Charge       Radii (Angs)     Library
                     Number     Mass       (e)     Cova   Ionic  VDW   Symbol
--------------------------------------------------------------------------------
    Li       Core        3       6.94   1.000000   0.680  0.000  1.800          
    O        Core        8      16.00   0.183000   0.730  0.000  1.360          
    O        Shell       8       0.00  -2.183000   0.730  0.000  1.360          
    Cl       Core       17      35.45   1.485000   0.990  0.000  1.650          
    Cl       Shell      17       0.00  -2.485000   0.990  0.000  1.650          
--------------------------------------------------------------------------------


  Lattice summation method               =    Ewald          (3-D)
                                         =    Parry          (2-D)
                                         =    Saunders et al (1-D)
  Accuracy factor for lattice sums       =   12.000


  Analytic derivatives to be used

  Time limit = Infinity

  Maximum range for interatomic potentials =    100000.000000 Angstroms

  General interatomic potentials :

--------------------------------------------------------------------------------
Atom  Types   Potential      Parameter       Value         Units   Cutoffs(Ang)
  1     2                                                            Min /  Max 
--------------------------------------------------------------------------------
O    c O    s Spring (c-s)  Spring k 2       593.72000    eV*Ang^-2 0.000  0.800
                            Spring k 4       0.0000000    eV*Ang^-4 
--------------------------------------------------------------------------------
Cl   c Cl   s Spring (c-s)  Spring k 2       29.380000    eV*Ang^-2 0.000  0.800
                            Spring k 4       0.0000000    eV*Ang^-4 
--------------------------------------------------------------------------------
Li   c Li   c Buckingham    Buckingham A     360.53000    eV        0.000 12.000
                            Buckingham rho  0.16100000    Ang       
                            Buckingham C     0.0000000    eV*Ang^6  
--------------------------------------------------------------------------------
Li   c O    s Buckingham    Buckingham A     292.30000    eV        0.000 12.000
                            Buckingham rho  0.34720000    Ang       
                            Buckingham C     0.0000000    eV*Ang^6  
--------------------------------------------------------------------------------
Li   c Cl   s Buckingham    Buckingham A     421.04000    eV        0.000 12.000
                            Buckingham rho  0.33400000    Ang       
                            Buckingham C     0.0000000    eV*Ang^6  
--------------------------------------------------------------------------------
O    s O    s Buckingham    Buckingham A     22764.300    eV        0.000 12.000
                            Buckingham rho  0.14900000    Ang       
                            Buckingham C     13.190000    eV*Ang^6  
--------------------------------------------------------------------------------
O    s Cl   s Buckingham    Buckingham A     8286.9100    eV        0.000 12.000
                            Buckingham rho  0.25900000    Ang       
                            Buckingham C     62.200000    eV*Ang^6  
--------------------------------------------------------------------------------
Cl   s Cl   s Buckingham    Buckingham A     1227.2000    eV        0.000 12.000
                            Buckingham rho  0.32100000    Ang       
                            Buckingham C     14.530000    eV*Ang^6  
--------------------------------------------------------------------------------

********************************************************************************
*  Output for configuration   1                                                *
********************************************************************************


  Components of energy : 

--------------------------------------------------------------------------------
  Interatomic potentials     =           7.26836263 eV    
  Monopole - monopole (real) =         -11.53475722 eV    
  Monopole - monopole (recip)=         -33.94580548 eV    
  Monopole - monopole (total)=         -45.48056271 eV    
--------------------------------------------------------------------------------
  Total lattice energy       =         -38.21220008 eV    
--------------------------------------------------------------------------------
  Total lattice energy       =           -3686.8932 kJ/(mole unit cells)
--------------------------------------------------------------------------------


  Number of variables =        1

  Maximum number of calculations  =          1000
  Maximum Hessian update interval =            10
  Maximum step size               =   1.000000000
  Maximum parameter tolerance     =   0.000010000
  Maximum function  tolerance     =   0.000010000
  Maximum gradient  tolerance     =   0.001000000
  Maximum gradient  component     =   0.010000000

  Symmetry constrained optimisation

  Symmetry used for second derivatives

  Cell parameters to be optimised using strains

  Newton-Raphson optimiser to be used

  BFGS hessian update to be used

  Lower half triangular hessian to be used

  Start of bulk optimisation :

  Cycle:      0 Energy:       -38.212200  Gnorm:      0.095699  CPU:    0.005
  ** Hessian calculated **
  Cycle:      1 Energy:       -38.212222  Gnorm:      0.000105  CPU:    0.006


  **** Optimisation achieved ****


  Final energy =     -38.21222207 eV
  Final Gnorm  =       0.00000016

  Components of energy : 

--------------------------------------------------------------------------------
  Interatomic potentials     =           7.24743141 eV    
  Monopole - monopole (real) =         -11.52945423 eV    
  Monopole - monopole (recip)=         -33.93019924 eV    
  Monopole - monopole (total)=         -45.45965348 eV    
--------------------------------------------------------------------------------
  Total lattice energy       =         -38.21222207 eV    
--------------------------------------------------------------------------------
  Total lattice energy       =           -3686.8953 kJ/(mole unit cells)
--------------------------------------------------------------------------------

  Final asymmetric unit coordinates :

--------------------------------------------------------------------------------
   No.  Atomic        x           y           z         Radius
        Label       (Frac)      (Frac)      (Frac)       (Angs) 
--------------------------------------------------------------------------------
     1  Cl    c     0.000000    0.000000    0.000000    0.000000
     2  O     c     0.500000    0.500000    0.500000    0.000000
     3  Li    c     0.500000    0.500000    0.000000    0.000000
     4  Cl    s     0.000000    0.000000    0.000000    0.000000
     5  O     s     0.500000    0.500000    0.500000    0.000000
--------------------------------------------------------------------------------

  Final Cartesian lattice vectors (Angstroms) :

        3.920675    0.000000    0.000000
        0.000000    3.920675    0.000000
        0.000000    0.000000    3.920675


  Final cell parameters and derivatives :

--------------------------------------------------------------------------------
       a            3.920675 Angstrom     dE/de1(xx)    -0.000000 eV/strain
       b            3.920675 Angstrom     dE/de2(yy)     0.000000 eV/strain
       c            3.920675 Angstrom     dE/de3(zz)     0.000000 eV/strain
       alpha       90.000000 Degrees      dE/de4(yz)     0.000000 eV/strain
       beta        90.000000 Degrees      dE/de5(xz)     0.000000 eV/strain
       gamma       90.000000 Degrees      dE/de6(xy)     0.000000 eV/strain
--------------------------------------------------------------------------------

  Primitive cell volume =            60.267433 Angs**3

  Density of cell =      1.991276 g/cm**3

  Non-primitive cell volume =            60.267433 Angs**3


  Final internal derivatives :

--------------------------------------------------------------------------------
   No.  Atomic          a             b             c           Radius
        Label          (eV)          (eV)          (eV)        (eV/Angs)
--------------------------------------------------------------------------------
      1 Cl    c       0.000000      0.000000      0.000000      0.000000
      2 O     c       0.000000      0.000000      0.000000      0.000000
      3 Li    c       0.000000      0.000000      0.000000      0.000000
      4 Cl    s       0.000000      0.000000      0.000000      0.000000
      5 O     s       0.000000      0.000000      0.000000      0.000000
--------------------------------------------------------------------------------
  Maximum abs         0.000000      0.000000      0.000000      0.000000
--------------------------------------------------------------------------------

  Comparison of initial and final structures : 

--------------------------------------------------------------------------------
  Parameter   Initial value   Final value   Difference    Units      Percent
--------------------------------------------------------------------------------
    Volume        60.184349     60.267433     0.083084    Angs**3      0.14
    a              3.918873      3.920675     0.001802    Angstroms    0.05
    b              3.918873      3.920675     0.001802    Angstroms    0.05
    c              3.918873      3.920675     0.001802    Angstroms    0.05
    alpha         90.000000     90.000000     0.000000    Degrees      0.00
    beta          90.000000     90.000000     0.000000    Degrees      0.00
    gamma         90.000000     90.000000     0.000000    Degrees      0.00
      1 x          0.000000      0.000000     0.000000    Fractional   0.00
      1 y          0.000000      0.000000     0.000000    Fractional   0.00
      1 z          0.000000      0.000000     0.000000    Fractional   0.00
      2 x          0.500000      0.500000     0.000000    Fractional   0.00
      2 y          0.500000      0.500000     0.000000    Fractional   0.00
      2 z          0.500000      0.500000     0.000000    Fractional   0.00
      3 x          0.500000      0.500000     0.000000    Fractional   0.00
      3 y          0.500000      0.500000     0.000000    Fractional   0.00
      3 z          0.000000      0.000000     0.000000    Fractional   0.00
      4 x          0.000000      0.000000     0.000000    Fractional   0.00
      4 y          0.000000      0.000000     0.000000    Fractional   0.00
      4 z          0.000000      0.000000     0.000000    Fractional   0.00
      5 x          0.500000      0.500000     0.000000    Fractional   0.00
      5 y          0.500000      0.500000     0.000000    Fractional   0.00
      5 z          0.500000      0.500000     0.000000    Fractional   0.00
--------------------------------------------------------------------------------


  Born effective charge tensors : 

-------------------------------------------------------------------------------
  Atom             x           y             z
-------------------------------------------------------------------------------
    1 Cl    x      -0.9489     -0.0000     -0.0000
            y      -0.0000     -0.9489     -0.0000
            z      -0.0000     -0.0000     -0.9489
-------------------------------------------------------------------------------
    2 O     x      -2.4688      0.0000      0.0000
            y       0.0000     -2.4688      0.0000
            z       0.0000      0.0000     -2.4688
-------------------------------------------------------------------------------
    3 Li    x       1.3129      0.0000     -0.0000
            y       0.0000      1.3129      0.0000
            z      -0.0000      0.0000      0.7919
-------------------------------------------------------------------------------




  Elastic Constant Matrix: (Units=GPa)

-------------------------------------------------------------------------------
  Indices      1         2         3         4         5         6    
-------------------------------------------------------------------------------
       1     94.3368   44.9178   44.9178    0.0000   -0.0000    0.0000
       2     44.9178   94.3368   44.9178   -0.0000    0.0000   -0.0000
       3     44.9178   44.9178   94.3368    0.0000   -0.0000    0.0000
       4      0.0000   -0.0000    0.0000   44.9178   -0.0000    0.0000
       5     -0.0000    0.0000   -0.0000   -0.0000   44.9178    0.0000
       6      0.0000   -0.0000    0.0000    0.0000    0.0000   44.9178
-------------------------------------------------------------------------------


  Elastic Compliance Matrix: (Units=1/GPa)

-------------------------------------------------------------------------------
  Indices      1         2         3         4         5         6    
-------------------------------------------------------------------------------
       1    0.015300 -0.004935 -0.004935 -0.000000  0.000000 -0.000000
       2   -0.004935  0.015300 -0.004935  0.000000 -0.000000  0.000000
       3   -0.004935 -0.004935  0.015300 -0.000000  0.000000 -0.000000
       4   -0.000000  0.000000 -0.000000  0.022263  0.000000 -0.000000
       5    0.000000 -0.000000  0.000000  0.000000  0.022263 -0.000000
       6   -0.000000  0.000000 -0.000000 -0.000000 -0.000000  0.022263
-------------------------------------------------------------------------------

  Mechanical properties :

-------------------------------------------------------------------------------
  Convention :                    Reuss         Voigt         Hill
-------------------------------------------------------------------------------
  Bulk  Modulus (GPa)     =      61.39080      61.39080      61.39080
  Shear Modulus (GPa)     =      33.84570      36.83448      35.34009
-------------------------------------------------------------------------------
  Velocity S-wave (km/s)  =       4.12274       4.30092       4.21277
  Velocity P-wave (km/s)  =       7.31386       7.44942       7.38195
-------------------------------------------------------------------------------
  Compressibility (1/GPa) =    0.01628909
-------------------------------------------------------------------------------
  Stress axis :                     x             y             z
-------------------------------------------------------------------------------
  Youngs Moduli (GPa)     =      65.35947      65.35947      65.35947
-------------------------------------------------------------------------------
  Poissons Ratio (x)      =                     0.32256       0.32256
  Poissons Ratio (y)      =       0.32256                     0.32256
  Poissons Ratio (z)      =       0.32256       0.32256
-------------------------------------------------------------------------------


  Piezoelectric Strain Matrix: (Units=C/m**2)

-------------------------------------------------------------------------------
  Indices      1         2         3         4         5         6    
-------------------------------------------------------------------------------
       x    -0.00000   0.00000   0.00000  -0.00000  -0.00000   0.00000
       y    -0.00000   0.00000   0.00000  -0.00000  -0.00000  -0.00000
       z     0.00000   0.00000   0.00000   0.00000  -0.00000  -0.00000
-------------------------------------------------------------------------------


  Piezoelectric Stress Matrix: (Units=10**-11 C/N)

-------------------------------------------------------------------------------
  Indices      1         2         3         4         5         6    
-------------------------------------------------------------------------------
       x    -0.00000   0.00000   0.00000  -0.00000  -0.00000   0.00000
       y    -0.00000   0.00000   0.00000  -0.00000  -0.00000  -0.00000
       z    -0.00000  -0.00000   0.00000   0.00000  -0.00000  -0.00000
-------------------------------------------------------------------------------


  Static dielectric constant tensor : 

-------------------------------------------------------------------------------
              x         y         z
-------------------------------------------------------------------------------
       x    12.11703   0.00000  -0.00000
       y     0.00000  12.11703  -0.00000
       z    -0.00000  -0.00000  12.11703
--------------------------------------------------------------------------------

  High frequency dielectric constant tensor : 

-------------------------------------------------------------------------------
              x         y         z
-------------------------------------------------------------------------------
       x     1.74104   0.00000   0.00000
       y     0.00000   1.74104   0.00000
       z     0.00000   0.00000   1.74104
-------------------------------------------------------------------------------

  Static refractive indices : 

-------------------------------------------------------------------------------
    1 =    3.48095      2 =    3.48095      3 =    3.48095
-------------------------------------------------------------------------------

  High frequency refractive indices : 

-------------------------------------------------------------------------------
    1 =    1.31948      2 =    1.31948      3 =    1.31948
-------------------------------------------------------------------------------


  Time to end of optimisation =       0.0095 seconds

********************************************************************************
*  Defect calculation for configuration   1 :                                  *
********************************************************************************

  Total number of defects =      3

  Total charge on defect  =   1.00

  Defect centre is at   1.9594   0.0000   0.0000  Angs

  Region 1 radius =  20.0000      Number of ions =   3870

  Number of symmetry inequivalent region 1 ions  =    625

  Region 2 radius =  24.0000      Number of ions =   2888

  Number of symmetry inequivalent region 2a ions =    418

  Region 2a mode = 4 : screened electrostatics due to region 1 
                       neglect correction to region 1 forces from 2a
                       region 2a displacements based on defects only

  Region 2a ions will only interact with defects in region 1

  Vacancies:

--------------------------------------------------------------------------------
    Specification type     Symbol/Number         x          y          z
--------------------------------------------------------------------------------
    Cartesian                                0.000000   0.000000   0.000000
    Cartesian                                3.918873   0.000000   0.000000
--------------------------------------------------------------------------------

  Interstitials:

--------------------------------------------------------------------------------
    Specification type     Symbol/Number         x          y          z
--------------------------------------------------------------------------------
    Atom/Fractional         Cl               1.959436   0.000000   0.000000
--------------------------------------------------------------------------------


  Symmetry reduced region 1 (Relative to defect centre) :

--------------------------------------------------------------------------------
   No.   Atomic       x            y             z       Radius  Multiplicity   
         Label      (Angs)       (Angs)        (Angs)    (Angs)     
--------------------------------------------------------------------------------
     1  Cl    c      1.8022       0.0000       0.0000    0.0000     1    Defect
     2  Li    c      0.0009 *    -1.9603 *     0.0000    0.0000     4          
     3  O     c      0.0009 *    -1.9603 *    -1.9603    0.0000     4          
     4  Li    c     -1.9594 *    -1.9603 *    -1.9603    0.0000     4          
     5  Li    c      1.9612 *    -1.9603 *    -1.9603    0.0000     4          
     6  Li    c     -3.9198 *    -1.9603 *     0.0000    0.0000     4          
     7  Cl    c     -1.9594 *     0.0000       3.9207 *  0.0000     4          
     8  Li    c      0.0009 *    -1.9603 *     3.9207 *  0.0000     8          
     9  Cl    c      1.9612 *     0.0000       3.9207 *  0.0000     4          
    10  Li    c      3.9216 *    -1.9603 *     0.0000    0.0000     4          
    11  O     c     -3.9198 *    -1.9603 *    -1.9603    0.0000     4          
    12  O     c      3.9216 *    -1.9603 *    -1.9603    0.0000     4          
    13  Cl    c     -5.8801 *     0.0000       0.0000    0.0000     1          
    14  Li    c     -3.9198 *    -1.9603 *     3.9207 *  0.0000     8          
    15  Cl    c     -1.9594 *     3.9207 *     3.9207    0.0000     4          
    16  Li    c      0.0009 *     5.8810 *     0.0000    0.0000     4          
    17  Cl    c      1.9612 *     3.9207 *     3.9207    0.0000     4          
    18  Li    c      3.9216 *    -1.9603 *     3.9207 *  0.0000     8          
    19  Cl    c      5.8819 *     0.0000       0.0000    0.0000     1          
    20  O     c      0.0009 *    -1.9603 *     5.8810 *  0.0000     8          
    21  Li    c     -5.8801 *    -1.9603 *    -1.9603    0.0000     4          
    22  Li    c     -1.9594 *     5.8810 *    -1.9603 *  0.0000     8          
    23  Li    c      1.9612 *    -1.9603 *     5.8810 *  0.0000     8          
    24  Li    c      5.8819 *    -1.9603 *    -1.9603    0.0000     4          
    25  Cl    c     -5.8801 *     0.0000       3.9207 *  0.0000     4          
    26  Li    c     -3.9198 *     5.8810 *     0.0000    0.0000     4          
    27  Li    c      0.0009 *     5.8810 *     3.9207 *  0.0000     8          
    28  Li    c      3.9216 *     5.8810 *     0.0000    0.0000     4          
    29  Cl    c      5.8819 *     0.0000       3.9207 *  0.0000     4          
    30  O     c     -3.9198 *    -1.9603 *     5.8810 *  0.0000     8          
    31  O     c      3.9216 *     5.8810 *    -1.9603 *  0.0000     8          
    32  Li    c     -7.8404 *    -1.9603 *     0.0000    0.0000     4          
    33  Cl    c     -5.8801 *     3.9207 *     3.9207    0.0000     4          
    34  Li    c     -3.9198 *     3.9207 *     5.8810 *  0.0000     8          
    35  Cl    c     -1.9594 *     0.0000       7.8414 *  0.0000     4          
    36  Li    c      0.0009 *    -1.9603 *     7.8414 *  0.0000     8          
    37  Cl    c      1.9612 *     0.0000       7.8414 *  0.0000     4          
    38  Li    c      3.9216 *     5.8810 *     3.9207 *  0.0000     8          
    39  Cl    c      5.8819 *     3.9207 *     3.9207    0.0000     4          
    40  Li    c      7.8423 *    -1.9603 *     0.0000    0.0000     4          
    41  O     c     -7.8404 *    -1.9603 *    -1.9603    0.0000     4          
    42  O     c      0.0009 *     5.8810 *     5.8810    0.0000     4          
    43  O     c      7.8423 *    -1.9603 *    -1.9603    0.0000     4          
    44  Li    c     -5.8801 *    -1.9603 *     5.8810 *  0.0000     8          
    45  Li    c     -1.9594 *     5.8810 *     5.8810    0.0000     4          
    46  Li    c      1.9612 *     5.8810 *     5.8810    0.0000     4          
    47  Li    c      5.8819 *    -1.9603 *     5.8810 *  0.0000     8          
    48  Li    c     -7.8404 *    -1.9603 *     3.9207 *  0.0000     8          
    49  Li    c     -3.9198 *    -1.9603 *     7.8414 *  0.0000     8          
    50  Cl    c     -1.9594 *     3.9207 *     7.8414 *  0.0000     8          
    51  Cl    c      1.9612 *     3.9207 *     7.8414 *  0.0000     8          
    52  Li    c      3.9216 *    -1.9603 *     7.8414 *  0.0000     8          
    53  Li    c      7.8423 *    -1.9603 *     3.9207 *  0.0000     8          
    54  O     c     -3.9198 *     5.8810 *     5.8810    0.0000     4          
    55  O     c      3.9216 *     5.8810 *     5.8810    0.0000     4          
    56  Cl    c     -9.8008 *     0.0000       0.0000    0.0000     1          
    57  Li    c     -7.8404 *     5.8810 *     0.0000    0.0000     4          
    58  Cl    c     -5.8801 *     0.0000       7.8414 *  0.0000     4          
    59  Li    c      0.0009 *     5.8810 *     7.8414 *  0.0000     8          
    60  Li    c      0.0009 *     9.8017 *     0.0000    0.0000     4          
    61  Cl    c      5.8819 *     0.0000       7.8414 *  0.0000     4          
    62  Li    c      7.8423 *     5.8810 *     0.0000    0.0000     4          
    63  Cl    c      9.8026 *     0.0000       0.0000    0.0000     1          
    64  O     c     -7.8404 *    -1.9603 *     5.8810 *  0.0000     8          
    65  O     c      0.0009 *    -1.9603 *     9.8017 *  0.0000     8          
    66  O     c      7.8423 *    -1.9603 *     5.8810 *  0.0000     8          
    67  Li    c     -9.8008 *    -1.9603 *    -1.9603    0.0000     4          
    68  Li    c     -5.8801 *     5.8810 *     5.8810    0.0000     4          
    69  Li    c     -1.9594 *    -1.9603 *     9.8017 *  0.0000     8          
    70  Li    c      1.9612 *    -1.9603 *     9.8017 *  0.0000     8          
    71  Li    c      5.8819 *     5.8810 *     5.8810    0.0000     4          
    72  Li    c      9.8026 *    -1.9603 *    -1.9603    0.0000     4          
    73  Cl    c     -9.8008 *     0.0000       3.9207 *  0.0000     4          
    74  Li    c     -7.8404 *     5.8810 *     3.9207 *  0.0000     8          
    75  Cl    c     -5.8801 *     3.9207 *     7.8414 *  0.0000     8          
    76  Li    c     -3.9198 *     5.8810 *     7.8414 *  0.0000     8          
    77  Li    c     -3.9198 *     9.8017 *     0.0000    0.0000     4          
    78  Li    c      0.0009 *     9.8017 *     3.9207 *  0.0000     8          
    79  Li    c      3.9216 *     5.8810 *     7.8414 *  0.0000     8          
    80  Li    c      3.9216 *     9.8017 *     0.0000    0.0000     4          
    81  Cl    c      5.8819 *     3.9207 *     7.8414 *  0.0000     8          
    82  Li    c      7.8423 *     3.9207 *     5.8810 *  0.0000     8          
    83  Cl    c      9.8026 *     0.0000       3.9207 *  0.0000     4          
    84  O     c     -3.9198 *    -1.9603 *     9.8017 *  0.0000     8          
    85  O     c      3.9216 *    -1.9603 *     9.8017 *  0.0000     8          
    86  Cl    c     -9.8008 *     3.9207 *     3.9207    0.0000     4          
    87  Li    c     -7.8404 *    -1.9603 *     7.8414 *  0.0000     8          
    88  Li    c     -3.9198 *     3.9207 *     9.8017 *  0.0000     8          
    89  Cl    c     -1.9594 *     7.8414 *     7.8414    0.0000     4          
    90  Cl    c      1.9612 *     7.8414 *     7.8414    0.0000     4          
    91  Li    c      3.9216 *     9.8017 *     3.9207 *  0.0000     8          
    92  Li    c      7.8423 *    -1.9603 *     7.8414 *  0.0000     8          
    93  Cl    c      9.8026 *     3.9207 *     3.9207    0.0000     4          
    94  O     c     -7.8404 *     5.8810 *     5.8810    0.0000     4          
    95  O     c      0.0009 *     5.8810 *     9.8017 *  0.0000     8          
    96  O     c      7.8423 *     5.8810 *     5.8810    0.0000     4          
    97  Li    c     -9.8008 *     5.8810 *    -1.9603 *  0.0000     8          
    98  Li    c     -5.8801 *     9.8017 *    -1.9603 *  0.0000     8          
    99  Li    c     -1.9594 *     5.8810 *     9.8017 *  0.0000     8          
   100  Li    c      1.9612 *     5.8810 *     9.8017 *  0.0000     8          
   101  Li    c      5.8819 *    -1.9603 *     9.8017 *  0.0000     8          
   102  Li    c      9.8026 *     5.8810 *    -1.9603 *  0.0000     8          
   103  Li    c    -11.7611 *    -1.9603 *     0.0000    0.0000     4          
   104  Cl    c     -1.9594 *     0.0000      11.7620 *  0.0000     4          
   105  Li    c      0.0009 *    11.7620 *    -1.9603 *  0.0000     8          
   106  Cl    c      1.9612 *     0.0000      11.7620 *  0.0000     4          
   107  Li    c     11.7629 *    -1.9603 *     0.0000    0.0000     4          
   108  O     c    -11.7611 *    -1.9603 *    -1.9603    0.0000     4          
   109  O     c     -3.9198 *     5.8810 *     9.8017 *  0.0000     8          
   110  O     c      3.9216 *     5.8810 *     9.8017 *  0.0000     8          
   111  O     c     11.7629 *    -1.9603 *    -1.9603    0.0000     4          
   112  Li    c    -11.7611 *    -1.9603 *     3.9207 *  0.0000     8          
   113  Cl    c     -9.8008 *     0.0000       7.8414 *  0.0000     4          
   114  Li    c     -7.8404 *     5.8810 *     7.8414 *  0.0000     8          
   115  Li    c     -7.8404 *     9.8017 *     0.0000    0.0000     4          
   116  Cl    c     -5.8801 *     7.8414 *     7.8414    0.0000     4          
   117  Li    c     -3.9198 *    -1.9603 *    11.7620 *  0.0000     8          
   118  Cl    c     -1.9594 *    11.7620 *     3.9207 *  0.0000     8          
   119  Li    c      0.0009 *     9.8017 *     7.8414 *  0.0000     8          
   120  Cl    c      1.9612 *    11.7620 *     3.9207 *  0.0000     8          
   121  Li    c      3.9216 *    -1.9603 *    11.7620 *  0.0000     8          
   122  Cl    c      5.8819 *     7.8414 *     7.8414    0.0000     4          
   123  Li    c      7.8423 *     5.8810 *     7.8414 *  0.0000     8          
   124  Li    c      7.8423 *     9.8017 *     0.0000    0.0000     4          
   125  Cl    c      9.8026 *     0.0000       7.8414 *  0.0000     4          
   126  Li    c     11.7629 *    -1.9603 *     3.9207 *  0.0000     8          
   127  O     c     -7.8404 *     9.8017 *    -1.9603 *  0.0000     8          
   128  O     c      7.8423 *    -1.9603 *     9.8017 *  0.0000     8          
   129  Li    c     -9.8008 *     5.8810 *     5.8810    0.0000     4          
   130  Li    c     -5.8801 *     9.8017 *     5.8810 *  0.0000     8          
   131  Li    c      5.8819 *     5.8810 *     9.8017 *  0.0000     8          
   132  Li    c      9.8026 *     5.8810 *     5.8810    0.0000     4          
   133  Li    c    -11.7611 *     5.8810 *     0.0000    0.0000     4          
   134  Cl    c     -9.8008 *     3.9207 *     7.8414 *  0.0000     8          
   135  Li    c     -7.8404 *     9.8017 *     3.9207 *  0.0000     8          
   136  Cl    c     -5.8801 *     0.0000      11.7620 *  0.0000     4          
   137  Li    c     -3.9198 *     9.8017 *     7.8414 *  0.0000     8          
   138  Li    c      0.0009 *    11.7620 *     5.8810 *  0.0000     8          
   139  Li    c      3.9216 *     9.8017 *     7.8414 *  0.0000     8          
   140  Cl    c      5.8819 *     0.0000      11.7620 *  0.0000     4          
   141  Li    c      7.8423 *     9.8017 *     3.9207 *  0.0000     8          
   142  Cl    c      9.8026 *     3.9207 *     7.8414 *  0.0000     8          
   143  Li    c     11.7629 *     5.8810 *     0.0000    0.0000     4          
   144  O     c    -11.7611 *    -1.9603 *     5.8810 *  0.0000     8          
   145  O     c     11.7629 *    -1.9603 *     5.8810 *  0.0000     8          
   146  Cl    c    -13.7215 *     0.0000       0.0000    0.0000     1          
   147  Li    c    -11.7611 *     5.8810 *     3.9207 *  0.0000     8          
   148  Cl    c     -5.8801 *     3.9207 *    11.7620 *  0.0000     8          
   149  Li    c     -3.9198 *     5.8810 *    11.7620 *  0.0000     8          
   150  Li    c      0.0009 *    13.7224 *     0.0000    0.0000     4          
   151  Li    c      3.9216 *     5.8810 *    11.7620 *  0.0000     8          
   152  Cl    c      5.8819 *     3.9207 *    11.7620 *  0.0000     8          
   153  Li    c     11.7629 *     5.8810 *     3.9207 *  0.0000     8          
   154  Cl    c     13.7233 *     0.0000       0.0000    0.0000     1          
   155  O     c     -7.8404 *     5.8810 *     9.8017 *  0.0000     8          
   156  O     c      0.0009 *    13.7224 *    -1.9603 *  0.0000     8          
   157  O     c      0.0009 *     9.8017 *     9.8017    0.0000     4          
   158  O     c      7.8423 *     5.8810 *     9.8017 *  0.0000     8          
   159  Li    c    -13.7215 *    -1.9603 *    -1.9603    0.0000     4          
   160  Li    c     -9.8008 *     9.8017 *    -1.9603 *  0.0000     8          
   161  Li    c     -1.9594 *    13.7224 *    -1.9603 *  0.0000     8          
   162  Li    c     -1.9594 *     9.8017 *     9.8017    0.0000     4          
   163  Li    c      1.9612 *    13.7224 *    -1.9603 *  0.0000     8          
   164  Li    c      1.9612 *     9.8017 *     9.8017    0.0000     4          
   165  Li    c      9.8026 *     9.8017 *    -1.9603 *  0.0000     8          
   166  Li    c     13.7233 *    -1.9603 *    -1.9603    0.0000     4          
   167  Cl    c    -13.7215 *     0.0000       3.9207 *  0.0000     4          
   168  Li    c    -11.7611 *    -1.9603 *     7.8414 *  0.0000     8          
   169  Li    c     -7.8404 *    -1.9603 *    11.7620 *  0.0000     8          
   170  Li    c     -3.9198 *    13.7224 *     0.0000    0.0000     4          
   171  Cl    c     -1.9594 *     7.8414 *    11.7620 *  0.0000     8          
   172  Li    c      0.0009 *    13.7224 *     3.9207 *  0.0000     8          
   173  Cl    c      1.9612 *    11.7620 *     7.8414 *  0.0000     8          
   174  Li    c      3.9216 *    13.7224 *     0.0000    0.0000     4          
   175  Li    c      7.8423 *    -1.9603 *    11.7620 *  0.0000     8          
   176  Li    c     11.7629 *    -1.9603 *     7.8414 *  0.0000     8          
   177  Cl    c     13.7233 *     0.0000       3.9207 *  0.0000     4          
   178  O     c    -11.7611 *     5.8810 *     5.8810    0.0000     4          
   179  O     c     -3.9198 *    -1.9603 *    13.7224 *  0.0000     8          
   180  O     c     -3.9198 *     9.8017 *     9.8017    0.0000     4          
   181  O     c      3.9216 *    -1.9603 *    13.7224 *  0.0000     8          
   182  O     c      3.9216 *     9.8017 *     9.8017    0.0000     4          
   183  O     c     11.7629 *     5.8810 *     5.8810    0.0000     4          
   184  Cl    c    -13.7215 *     3.9207 *     3.9207    0.0000     4          
   185  Cl    c     -9.8008 *     7.8414 *     7.8414    0.0000     4          
   186  Li    c     -7.8404 *     9.8017 *     7.8414 *  0.0000     8          
   187  Li    c     -3.9198 *    13.7224 *     3.9207 *  0.0000     8          
   188  Li    c      3.9216 *    13.7224 *     3.9207 *  0.0000     8          
   189  Li    c      7.8423 *     9.8017 *     7.8414 *  0.0000     8          
   190  Cl    c      9.8026 *     7.8414 *     7.8414    0.0000     4          
   191  Cl    c     13.7233 *     3.9207 *     3.9207    0.0000     4          
   192  O     c      0.0009 *     5.8810 *    13.7224 *  0.0000     8          
   193  Li    c    -13.7215 *    -1.9603 *     5.8810 *  0.0000     8          
   194  Li    c     -9.8008 *     5.8810 *     9.8017 *  0.0000     8          
   195  Li    c     -5.8801 *    13.7224 *    -1.9603 *  0.0000     8          
   196  Li    c     -5.8801 *     9.8017 *     9.8017    0.0000     4          
   197  Li    c     -1.9594 *     5.8810 *    13.7224 *  0.0000     8          
   198  Li    c      1.9612 *     5.8810 *    13.7224 *  0.0000     8          
   199  Li    c      5.8819 *    -1.9603 *    13.7224 *  0.0000     8          
   200  Li    c      5.8819 *     9.8017 *     9.8017    0.0000     4          
   201  Li    c      9.8026 *     5.8810 *     9.8017 *  0.0000     8          
   202  Li    c     13.7233 *    -1.9603 *     5.8810 *  0.0000     8          
   203  Li    c    -11.7611 *     5.8810 *     7.8414 *  0.0000     8          
   204  Li    c    -11.7611 *     9.8017 *     0.0000    0.0000     4          
   205  Cl    c     -9.8008 *     0.0000      11.7620 *  0.0000     4          
   206  Li    c     -7.8404 *     5.8810 *    11.7620 *  0.0000     8          
   207  Cl    c     -5.8801 *     7.8414 *    11.7620 *  0.0000     8          
   208  Li    c      0.0009 *    11.7620 *     9.8017 *  0.0000     8          
   209  Cl    c      5.8819 *     7.8414 *    11.7620 *  0.0000     8          
   210  Li    c      7.8423 *     5.8810 *    11.7620 *  0.0000     8          
   211  Cl    c      9.8026 *     0.0000      11.7620 *  0.0000     4          
   212  Li    c     11.7629 *     5.8810 *     7.8414 *  0.0000     8          
   213  Li    c     11.7629 *     9.8017 *     0.0000    0.0000     4          
   214  O     c    -11.7611 *    -1.9603 *     9.8017 *  0.0000     8          
   215  O     c     -3.9198 *     5.8810 *    13.7224 *  0.0000     8          
   216  O     c      3.9216 *     5.8810 *    13.7224 *  0.0000     8          
   217  O     c     11.7629 *    -1.9603 *     9.8017 *  0.0000     8          
   218  Li    c    -15.6818 *    -1.9603 *     0.0000    0.0000     4          
   219  Cl    c    -13.7215 *     0.0000       7.8414 *  0.0000     4          
   220  Li    c    -11.7611 *     9.8017 *     3.9207 *  0.0000     8          
   221  Cl    c     -9.8008 *     3.9207 *    11.7620 *  0.0000     8          
   222  Li    c     -7.8404 *    13.7224 *     0.0000    0.0000     4          
   223  Li    c     -3.9198 *     9.8017 *    11.7620 *  0.0000     8          
   224  Cl    c     -1.9594 *     0.0000      15.6827 *  0.0000     4          
   225  Li    c      0.0009 *    15.6827 *    -1.9603 *  0.0000     8          
   226  Li    c      0.0009 *    13.7224 *     7.8414 *  0.0000     8          
   227  Cl    c      1.9612 *     0.0000      15.6827 *  0.0000     4          
   228  Li    c      3.9216 *     9.8017 *    11.7620 *  0.0000     8          
   229  Li    c      7.8423 *    13.7224 *     0.0000    0.0000     4          
   230  Cl    c      9.8026 *     3.9207 *    11.7620 *  0.0000     8          
   231  Li    c     11.7629 *     9.8017 *     3.9207 *  0.0000     8          
   232  Cl    c     13.7233 *     0.0000       7.8414 *  0.0000     4          
   233  Li    c     15.6836 *    -1.9603 *     0.0000    0.0000     4          
   234  O     c    -15.6818 *    -1.9603 *    -1.9603    0.0000     4          
   235  O     c     -7.8404 *    13.7224 *    -1.9603 *  0.0000     8          
   236  O     c     -7.8404 *     9.8017 *     9.8017    0.0000     4          
   237  O     c      7.8423 *    -1.9603 *    13.7224 *  0.0000     8          
   238  O     c      7.8423 *     9.8017 *     9.8017    0.0000     4          
   239  O     c     15.6836 *    -1.9603 *    -1.9603    0.0000     4          
   240  Li    c    -13.7215 *     5.8810 *     5.8810    0.0000     4          
   241  Li    c     -5.8801 *     5.8810 *    13.7224 *  0.0000     8          
   242  Li    c      5.8819 *     5.8810 *    13.7224 *  0.0000     8          
   243  Li    c     13.7233 *     5.8810 *     5.8810    0.0000     4          
   244  Li    c    -15.6818 *    -1.9603 *     3.9207 *  0.0000     8          
   245  Cl    c    -13.7215 *     3.9207 *     7.8414 *  0.0000     8          
   246  Li    c     -7.8404 *    13.7224 *     3.9207 *  0.0000     8          
   247  Li    c     -3.9198 *    -1.9603 *    15.6827 *  0.0000     8          
   248  Li    c     -3.9198 *     7.8414 *    13.7224 *  0.0000     8          
   249  Cl    c     -1.9594 *     3.9207 *    15.6827 *  0.0000     8          
   250  Cl    c      1.9612 *     3.9207 *    15.6827 *  0.0000     8          
   251  Li    c      3.9216 *    -1.9603 *    15.6827 *  0.0000     8          
   252  Li    c      3.9216 *    13.7224 *     7.8414 *  0.0000     8          
   253  Li    c      7.8423 *     3.9207 *    13.7224 *  0.0000     8          
   254  Cl    c     13.7233 *     3.9207 *     7.8414 *  0.0000     8          
   255  Li    c     15.6836 *    -1.9603 *     3.9207 *  0.0000     8          
   256  O     c    -11.7611 *     5.8810 *     9.8017 *  0.0000     8          
   257  O     c     11.7629 *     5.8810 *     9.8017 *  0.0000     8          
   258  Li    c    -15.6818 *     5.8810 *     0.0000    0.0000     4          
   259  Li    c    -11.7611 *    -1.9603 *    11.7620 *  0.0000     8          
   260  Cl    c     -5.8801 *     0.0000      15.6827 *  0.0000     4          
   261  Cl    c     -1.9594 *    11.7620 *    11.7620    0.0000     4          
   262  Li    c      0.0009 *     5.8810 *    15.6827 *  0.0000     8          
   263  Cl    c      1.9612 *    11.7620 *    11.7620    0.0000     4          
   264  Cl    c      5.8819 *     0.0000      15.6827 *  0.0000     4          
   265  Li    c     11.7629 *    -1.9603 *    11.7620 *  0.0000     8          
   266  Li    c     15.6836 *     5.8810 *     0.0000    0.0000     4          
   267  O     c    -15.6818 *    -1.9603 *     5.8810 *  0.0000     8          
   268  O     c     -7.8404 *     5.8810 *    13.7224 *  0.0000     8          
   269  O     c      0.0009 *     9.8017 *    13.7224 *  0.0000     8          
   270  O     c      7.8423 *     5.8810 *    13.7224 *  0.0000     8          
   271  O     c     15.6836 *    -1.9603 *     5.8810 *  0.0000     8          
   272  Li    c    -13.7215 *    -1.9603 *     9.8017 *  0.0000     8          
   273  Li    c     -9.8008 *    13.7224 *    -1.9603 *  0.0000     8          
   274  Li    c     -9.8008 *     9.8017 *     9.8017    0.0000     4          
   275  Li    c     -1.9594 *    13.7224 *     9.8017 *  0.0000     8          
   276  Li    c      1.9612 *     9.8017 *    13.7224 *  0.0000     8          
   277  Li    c      9.8026 *    -1.9603 *    13.7224 *  0.0000     8          
   278  Li    c      9.8026 *     9.8017 *     9.8017    0.0000     4          
   279  Li    c     13.7233 *     9.8017 *    -1.9603 *  0.0000     8          
   280  Li    c    -15.6818 *     3.9207 *     5.8810 *  0.0000     8          
   281  Li    c    -11.7611 *     9.8017 *     7.8414 *  0.0000     8          
   282  Cl    c     -9.8008 *     7.8414 *    11.7620 *  0.0000     8          
   283  Li    c     -7.8404 *     9.8017 *    11.7620 *  0.0000     8          
   284  Cl    c     -5.8801 *     3.9207 *    15.6827 *  0.0000     8          
   285  Li    c     -3.9198 *     5.8810 *    15.6827 *  0.0000     8          
   286  Li    c      3.9216 *     5.8810 *    15.6827 *  0.0000     8          
   287  Cl    c      5.8819 *     3.9207 *    15.6827 *  0.0000     8          
   288  Li    c      7.8423 *     9.8017 *    11.7620 *  0.0000     8          
   289  Cl    c      9.8026 *     7.8414 *    11.7620 *  0.0000     8          
   290  Li    c     11.7629 *     9.8017 *     7.8414 *  0.0000     8          
   291  Li    c     15.6836 *     3.9207 *     5.8810 *  0.0000     8          
   292  O     c     -3.9198 *     9.8017 *    13.7224 *  0.0000     8          
   293  O     c      3.9216 *     9.8017 *    13.7224 *  0.0000     8          
   294  Cl    c    -17.6421 *     0.0000       0.0000    0.0000     1          
   295  Li    c    -15.6818 *    -1.9603 *     7.8414 *  0.0000     8          
   296  Cl    c    -13.7215 *     7.8414 *     7.8414    0.0000     4          
   297  Li    c    -11.7611 *     5.8810 *    11.7620 *  0.0000     8          
   298  Li    c     -7.8404 *    -1.9603 *    15.6827 *  0.0000     8          
   299  Li    c     -7.8404 *    13.7224 *     7.8414 *  0.0000     8          
   300  Cl    c     -5.8801 *    11.7620 *    11.7620    0.0000     4          
   301  Cl    c     -1.9594 *     7.8414 *    15.6827 *  0.0000     8          
   302  Li    c      0.0009 *    17.6430 *     0.0000    0.0000     4          
   303  Cl    c      1.9612 *     7.8414 *    15.6827 *  0.0000     8          
   304  Cl    c      5.8819 *    11.7620 *    11.7620    0.0000     4          
   305  Li    c      7.8423 *    -1.9603 *    15.6827 *  0.0000     8          
   306  Li    c      7.8423 *     7.8414 *    13.7224 *  0.0000     8          
   307  Li    c     11.7629 *     5.8810 *    11.7620 *  0.0000     8          
   308  Cl    c     13.7233 *     7.8414 *     7.8414    0.0000     4          
   309  Li    c     15.6836 *    -1.9603 *     7.8414 *  0.0000     8          
   310  Cl    c     17.6439 *     0.0000       0.0000    0.0000     1          
   311  O     c    -15.6818 *     5.8810 *     5.8810    0.0000     4          
   312  O     c      0.0009 *    -1.9603 *    17.6430 *  0.0000     8          
   313  O     c     15.6836 *     5.8810 *     5.8810    0.0000     4          
   314  Li    c    -17.6421 *    -1.9603 *    -1.9603    0.0000     4          
   315  Li    c    -13.7215 *     5.8810 *     9.8017 *  0.0000     8          
   316  Li    c     -9.8008 *     5.8810 *    13.7224 *  0.0000     8          
   317  Li    c     -5.8801 *     9.8017 *    13.7224 *  0.0000     8          
   318  Li    c     -1.9594 *    -1.9603 *    17.6430 *  0.0000     8          
   319  Li    c      1.9612 *    -1.9603 *    17.6430 *  0.0000     8          
   320  Li    c      5.8819 *     9.8017 *    13.7224 *  0.0000     8          
   321  Li    c      9.8026 *     5.8810 *    13.7224 *  0.0000     8          
   322  Li    c     13.7233 *     9.8017 *     5.8810 *  0.0000     8          
   323  Li    c     17.6439 *    -1.9603 *    -1.9603    0.0000     4          
   324  Cl    c    -17.6421 *     0.0000       3.9207 *  0.0000     4          
   325  Cl    c    -13.7215 *     0.0000      11.7620 *  0.0000     4          
   326  Li    c    -11.7611 *    13.7224 *     0.0000    0.0000     4          
   327  Li    c     -3.9198 *    17.6430 *     0.0000    0.0000     4          
   328  Li    c      0.0009 *    13.7224 *    11.7620 *  0.0000     8          
   329  Li    c      0.0009 *    17.6430 *     3.9207 *  0.0000     8          
   330  Li    c      3.9216 *    17.6430 *     0.0000    0.0000     4          
   331  Li    c     11.7629 *    13.7224 *     0.0000    0.0000     4          
   332  Cl    c     13.7233 *     0.0000      11.7620 *  0.0000     4          
   333  Cl    c     17.6439 *     0.0000       3.9207 *  0.0000     4          
   334  O     c    -11.7611 *    -1.9603 *    13.7224 *  0.0000     8          
   335  O     c    -11.7611 *     9.8017 *     9.8017    0.0000     4          
   336  O     c     -3.9198 *    17.6430 *    -1.9603 *  0.0000     8          
   337  O     c      3.9216 *    17.6430 *    -1.9603 *  0.0000     8          
   338  O     c     11.7629 *    13.7224 *    -1.9603 *  0.0000     8          
   339  O     c     11.7629 *     9.8017 *     9.8017    0.0000     4          
   340  Cl    c    -17.6421 *     3.9207 *     3.9207    0.0000     4          
   341  Li    c    -15.6818 *     9.8017 *     0.0000    0.0000     4          
   342  Li    c    -15.6818 *     7.8414 *     5.8810 *  0.0000     8          
   343  Cl    c    -13.7215 *     3.9207 *    11.7620 *  0.0000     8          
   344  Li    c    -11.7611 *     3.9207 *    13.7224 *  0.0000     8          
   345  Cl    c     -9.8008 *     0.0000      15.6827 *  0.0000     4          
   346  Li    c     -7.8404 *     5.8810 *    15.6827 *  0.0000     8          
   347  Cl    c     -5.8801 *     7.8414 *    15.6827 *  0.0000     8          
   348  Li    c     -3.9198 *    13.7224 *    11.7620 *  0.0000     8          
   349  Li    c     -3.9198 *    17.6430 *     3.9207 *  0.0000     8          
   350  Li    c      0.0009 *     9.8017 *    15.6827 *  0.0000     8          
   351  Li    c      3.9216 *    13.7224 *    11.7620 *  0.0000     8          
   352  Li    c      3.9216 *    17.6430 *     3.9207 *  0.0000     8          
   353  Cl    c      5.8819 *     7.8414 *    15.6827 *  0.0000     8          
   354  Li    c      7.8423 *     5.8810 *    15.6827 *  0.0000     8          
   355  Cl    c      9.8026 *     0.0000      15.6827 *  0.0000     4          
   356  Li    c     11.7629 *    13.7224 *     3.9207 *  0.0000     8          
   357  Cl    c     13.7233 *     3.9207 *    11.7620 *  0.0000     8          
   358  Li    c     15.6836 *     9.8017 *     0.0000    0.0000     4          
   359  Li    c     15.6836 *     7.8414 *     5.8810 *  0.0000     8          
   360  Cl    c     17.6439 *     3.9207 *     3.9207    0.0000     4          
   361  O     c    -15.6818 *     9.8017 *    -1.9603 *  0.0000     8          
   362  O     c     -7.8404 *     9.8017 *    13.7224 *  0.0000     8          
   363  O     c      0.0009 *    17.6430 *     5.8810 *  0.0000     8          
   364  O     c      7.8423 *     9.8017 *    13.7224 *  0.0000     8          
   365  O     c     15.6836 *     9.8017 *    -1.9603 *  0.0000     8          
   366  Li    c    -17.6421 *     5.8810 *    -1.9603 *  0.0000     8          
   367  Li    c     -5.8801 *    -1.9603 *    17.6430 *  0.0000     8          
   368  Li    c     -1.9594 *     5.8810 *    17.6430 *  0.0000     8          
   369  Li    c      1.9612 *    17.6430 *     5.8810 *  0.0000     8          
   370  Li    c      5.8819 *    -1.9603 *    17.6430 *  0.0000     8          
   371  Li    c     17.6439 *    -1.9603 *     5.8810 *  0.0000     8          
   372  Li    c    -15.6818 *     9.8017 *     3.9207 *  0.0000     8          
   373  Cl    c     -9.8008 *     3.9207 *    15.6827 *  0.0000     8          
   374  Li    c     -3.9198 *     9.8017 *    15.6827 *  0.0000     8          
   375  Li    c      3.9216 *     9.8017 *    15.6827 *  0.0000     8          
   376  Cl    c      9.8026 *     3.9207 *    15.6827 *  0.0000     8          
   377  Li    c     15.6836 *     9.8017 *     3.9207 *  0.0000     8          
   378  O     c    -11.7611 *     5.8810 *    13.7224 *  0.0000     8          
   379  O     c     -3.9198 *     5.8810 *    17.6430 *  0.0000     8          
   380  O     c      3.9216 *    17.6430 *     5.8810 *  0.0000     8          
   381  O     c     11.7629 *    13.7224 *     5.8810 *  0.0000     8          
   382  Cl    c    -17.6421 *     0.0000       7.8414 *  0.0000     4          
   383  Li    c    -11.7611 *     9.8017 *    11.7620 *  0.0000     8          
   384  Cl    c     -9.8008 *    11.7620 *    11.7620    0.0000     4          
   385  Li    c     -7.8404 *    17.6430 *     0.0000    0.0000     4          
   386  Li    c      0.0009 *    17.6430 *     7.8414 *  0.0000     8          
   387  Li    c      7.8423 *    17.6430 *     0.0000    0.0000     4          
   388  Cl    c      9.8026 *    11.7620 *    11.7620    0.0000     4          
   389  Li    c     11.7629 *     9.8017 *    11.7620 *  0.0000     8          
   390  Cl    c     17.6439 *     0.0000       7.8414 *  0.0000     4          
   391  O     c    -15.6818 *     9.8017 *     5.8810 *  0.0000     8          
   392  O     c     -7.8404 *    -1.9603 *    17.6430 *  0.0000     8          
   393  O     c      0.0009 *    13.7224 *    13.7224    0.0000     4          
   394  O     c      7.8423 *    -1.9603 *    17.6430 *  0.0000     8          
   395  O     c     15.6836 *     9.8017 *     5.8810 *  0.0000     8          
   396  Li    c    -17.6421 *     5.8810 *     5.8810    0.0000     4          
   397  Li    c    -13.7215 *    -1.9603 *    13.7224 *  0.0000     8          
   398  Li    c    -13.7215 *     9.8017 *     9.8017    0.0000     4          
   399  Li    c     -9.8008 *     9.8017 *    13.7224 *  0.0000     8          
   400  Li    c     -5.8801 *     5.8810 *    17.6430 *  0.0000     8          
   401  Li    c     -1.9594 *    13.7224 *    13.7224    0.0000     4          
   402  Li    c      1.9612 *    13.7224 *    13.7224    0.0000     4          
   403  Li    c      5.8819 *     5.8810 *    17.6430 *  0.0000     8          
   404  Li    c      9.8026 *     9.8017 *    13.7224 *  0.0000     8          
   405  Li    c     13.7233 *    13.7224 *    -1.9603 *  0.0000     8          
   406  Li    c     13.7233 *     9.8017 *     9.8017    0.0000     4          
   407  Li    c     17.6439 *     5.8810 *     5.8810    0.0000     4          
   408  Li    c    -19.6025 *    -1.9603 *     0.0000    0.0000     4          
   409  Cl    c    -17.6421 *     3.9207 *     7.8414 *  0.0000     8          
   410  Li    c    -15.6818 *    -1.9603 *    11.7620 *  0.0000     8          
   411  Cl    c    -13.7215 *     7.8414 *    11.7620 *  0.0000     8          
   412  Li    c    -11.7611 *    15.6827 *    -1.9603 *  0.0000     8          
   413  Li    c    -11.7611 *     7.8414 *    13.7224 *  0.0000     8          
   414  Li    c     -7.8404 *    13.7224 *    11.7620 *  0.0000     8          
   415  Li    c     -7.8404 *    17.6430 *     3.9207 *  0.0000     8          
   416  Li    c     -3.9198 *    17.6430 *     7.8414 *  0.0000     8          
   417  Cl    c     -1.9594 *    11.7620 *    15.6827 *  0.0000     8          
   418  Cl    c     -1.9594 *     0.0000      19.6034 *  0.0000     4          
   419  Li    c      0.0009 *    -1.9603 *    19.6034 *  0.0000     8          
   420  Cl    c      1.9612 *    11.7620 *    15.6827 *  0.0000     8          
   421  Cl    c      1.9612 *     0.0000      19.6034 *  0.0000     4          
   422  Li    c      3.9216 *    17.6430 *     7.8414 *  0.0000     8          
   423  Li    c      7.8423 *    13.7224 *    11.7620 *  0.0000     8          
   424  Li    c      7.8423 *    17.6430 *     3.9207 *  0.0000     8          
   425  Li    c     11.7629 *    -1.9603 *    15.6827 *  0.0000     8          
   426  Li    c     11.7629 *    13.7224 *     7.8414 *  0.0000     8          
   427  Cl    c     13.7233 *     7.8414 *    11.7620 *  0.0000     8          
   428  Li    c     15.6836 *    -1.9603 *    11.7620 *  0.0000     8          
   429  Cl    c     17.6439 *     3.9207 *     7.8414 *  0.0000     8          
   430  Li    c     19.6043 *    -1.9603 *     0.0000    0.0000     4          
   431  O     c    -19.6025 *    -1.9603 *    -1.9603    0.0000     4          
   432  O     c     -3.9198 *    13.7224 *    13.7224    0.0000     4          
   433  O     c      3.9216 *    13.7224 *    13.7224    0.0000     4          
   434  O     c     19.6043 *    -1.9603 *    -1.9603    0.0000     4          
   435  Cl    s      1.8022       0.0000       0.0000    0.0000     1    Defect
   436  O     s      0.0009 *    -1.9603 *    -1.9603    0.0000     4          
   437  Cl    s     -1.9594 *     0.0000       3.9207 *  0.0000     4          
   438  Cl    s      1.9612 *     0.0000       3.9207 *  0.0000     4          
   439  O     s     -3.9198 *    -1.9603 *    -1.9603    0.0000     4          
   440  O     s      3.9216 *    -1.9603 *    -1.9603    0.0000     4          
   441  Cl    s     -5.8801 *     0.0000       0.0000    0.0000     1          
   442  Cl    s     -1.9594 *     3.9207 *     3.9207    0.0000     4          
   443  Cl    s      1.9612 *     3.9207 *     3.9207    0.0000     4          
   444  Cl    s      5.8819 *     0.0000       0.0000    0.0000     1          
   445  O     s      0.0009 *    -1.9603 *     5.8810 *  0.0000     8          
   446  Cl    s     -5.8801 *     0.0000       3.9207 *  0.0000     4          
   447  Cl    s      5.8819 *     0.0000       3.9207 *  0.0000     4          
   448  O     s     -3.9198 *    -1.9603 *     5.8810 *  0.0000     8          
   449  O     s      3.9216 *     5.8810 *    -1.9603 *  0.0000     8          
   450  Cl    s     -5.8801 *     3.9207 *     3.9207    0.0000     4          
   451  Cl    s     -1.9594 *     0.0000       7.8414 *  0.0000     4          
   452  Cl    s      1.9612 *     0.0000       7.8414 *  0.0000     4          
   453  Cl    s      5.8819 *     3.9207 *     3.9207    0.0000     4          
   454  O     s     -7.8404 *    -1.9603 *    -1.9603    0.0000     4          
   455  O     s      0.0009 *     5.8810 *     5.8810    0.0000     4          
   456  O     s      7.8423 *    -1.9603 *    -1.9603    0.0000     4          
   457  Cl    s     -1.9594 *     3.9207 *     7.8414 *  0.0000     8          
   458  Cl    s      1.9612 *     3.9207 *     7.8414 *  0.0000     8          
   459  O     s     -3.9198 *     5.8810 *     5.8810    0.0000     4          
   460  O     s      3.9216 *     5.8810 *     5.8810    0.0000     4          
   461  Cl    s     -9.8008 *     0.0000       0.0000    0.0000     1          
   462  Cl    s     -5.8801 *     0.0000       7.8414 *  0.0000     4          
   463  Cl    s      5.8819 *     0.0000       7.8414 *  0.0000     4          
   464  Cl    s      9.8026 *     0.0000       0.0000    0.0000     1          
   465  O     s     -7.8404 *    -1.9603 *     5.8810 *  0.0000     8          
   466  O     s      0.0009 *    -1.9603 *     9.8017 *  0.0000     8          
   467  O     s      7.8423 *    -1.9603 *     5.8810 *  0.0000     8          
   468  Cl    s     -9.8008 *     0.0000       3.9207 *  0.0000     4          
   469  Cl    s     -5.8801 *     3.9207 *     7.8414 *  0.0000     8          
   470  Cl    s      5.8819 *     3.9207 *     7.8414 *  0.0000     8          
   471  Cl    s      9.8026 *     0.0000       3.9207 *  0.0000     4          
   472  O     s     -3.9198 *    -1.9603 *     9.8017 *  0.0000     8          
   473  O     s      3.9216 *    -1.9603 *     9.8017 *  0.0000     8          
   474  Cl    s     -9.8008 *     3.9207 *     3.9207    0.0000     4          
   475  Cl    s     -1.9594 *     7.8414 *     7.8414    0.0000     4          
   476  Cl    s      1.9612 *     7.8414 *     7.8414    0.0000     4          
   477  Cl    s      9.8026 *     3.9207 *     3.9207    0.0000     4          
   478  O     s     -7.8404 *     5.8810 *     5.8810    0.0000     4          
   479  O     s      0.0009 *     5.8810 *     9.8017 *  0.0000     8          
   480  O     s      7.8423 *     5.8810 *     5.8810    0.0000     4          
   481  Cl    s     -1.9594 *     0.0000      11.7620 *  0.0000     4          
   482  Cl    s      1.9612 *     0.0000      11.7620 *  0.0000     4          
   483  O     s    -11.7611 *    -1.9603 *    -1.9603    0.0000     4          
   484  O     s     -3.9198 *     5.8810 *     9.8017 *  0.0000     8          
   485  O     s      3.9216 *     5.8810 *     9.8017 *  0.0000     8          
   486  O     s     11.7629 *    -1.9603 *    -1.9603    0.0000     4          
   487  Cl    s     -9.8008 *     0.0000       7.8414 *  0.0000     4          
   488  Cl    s     -5.8801 *     7.8414 *     7.8414    0.0000     4          
   489  Cl    s     -1.9594 *    11.7620 *     3.9207 *  0.0000     8          
   490  Cl    s      1.9612 *    11.7620 *     3.9207 *  0.0000     8          
   491  Cl    s      5.8819 *     7.8414 *     7.8414    0.0000     4          
   492  Cl    s      9.8026 *     0.0000       7.8414 *  0.0000     4          
   493  O     s     -7.8404 *     9.8017 *    -1.9603 *  0.0000     8          
   494  O     s      7.8423 *    -1.9603 *     9.8017 *  0.0000     8          
   495  Cl    s     -9.8008 *     3.9207 *     7.8414 *  0.0000     8          
   496  Cl    s     -5.8801 *     0.0000      11.7620 *  0.0000     4          
   497  Cl    s      5.8819 *     0.0000      11.7620 *  0.0000     4          
   498  Cl    s      9.8026 *     3.9207 *     7.8414 *  0.0000     8          
   499  O     s    -11.7611 *    -1.9603 *     5.8810 *  0.0000     8          
   500  O     s     11.7629 *    -1.9603 *     5.8810 *  0.0000     8          
   501  Cl    s    -13.7215 *     0.0000       0.0000    0.0000     1          
   502  Cl    s     -5.8801 *     3.9207 *    11.7620 *  0.0000     8          
   503  Cl    s      5.8819 *     3.9207 *    11.7620 *  0.0000     8          
   504  Cl    s     13.7233 *     0.0000       0.0000    0.0000     1          
   505  O     s     -7.8404 *     5.8810 *     9.8017 *  0.0000     8          
   506  O     s      0.0009 *    13.7224 *    -1.9603 *  0.0000     8          
   507  O     s      0.0009 *     9.8017 *     9.8017    0.0000     4          
   508  O     s      7.8423 *     5.8810 *     9.8017 *  0.0000     8          
   509  Cl    s    -13.7215 *     0.0000       3.9207 *  0.0000     4          
   510  Cl    s     -1.9594 *     7.8414 *    11.7620 *  0.0000     8          
   511  Cl    s      1.9612 *    11.7620 *     7.8414 *  0.0000     8          
   512  Cl    s     13.7233 *     0.0000       3.9207 *  0.0000     4          
   513  O     s    -11.7611 *     5.8810 *     5.8810    0.0000     4          
   514  O     s     -3.9198 *    -1.9603 *    13.7224 *  0.0000     8          
   515  O     s     -3.9198 *     9.8017 *     9.8017    0.0000     4          
   516  O     s      3.9216 *    -1.9603 *    13.7224 *  0.0000     8          
   517  O     s      3.9216 *     9.8017 *     9.8017    0.0000     4          
   518  O     s     11.7629 *     5.8810 *     5.8810    0.0000     4          
   519  Cl    s    -13.7215 *     3.9207 *     3.9207    0.0000     4          
   520  Cl    s     -9.8008 *     7.8414 *     7.8414    0.0000     4          
   521  Cl    s      9.8026 *     7.8414 *     7.8414    0.0000     4          
   522  Cl    s     13.7233 *     3.9207 *     3.9207    0.0000     4          
   523  O     s      0.0009 *     5.8810 *    13.7224 *  0.0000     8          
   524  Cl    s     -9.8008 *     0.0000      11.7620 *  0.0000     4          
   525  Cl    s     -5.8801 *     7.8414 *    11.7620 *  0.0000     8          
   526  Cl    s      5.8819 *     7.8414 *    11.7620 *  0.0000     8          
   527  Cl    s      9.8026 *     0.0000      11.7620 *  0.0000     4          
   528  O     s    -11.7611 *    -1.9603 *     9.8017 *  0.0000     8          
   529  O     s     -3.9198 *     5.8810 *    13.7224 *  0.0000     8          
   530  O     s      3.9216 *     5.8810 *    13.7224 *  0.0000     8          
   531  O     s     11.7629 *    -1.9603 *     9.8017 *  0.0000     8          
   532  Cl    s    -13.7215 *     0.0000       7.8414 *  0.0000     4          
   533  Cl    s     -9.8008 *     3.9207 *    11.7620 *  0.0000     8          
   534  Cl    s     -1.9594 *     0.0000      15.6827 *  0.0000     4          
   535  Cl    s      1.9612 *     0.0000      15.6827 *  0.0000     4          
   536  Cl    s      9.8026 *     3.9207 *    11.7620 *  0.0000     8          
   537  Cl    s     13.7233 *     0.0000       7.8414 *  0.0000     4          
   538  O     s    -15.6818 *    -1.9603 *    -1.9603    0.0000     4          
   539  O     s     -7.8404 *    13.7224 *    -1.9603 *  0.0000     8          
   540  O     s     -7.8404 *     9.8017 *     9.8017    0.0000     4          
   541  O     s      7.8423 *    -1.9603 *    13.7224 *  0.0000     8          
   542  O     s      7.8423 *     9.8017 *     9.8017    0.0000     4          
   543  O     s     15.6836 *    -1.9603 *    -1.9603    0.0000     4          
   544  Cl    s    -13.7215 *     3.9207 *     7.8414 *  0.0000     8          
   545  Cl    s     -1.9594 *     3.9207 *    15.6827 *  0.0000     8          
   546  Cl    s      1.9612 *     3.9207 *    15.6827 *  0.0000     8          
   547  Cl    s     13.7233 *     3.9207 *     7.8414 *  0.0000     8          
   548  O     s    -11.7611 *     5.8810 *     9.8017 *  0.0000     8          
   549  O     s     11.7629 *     5.8810 *     9.8017 *  0.0000     8          
   550  Cl    s     -5.8801 *     0.0000      15.6827 *  0.0000     4          
   551  Cl    s     -1.9594 *    11.7620 *    11.7620    0.0000     4          
   552  Cl    s      1.9612 *    11.7620 *    11.7620    0.0000     4          
   553  Cl    s      5.8819 *     0.0000      15.6827 *  0.0000     4          
   554  O     s    -15.6818 *    -1.9603 *     5.8810 *  0.0000     8          
   555  O     s     -7.8404 *     5.8810 *    13.7224 *  0.0000     8          
   556  O     s      0.0009 *     9.8017 *    13.7224 *  0.0000     8          
   557  O     s      7.8423 *     5.8810 *    13.7224 *  0.0000     8          
   558  O     s     15.6836 *    -1.9603 *     5.8810 *  0.0000     8          
   559  Cl    s     -9.8008 *     7.8414 *    11.7620 *  0.0000     8          
   560  Cl    s     -5.8801 *     3.9207 *    15.6827 *  0.0000     8          
   561  Cl    s      5.8819 *     3.9207 *    15.6827 *  0.0000     8          
   562  Cl    s      9.8026 *     7.8414 *    11.7620 *  0.0000     8          
   563  O     s     -3.9198 *     9.8017 *    13.7224 *  0.0000     8          
   564  O     s      3.9216 *     9.8017 *    13.7224 *  0.0000     8          
   565  Cl    s    -17.6421 *     0.0000       0.0000    0.0000     1          
   566  Cl    s    -13.7215 *     7.8414 *     7.8414    0.0000     4          
   567  Cl    s     -5.8801 *    11.7620 *    11.7620    0.0000     4          
   568  Cl    s     -1.9594 *     7.8414 *    15.6827 *  0.0000     8          
   569  Cl    s      1.9612 *     7.8414 *    15.6827 *  0.0000     8          
   570  Cl    s      5.8819 *    11.7620 *    11.7620    0.0000     4          
   571  Cl    s     13.7233 *     7.8414 *     7.8414    0.0000     4          
   572  Cl    s     17.6439 *     0.0000       0.0000    0.0000     1          
   573  O     s    -15.6818 *     5.8810 *     5.8810    0.0000     4          
   574  O     s      0.0009 *    -1.9603 *    17.6430 *  0.0000     8          
   575  O     s     15.6836 *     5.8810 *     5.8810    0.0000     4          
   576  Cl    s    -17.6421 *     0.0000       3.9207 *  0.0000     4          
   577  Cl    s    -13.7215 *     0.0000      11.7620 *  0.0000     4          
   578  Cl    s     13.7233 *     0.0000      11.7620 *  0.0000     4          
   579  Cl    s     17.6439 *     0.0000       3.9207 *  0.0000     4          
   580  O     s    -11.7611 *    -1.9603 *    13.7224 *  0.0000     8          
   581  O     s    -11.7611 *     9.8017 *     9.8017    0.0000     4          
   582  O     s     -3.9198 *    17.6430 *    -1.9603 *  0.0000     8          
   583  O     s      3.9216 *    17.6430 *    -1.9603 *  0.0000     8          
   584  O     s     11.7629 *    13.7224 *    -1.9603 *  0.0000     8          
   585  O     s     11.7629 *     9.8017 *     9.8017    0.0000     4          
   586  Cl    s    -17.6421 *     3.9207 *     3.9207    0.0000     4          
   587  Cl    s    -13.7215 *     3.9207 *    11.7620 *  0.0000     8          
   588  Cl    s     -9.8008 *     0.0000      15.6827 *  0.0000     4          
   589  Cl    s     -5.8801 *     7.8414 *    15.6827 *  0.0000     8          
   590  Cl    s      5.8819 *     7.8414 *    15.6827 *  0.0000     8          
   591  Cl    s      9.8026 *     0.0000      15.6827 *  0.0000     4          
   592  Cl    s     13.7233 *     3.9207 *    11.7620 *  0.0000     8          
   593  Cl    s     17.6439 *     3.9207 *     3.9207    0.0000     4          
   594  O     s    -15.6818 *     9.8017 *    -1.9603 *  0.0000     8          
   595  O     s     -7.8404 *     9.8017 *    13.7224 *  0.0000     8          
   596  O     s      0.0009 *    17.6430 *     5.8810 *  0.0000     8          
   597  O     s      7.8423 *     9.8017 *    13.7224 *  0.0000     8          
   598  O     s     15.6836 *     9.8017 *    -1.9603 *  0.0000     8          
   599  Cl    s     -9.8008 *     3.9207 *    15.6827 *  0.0000     8          
   600  Cl    s      9.8026 *     3.9207 *    15.6827 *  0.0000     8          
   601  O     s    -11.7611 *     5.8810 *    13.7224 *  0.0000     8          
   602  O     s     -3.9198 *     5.8810 *    17.6430 *  0.0000     8          
   603  O     s      3.9216 *    17.6430 *     5.8810 *  0.0000     8          
   604  O     s     11.7629 *    13.7224 *     5.8810 *  0.0000     8          
   605  Cl    s    -17.6421 *     0.0000       7.8414 *  0.0000     4          
   606  Cl    s     -9.8008 *    11.7620 *    11.7620    0.0000     4          
   607  Cl    s      9.8026 *    11.7620 *    11.7620    0.0000     4          
   608  Cl    s     17.6439 *     0.0000       7.8414 *  0.0000     4          
   609  O     s    -15.6818 *     9.8017 *     5.8810 *  0.0000     8          
   610  O     s     -7.8404 *    -1.9603 *    17.6430 *  0.0000     8          
   611  O     s      0.0009 *    13.7224 *    13.7224    0.0000     4          
   612  O     s      7.8423 *    -1.9603 *    17.6430 *  0.0000     8          
   613  O     s     15.6836 *     9.8017 *     5.8810 *  0.0000     8          
   614  Cl    s    -17.6421 *     3.9207 *     7.8414 *  0.0000     8          
   615  Cl    s    -13.7215 *     7.8414 *    11.7620 *  0.0000     8          
   616  Cl    s     -1.9594 *    11.7620 *    15.6827 *  0.0000     8          
   617  Cl    s     -1.9594 *     0.0000      19.6034 *  0.0000     4          
   618  Cl    s      1.9612 *    11.7620 *    15.6827 *  0.0000     8          
   619  Cl    s      1.9612 *     0.0000      19.6034 *  0.0000     4          
   620  Cl    s     13.7233 *     7.8414 *    11.7620 *  0.0000     8          
   621  Cl    s     17.6439 *     3.9207 *     7.8414 *  0.0000     8          
   622  O     s    -19.6025 *    -1.9603 *    -1.9603    0.0000     4          
   623  O     s     -3.9198 *    13.7224 *    13.7224    0.0000     4          
   624  O     s      3.9216 *    13.7224 *    13.7224    0.0000     4          
   625  O     s     19.6043 *    -1.9603 *    -1.9603    0.0000     4          
--------------------------------------------------------------------------------


  Constraints on symmetry reduced coordinates :

--------------------------------------------------------------------------------
  Constraint no.      Unconstrained     Constrained    Coefficient    
                         Variable         Variable
--------------------------------------------------------------------------------
           1                 3 y             3 z         1.00000
           2                 4 y             4 z         1.00000
           3                 5 y             5 z         1.00000
           4                11 y            11 z         1.00000
           5                12 y            12 z         1.00000
           6                15 y            15 z         1.00000
           7                17 y            17 z         1.00000
           8                21 y            21 z         1.00000
           9                24 y            24 z         1.00000
          10                33 y            33 z         1.00000
          11                39 y            39 z         1.00000
          12                41 y            41 z         1.00000
          13                42 y            42 z         1.00000
          14                43 y            43 z         1.00000
          15                45 y            45 z         1.00000
          16                46 y            46 z         1.00000
          17                54 y            54 z         1.00000
          18                55 y            55 z         1.00000
          19                67 y            67 z         1.00000
          20                68 y            68 z         1.00000
          21                71 y            71 z         1.00000
          22                72 y            72 z         1.00000
          23                86 y            86 z         1.00000
          24                89 y            89 z         1.00000
          25                90 y            90 z         1.00000
          26                93 y            93 z         1.00000
          27                94 y            94 z         1.00000
          28                96 y            96 z         1.00000
          29               108 y           108 z         1.00000
          30               111 y           111 z         1.00000
          31               116 y           116 z         1.00000
          32               122 y           122 z         1.00000
          33               129 y           129 z         1.00000
          34               132 y           132 z         1.00000
          35               157 y           157 z         1.00000
          36               159 y           159 z         1.00000
          37               162 y           162 z         1.00000
          38               164 y           164 z         1.00000
          39               166 y           166 z         1.00000
          40               178 y           178 z         1.00000
          41               180 y           180 z         1.00000
          42               182 y           182 z         1.00000
          43               183 y           183 z         1.00000
          44               184 y           184 z         1.00000
          45               185 y           185 z         1.00000
          46               190 y           190 z         1.00000
          47               191 y           191 z         1.00000
          48               196 y           196 z         1.00000
          49               200 y           200 z         1.00000
          50               234 y           234 z         1.00000
          51               236 y           236 z         1.00000
          52               238 y           238 z         1.00000
          53               239 y           239 z         1.00000
          54               240 y           240 z         1.00000
          55               243 y           243 z         1.00000
          56               261 y           261 z         1.00000
          57               263 y           263 z         1.00000
          58               274 y           274 z         1.00000
          59               278 y           278 z         1.00000
          60               296 y           296 z         1.00000
          61               300 y           300 z         1.00000
          62               304 y           304 z         1.00000
          63               308 y           308 z         1.00000
          64               311 y           311 z         1.00000
          65               313 y           313 z         1.00000
          66               314 y           314 z         1.00000
          67               323 y           323 z         1.00000
          68               335 y           335 z         1.00000
          69               339 y           339 z         1.00000
          70               340 y           340 z         1.00000
          71               360 y           360 z         1.00000
          72               384 y           384 z         1.00000
          73               388 y           388 z         1.00000
          74               393 y           393 z         1.00000
          75               396 y           396 z         1.00000
          76               398 y           398 z         1.00000
          77               401 y           401 z         1.00000
          78               402 y           402 z         1.00000
          79               406 y           406 z         1.00000
          80               407 y           407 z         1.00000
          81               431 y           431 z         1.00000
          82               432 y           432 z         1.00000
          83               433 y           433 z         1.00000
          84               434 y           434 z         1.00000
          85               436 y           436 z         1.00000
[...]
    545 y          3.920675      3.920159    -0.000516    Cartesian   -0.01
    545 z         15.682702     15.679371    -0.003331    Cartesian   -0.02
    546 x          3.920675      3.919245    -0.001431    Cartesian   -0.04
    546 y          3.920675      3.920077    -0.000598    Cartesian   -0.02
    546 z         15.682702     15.679351    -0.003351    Cartesian   -0.02
    547 x         15.682702     15.677427    -0.005274    Cartesian   -0.03
    547 y          3.920675      3.919190    -0.001485    Cartesian   -0.04
    547 z          7.841351      7.839072    -0.002279    Cartesian   -0.03
    548 x         -9.801689     -9.799999     0.001690    Cartesian   -0.02
    548 y          5.881013      5.880090    -0.000923    Cartesian   -0.02
    548 z          9.801689      9.800164    -0.001525    Cartesian   -0.02
    549 x         13.722364     13.719905    -0.002459    Cartesian   -0.02
    549 y          5.881013      5.880044    -0.000969    Cartesian   -0.02
    549 z          9.801689      9.800171    -0.001518    Cartesian   -0.02
    550 x         -3.920675     -3.919697     0.000979    Cartesian   -0.02
    550 y          0.000000      0.000000     0.000000    Cartesian    0.00
    550 z         15.682702     15.679056    -0.003646    Cartesian   -0.02
    551 x          0.000000     -0.000397    -0.000397    Cartesian    0.00
    551 y         11.762026     11.757614    -0.004413    Cartesian   -0.04
    551 z         11.762026     11.757614    -0.004413    Cartesian   -0.04
    552 x          3.920675      3.919065    -0.001610    Cartesian   -0.04
    552 y         11.762026     11.757608    -0.004419    Cartesian   -0.04
    552 z         11.762026     11.757608    -0.004419    Cartesian   -0.04
    553 x          7.841351      7.838328    -0.003023    Cartesian   -0.04
    553 y          0.000000      0.000000     0.000000    Cartesian    0.00
    553 z         15.682702     15.679117    -0.003585    Cartesian   -0.02
    554 x        -13.722364    -13.721333     0.001031    Cartesian   -0.01
    554 y         -1.960338     -1.960185     0.000153    Cartesian   -0.01
    554 z          5.881013      5.880398    -0.000616    Cartesian   -0.01
    555 x         -5.881013     -5.881196    -0.000183    Cartesian    0.00
    555 y          5.881013      5.881046     0.000033    Cartesian    0.00
    555 z         13.722364     13.721931    -0.000433    Cartesian   -0.00
    556 x          1.960338      1.960014    -0.000324    Cartesian   -0.02
    556 y          9.801689      9.800343    -0.001345    Cartesian   -0.01
    556 z         13.722364     13.721096    -0.001269    Cartesian   -0.01
    557 x          9.801689      9.800793    -0.000896    Cartesian   -0.01
    557 y          5.881013      5.880769    -0.000244    Cartesian   -0.00
    557 z         13.722364     13.721403    -0.000961    Cartesian   -0.01
    558 x         17.643040     17.641190    -0.001849    Cartesian   -0.01
    558 y         -1.960338     -1.960163     0.000175    Cartesian   -0.01
    558 z          5.881013      5.880269    -0.000744    Cartesian   -0.01
    559 x         -7.841351     -7.839357     0.001994    Cartesian   -0.03
    559 y          7.841351      7.839092    -0.002259    Cartesian   -0.03
    559 z         11.762026     11.758698    -0.003328    Cartesian   -0.03
    560 x         -3.920675     -3.920362     0.000313    Cartesian   -0.01
    560 y          3.920675      3.920406    -0.000269    Cartesian   -0.01
    560 z         15.682702     15.679197    -0.003505    Cartesian   -0.02
    561 x          7.841351      7.839169    -0.002182    Cartesian   -0.03
    561 y          3.920675      3.920379    -0.000296    Cartesian   -0.01
    561 z         15.682702     15.679364    -0.003338    Cartesian   -0.02
    562 x         11.762026     11.758221    -0.003806    Cartesian   -0.03
    562 y          7.841351      7.839372    -0.001979    Cartesian   -0.03
    562 z         11.762026     11.759180    -0.002846    Cartesian   -0.02
    563 x         -1.960338     -1.960980    -0.000642    Cartesian    0.03
    563 y          9.801689      9.801126    -0.000562    Cartesian   -0.01
    563 z         13.722364     13.721650    -0.000714    Cartesian   -0.01
    564 x          5.881013      5.880971    -0.000043    Cartesian   -0.00
    564 y          9.801689      9.800820    -0.000869    Cartesian   -0.01
    564 z         13.722364     13.721360    -0.001005    Cartesian   -0.01
    565 x        -15.682702    -15.676860     0.005842    Cartesian   -0.04
    565 y          0.000000      0.000000     0.000000    Cartesian    0.00
    565 z          0.000000      0.000000     0.000000    Cartesian    0.00
    566 x        -11.762026    -11.758648     0.003379    Cartesian   -0.03
    566 y          7.841351      7.839116    -0.002235    Cartesian   -0.03
    566 z          7.841351      7.839116    -0.002235    Cartesian   -0.03
    567 x         -3.920675     -3.920690    -0.000014    Cartesian    0.00
    567 y         11.762026     11.759144    -0.002883    Cartesian   -0.02
    567 z         11.762026     11.759144    -0.002883    Cartesian   -0.02
    568 x          0.000000     -0.000504    -0.000504    Cartesian    0.00
    568 y          7.841351      7.840325    -0.001026    Cartesian   -0.01
    568 z         15.682702     15.680020    -0.002682    Cartesian   -0.02
    569 x          3.920675      3.919527    -0.001148    Cartesian   -0.03
    569 y          7.841351      7.840280    -0.001071    Cartesian   -0.01
    569 z         15.682702     15.680016    -0.002686    Cartesian   -0.02
    570 x          7.841351      7.839400    -0.001951    Cartesian   -0.02
    570 y         11.762026     11.759135    -0.002891    Cartesian   -0.02
    570 z         11.762026     11.759135    -0.002891    Cartesian   -0.02
    571 x         15.682702     15.678740    -0.003962    Cartesian   -0.03
    571 y          7.841351      7.839834    -0.001517    Cartesian   -0.02
    571 z          7.841351      7.839834    -0.001517    Cartesian   -0.02
    572 x         19.603377     19.597700    -0.005677    Cartesian   -0.03
    572 y          0.000000      0.000000     0.000000    Cartesian    0.00
    572 z          0.000000      0.000000     0.000000    Cartesian    0.00
    573 x        -13.722364    -13.721399     0.000965    Cartesian   -0.01
    573 y          5.881013      5.880886    -0.000128    Cartesian   -0.00
    573 z          5.881013      5.880886    -0.000128    Cartesian   -0.00
    574 x          1.960338      1.960149    -0.000189    Cartesian   -0.01
    574 y         -1.960338     -1.961281    -0.000943    Cartesian    0.05
    574 z         17.643040     17.642733    -0.000307    Cartesian   -0.00
    575 x         17.643040     17.641467    -0.001573    Cartesian   -0.01
    575 y          5.881013      5.880859    -0.000155    Cartesian   -0.00
    575 z          5.881013      5.880859    -0.000155    Cartesian   -0.00
    576 x        -15.682702    -15.678815     0.003887    Cartesian   -0.02
    576 y          0.000000      0.000000     0.000000    Cartesian    0.00
    576 z          3.920675      3.920849     0.000174    Cartesian    0.00
    577 x        -11.762026    -11.759688     0.002338    Cartesian   -0.02
    577 y          0.000000      0.000000     0.000000    Cartesian    0.00
    577 z         11.762026     11.759606    -0.002421    Cartesian   -0.02
    578 x         15.682702     15.679404    -0.003298    Cartesian   -0.02
    578 y          0.000000      0.000000     0.000000    Cartesian    0.00
    578 z         11.762026     11.760351    -0.001675    Cartesian   -0.01
    579 x         19.603377     19.599433    -0.003944    Cartesian   -0.02
    579 y          0.000000      0.000000     0.000000    Cartesian    0.00
    579 z          3.920675      3.921065     0.000390    Cartesian    0.01
    580 x         -9.801689     -9.802238    -0.000550    Cartesian    0.01
    580 y         -1.960338     -1.960262     0.000076    Cartesian   -0.00
    580 z         13.722364     13.722739     0.000375    Cartesian    0.00
    581 x         -9.801689     -9.801034     0.000654    Cartesian   -0.01
    581 y          9.801689      9.801132    -0.000556    Cartesian   -0.01
    581 z          9.801689      9.801132    -0.000556    Cartesian   -0.01
    582 x         -1.960338     -1.960640    -0.000302    Cartesian    0.02
    582 y         17.643040     17.642244    -0.000796    Cartesian   -0.00
    582 z         -1.960338     -1.960707    -0.000369    Cartesian    0.02
    583 x          5.881013      5.880832    -0.000182    Cartesian   -0.00
    583 y         17.643040     17.642116    -0.000924    Cartesian   -0.01
    583 z         -1.960338     -1.960581    -0.000244    Cartesian    0.01
    584 x         13.722364     13.722033    -0.000332    Cartesian   -0.00
    584 y         13.722364     13.722347    -0.000018    Cartesian   -0.00
    584 z         -1.960338     -1.960176     0.000162    Cartesian   -0.01
    585 x         13.722364     13.721260    -0.001104    Cartesian   -0.01
    585 y          9.801689      9.801224    -0.000464    Cartesian   -0.00
    585 z          9.801689      9.801224    -0.000464    Cartesian   -0.00
    586 x        -15.682702    -15.679032     0.003670    Cartesian   -0.02
    586 y          3.920675      3.919989    -0.000686    Cartesian   -0.02
    586 z          3.920675      3.919989    -0.000686    Cartesian   -0.02
    587 x        -11.762026    -11.759505     0.002522    Cartesian   -0.02
    587 y          3.920675      3.919948    -0.000727    Cartesian   -0.02
    587 z         11.762026     11.759567    -0.002460    Cartesian   -0.02
    588 x         -7.841351     -7.840620     0.000731    Cartesian   -0.01
    588 y          0.000000      0.000000     0.000000    Cartesian    0.00
    588 z         15.682702     15.679544    -0.003158    Cartesian   -0.02
    589 x         -3.920675     -3.920663     0.000013    Cartesian   -0.00
    589 y          7.841351      7.840156    -0.001195    Cartesian   -0.02
    589 z         15.682702     15.679501    -0.003201    Cartesian   -0.02
    590 x          7.841351      7.839927    -0.001424    Cartesian   -0.02
    590 y          7.841351      7.840088    -0.001263    Cartesian   -0.02
    590 z         15.682702     15.679770    -0.002932    Cartesian   -0.02
    591 x         11.762026     11.759833    -0.002194    Cartesian   -0.02
    591 y          0.000000      0.000000     0.000000    Cartesian    0.00
    591 z         15.682702     15.679890    -0.002812    Cartesian   -0.02
    592 x         15.682702     15.679271    -0.003431    Cartesian   -0.02
    592 y          3.920675      3.920005    -0.000670    Cartesian   -0.02
    592 z         11.762026     11.760244    -0.001782    Cartesian   -0.02
    593 x         19.603377     19.599605    -0.003773    Cartesian   -0.02
    593 y          3.920675      3.920251    -0.000425    Cartesian   -0.01
    593 z          3.920675      3.920251    -0.000425    Cartesian   -0.01
    594 x        -13.722364    -13.721555     0.000809    Cartesian   -0.01
    594 y          9.801689      9.801658    -0.000031    Cartesian   -0.00
    594 z         -1.960338     -1.960130     0.000208    Cartesian   -0.01
    595 x         -5.881013     -5.881075    -0.000062    Cartesian    0.00
    595 y          9.801689      9.801412    -0.000277    Cartesian   -0.00
    595 z         13.722364     13.721968    -0.000396    Cartesian   -0.00
    596 x          1.960338      1.960173    -0.000164    Cartesian   -0.01
    596 y         17.643040     17.642341    -0.000699    Cartesian   -0.00
    596 z          5.881013      5.881172     0.000159    Cartesian    0.00
    597 x          9.801689      9.801096    -0.000592    Cartesian   -0.01
    597 y          9.801689      9.801089    -0.000600    Cartesian   -0.01
    597 z         13.722364     13.721732    -0.000632    Cartesian   -0.00
    598 x         17.643040     17.641765    -0.001275    Cartesian   -0.01
    598 y          9.801689      9.801657    -0.000032    Cartesian   -0.00
    598 z         -1.960338     -1.960124     0.000213    Cartesian   -0.01
    599 x         -7.841351     -7.840163     0.001188    Cartesian   -0.02
    599 y          3.920675      3.920002    -0.000674    Cartesian   -0.02
    599 z         15.682702     15.679092    -0.003610    Cartesian   -0.02
    600 x         11.762026     11.759454    -0.002572    Cartesian   -0.02
    600 y          3.920675      3.919966    -0.000710    Cartesian   -0.02
    600 z         15.682702     15.679478    -0.003224    Cartesian   -0.02
    601 x         -9.801689     -9.800723     0.000966    Cartesian   -0.01
    601 y          5.881013      5.880615    -0.000398    Cartesian   -0.01
    601 z         13.722364     13.721331    -0.001033    Cartesian   -0.01
    602 x         -1.960338     -1.960475    -0.000138    Cartesian    0.01
    602 y          5.881013      5.881121     0.000107    Cartesian    0.00
    602 z         17.643040     17.642500    -0.000540    Cartesian   -0.00
    603 x          5.881013      5.880813    -0.000200    Cartesian   -0.00
    603 y         17.643040     17.642355    -0.000684    Cartesian   -0.00
    603 z          5.881013      5.881016     0.000003    Cartesian    0.00
    604 x         13.722364     13.720937    -0.001427    Cartesian   -0.01
    604 y         13.722364     13.721255    -0.001109    Cartesian   -0.01
    604 z          5.881013      5.880467    -0.000546    Cartesian   -0.01
    605 x        -15.682702    -15.677922     0.004780    Cartesian   -0.03
    605 y          0.000000      0.000000     0.000000    Cartesian    0.00
    605 z          7.841351      7.839307    -0.002044    Cartesian   -0.03
    606 x         -7.841351     -7.839945     0.001406    Cartesian   -0.02
    606 y         11.762026     11.759224    -0.002803    Cartesian   -0.02
    606 z         11.762026     11.759224    -0.002803    Cartesian   -0.02
    607 x         11.762026     11.759245    -0.002782    Cartesian   -0.02
    607 y         11.762026     11.759415    -0.002611    Cartesian   -0.02
    607 z         11.762026     11.759415    -0.002611    Cartesian   -0.02
    608 x         19.603377     19.598526    -0.004851    Cartesian   -0.02
    608 y          0.000000      0.000000     0.000000    Cartesian    0.00
    608 z          7.841351      7.839643    -0.001708    Cartesian   -0.02
    609 x        -13.722364    -13.720354     0.002010    Cartesian   -0.01
    609 y          9.801689      9.800228    -0.001460    Cartesian   -0.01
    609 z          5.881013      5.879942    -0.001071    Cartesian   -0.02
    610 x         -5.881013     -5.880321     0.000693    Cartesian   -0.01
    610 y         -1.960338     -1.960308     0.000030    Cartesian   -0.00
    610 z         17.643040     17.641546    -0.001494    Cartesian   -0.01
    611 x          1.960338      1.960089    -0.000248    Cartesian   -0.01
    611 y         13.722364     13.720969    -0.001396    Cartesian   -0.01
    611 z         13.722364     13.720969    -0.001396    Cartesian   -0.01
    612 x          9.801689      9.800654    -0.001035    Cartesian   -0.01
    612 y         -1.960338     -1.960288     0.000050    Cartesian   -0.00
    612 z         17.643040     17.641431    -0.001609    Cartesian   -0.01
    613 x         17.643040     17.640767    -0.002272    Cartesian   -0.01
    613 y          9.801689      9.800480    -0.001209    Cartesian   -0.01
    613 z          5.881013      5.880103    -0.000911    Cartesian   -0.02
    614 x        -15.682702    -15.677481     0.005221    Cartesian   -0.03
    614 y          3.920675      3.919320    -0.001356    Cartesian   -0.03
    614 z          7.841351      7.838958    -0.002393    Cartesian   -0.03
    615 x        -11.762026    -11.758188     0.003838    Cartesian   -0.03
    615 y          7.841351      7.838991    -0.002360    Cartesian   -0.03
    615 z         11.762026     11.758324    -0.003702    Cartesian   -0.03
    616 x          0.000000      0.000221     0.000221    Cartesian    0.00
    616 y         11.762026     11.758750    -0.003277    Cartesian   -0.03
    616 z         15.682702     15.678092    -0.004610    Cartesian   -0.03
    617 x          0.000000      0.000115     0.000115    Cartesian    0.00
    617 y          0.000000      0.000000     0.000000    Cartesian    0.00
    617 z         19.603377     19.597011    -0.006366    Cartesian   -0.03
    618 x          3.920675      3.919457    -0.001218    Cartesian   -0.03
    618 y         11.762026     11.758773    -0.003254    Cartesian   -0.03
    618 z         15.682702     15.678100    -0.004602    Cartesian   -0.03
    619 x          3.920675      3.919611    -0.001064    Cartesian   -0.03
    619 y          0.000000      0.000000     0.000000    Cartesian    0.00
    619 z         19.603377     19.597273    -0.006104    Cartesian   -0.03
    620 x         15.682702     15.678316    -0.004386    Cartesian   -0.03
    620 y          7.841351      7.839318    -0.002033    Cartesian   -0.03
    620 z         11.762026     11.758953    -0.003074    Cartesian   -0.03
    621 x         19.603377     19.598067    -0.005311    Cartesian   -0.03
    621 y          3.920675      3.919522    -0.001153    Cartesian   -0.03
    621 z          7.841351      7.839359    -0.001992    Cartesian   -0.03
    622 x        -17.643040    -17.640370     0.002670    Cartesian   -0.02
    622 y         -1.960338     -1.959697     0.000641    Cartesian   -0.03
    622 z         -1.960338     -1.959697     0.000641    Cartesian   -0.03
    623 x         -1.960338     -1.959567     0.000771    Cartesian   -0.04
    623 y         13.722364     13.720304    -0.002061    Cartesian   -0.02
    623 z         13.722364     13.720304    -0.002061    Cartesian   -0.02
    624 x          5.881013      5.879851    -0.001163    Cartesian   -0.02
    624 y         13.722364     13.720281    -0.002083    Cartesian   -0.02
    624 z         13.722364     13.720281    -0.002083    Cartesian   -0.02
    625 x         21.563715     21.560974    -0.002741    Cartesian   -0.01
    625 y         -1.960338     -1.959791     0.000547    Cartesian   -0.03
    625 z         -1.960338     -1.959791     0.000547    Cartesian   -0.03
--------------------------------------------------------------------------------


  Time to end of optimisation  =       80.3583 seconds


  Peak dynamic memory used =    1728.19 MB 


  Timing analysis for GULP :

--------------------------------------------------------------------------------
  Task / Subroutine                                          Time (Seconds)
--------------------------------------------------------------------------------
  Calculation of reciprocal space energy and derivatives          0.0002
  Calculation of reciprocal space energy using symmetry           0.0002
  Calculation of real space energy and derivatives                0.0014
  Calculation of real space energy using symmetry                 0.0030
  Calculation for region 1 energy and derivatives (2-b)          41.3258
  Calculation for region 2a energy                               10.1326
  Calculation for region 2b energy                                0.0019
  Calculation and manipulation of Hessian matrix                 25.9663
  Calculation of matrix inversion                                 2.0861
  Symmetry generation of equivalent positions                     0.0015
--------------------------------------------------------------------------------
  Total CPU time                                                 80.3584
--------------------------------------------------------------------------------


  Dump file written as Li3OCl.grs


  Job Finished at 17:50.15 20th October    2020                               

