********************************************************************************
*                       GENERAL UTILITY LATTICE PROGRAM                        *
*                                 Julian Gale                                  *
*                       Curtin Institute for Computation                       *
*                    School of Molecular and Life Sciences                     *
*                    Curtin University, Western Australia                      *
********************************************************************************
* Version = 5.2.0 * Last modified =  10th September 2020                       *
********************************************************************************
*  optimise     - perform optimisation run                                     *
*  conp         - constant pressure calculation                                *
*  property     - calculate properties for final geometry                      *
*  defect       - perform defect calculation after bulk run                    *
*  compare      - compare initial and final structures                         *
********************************************************************************

  Job Started  at 17:51.41 20th October    2020                               

  Number of CPUs =     1


  Total number of configurations input =      1

********************************************************************************
*  Input for Configuration =   1                                               *
********************************************************************************

  Formula = ClOLi3                                                      

  Number of irreducible atoms/shells =       5


  Total number atoms/shells =       7

  Dimensionality = 3               :  Bulk   


  Symmetry :

  Crystal family                   :  Cubic       
  Crystal class  (Groth - 1921)    :  Cubic Hexakisoctahedral              

  Space group (centrosymmetric)    :  P M 3 M         

  Patterson group                  :  P m -3 m 

  Cartesian lattice vectors (Angstroms) :

        3.918873    0.000000    0.000000
        0.000000    3.918873    0.000000
        0.000000    0.000000    3.918873

  Cell parameters (Angstroms/Degrees):

  a =       3.9189    alpha =  90.0000
  b =       3.9189    beta  =  90.0000
  c =       3.9189    gamma =  90.0000

  Initial cell volume =          60.184349 Angs**3

  Temperature of configuration =   0.00     K 

  Pressure of configuration =         0.000 GPa 

  Fractional coordinates of asymmetric unit :

--------------------------------------------------------------------------------
   No.  Atomic       x           y          z         Charge      Occupancy
        Label      (Frac)      (Frac)     (Frac)        (e)         (Frac)  
--------------------------------------------------------------------------------
      1 Cl    c    0.000000    0.000000    0.000000     1.48500    1.000000    
      2 O     c    0.500000    0.500000    0.500000     0.18300    1.000000    
      3 Li    c    0.500000    0.500000    0.000000     1.00000    1.000000    
      4 Cl    s    0.000000    0.000000    0.000000    -2.48500    1.000000    
      5 O     s    0.500000    0.500000    0.500000    -2.18300    1.000000    
--------------------------------------------------------------------------------


  Constraints : 

--------------------------------------------------------------------------------
  Constraint no.      Unconstrained     Constrained    Coefficient    Offset
                         Variable         Variable
--------------------------------------------------------------------------------
           1              Strain 1        Strain 2       1.00000      0.0000
           2              Strain 1        Strain 3       1.00000      0.0000
--------------------------------------------------------------------------------


********************************************************************************
*  General input information                                                   *
********************************************************************************

  Species output for all configurations : 

--------------------------------------------------------------------------------
  Species    Type    Atomic    Atomic    Charge       Radii (Angs)     Library
                     Number     Mass       (e)     Cova   Ionic  VDW   Symbol
--------------------------------------------------------------------------------
    Li       Core        3       6.94   1.000000   0.680  0.000  1.800          
    O        Core        8      16.00   0.183000   0.730  0.000  1.360          
    O        Shell       8       0.00  -2.183000   0.730  0.000  1.360          
    Cl       Core       17      35.45   1.485000   0.990  0.000  1.650          
    Cl       Shell      17       0.00  -2.485000   0.990  0.000  1.650          
--------------------------------------------------------------------------------


  Lattice summation method               =    Ewald          (3-D)
                                         =    Parry          (2-D)
                                         =    Saunders et al (1-D)
  Accuracy factor for lattice sums       =   12.000


  Analytic derivatives to be used

  Time limit = Infinity

  Maximum range for interatomic potentials =    100000.000000 Angstroms

  General interatomic potentials :

--------------------------------------------------------------------------------
Atom  Types   Potential      Parameter       Value         Units   Cutoffs(Ang)
  1     2                                                            Min /  Max 
--------------------------------------------------------------------------------
O    c O    s Spring (c-s)  Spring k 2       593.72000    eV*Ang^-2 0.000  0.800
                            Spring k 4       0.0000000    eV*Ang^-4 
--------------------------------------------------------------------------------
Cl   c Cl   s Spring (c-s)  Spring k 2       29.380000    eV*Ang^-2 0.000  0.800
                            Spring k 4       0.0000000    eV*Ang^-4 
--------------------------------------------------------------------------------
Li   c Li   c Buckingham    Buckingham A     360.53000    eV        0.000 12.000
                            Buckingham rho  0.16100000    Ang       
                            Buckingham C     0.0000000    eV*Ang^6  
--------------------------------------------------------------------------------
Li   c O    s Buckingham    Buckingham A     292.30000    eV        0.000 12.000
                            Buckingham rho  0.34720000    Ang       
                            Buckingham C     0.0000000    eV*Ang^6  
--------------------------------------------------------------------------------
Li   c Cl   s Buckingham    Buckingham A     421.04000    eV        0.000 12.000
                            Buckingham rho  0.33400000    Ang       
                            Buckingham C     0.0000000    eV*Ang^6  
--------------------------------------------------------------------------------
O    s O    s Buckingham    Buckingham A     22764.300    eV        0.000 12.000
                            Buckingham rho  0.14900000    Ang       
                            Buckingham C     13.190000    eV*Ang^6  
--------------------------------------------------------------------------------
O    s Cl   s Buckingham    Buckingham A     8286.9100    eV        0.000 12.000
                            Buckingham rho  0.25900000    Ang       
                            Buckingham C     62.200000    eV*Ang^6  
--------------------------------------------------------------------------------
Cl   s Cl   s Buckingham    Buckingham A     1227.2000    eV        0.000 12.000
                            Buckingham rho  0.32100000    Ang       
                            Buckingham C     14.530000    eV*Ang^6  
--------------------------------------------------------------------------------

********************************************************************************
*  Output for configuration   1                                                *
********************************************************************************


  Components of energy : 

--------------------------------------------------------------------------------
  Interatomic potentials     =           7.26836263 eV    
  Monopole - monopole (real) =         -11.53475722 eV    
  Monopole - monopole (recip)=         -33.94580548 eV    
  Monopole - monopole (total)=         -45.48056271 eV    
--------------------------------------------------------------------------------
  Total lattice energy       =         -38.21220008 eV    
--------------------------------------------------------------------------------
  Total lattice energy       =           -3686.8932 kJ/(mole unit cells)
--------------------------------------------------------------------------------


  Number of variables =        1

  Maximum number of calculations  =          1000
  Maximum Hessian update interval =            10
  Maximum step size               =   1.000000000
  Maximum parameter tolerance     =   0.000010000
  Maximum function  tolerance     =   0.000010000
  Maximum gradient  tolerance     =   0.001000000
  Maximum gradient  component     =   0.010000000

  Symmetry constrained optimisation

  Symmetry used for second derivatives

  Cell parameters to be optimised using strains

  Newton-Raphson optimiser to be used

  BFGS hessian update to be used

  Lower half triangular hessian to be used

  Start of bulk optimisation :

  Cycle:      0 Energy:       -38.212200  Gnorm:      0.095699  CPU:    0.005
  ** Hessian calculated **
  Cycle:      1 Energy:       -38.212222  Gnorm:      0.000105  CPU:    0.007


  **** Optimisation achieved ****


  Final energy =     -38.21222207 eV
  Final Gnorm  =       0.00000016

  Components of energy : 

--------------------------------------------------------------------------------
  Interatomic potentials     =           7.24743141 eV    
  Monopole - monopole (real) =         -11.52945423 eV    
  Monopole - monopole (recip)=         -33.93019924 eV    
  Monopole - monopole (total)=         -45.45965348 eV    
--------------------------------------------------------------------------------
  Total lattice energy       =         -38.21222207 eV    
--------------------------------------------------------------------------------
  Total lattice energy       =           -3686.8953 kJ/(mole unit cells)
--------------------------------------------------------------------------------

  Final asymmetric unit coordinates :

--------------------------------------------------------------------------------
   No.  Atomic        x           y           z         Radius
        Label       (Frac)      (Frac)      (Frac)       (Angs) 
--------------------------------------------------------------------------------
     1  Cl    c     0.000000    0.000000    0.000000    0.000000
     2  O     c     0.500000    0.500000    0.500000    0.000000
     3  Li    c     0.500000    0.500000    0.000000    0.000000
     4  Cl    s     0.000000    0.000000    0.000000    0.000000
     5  O     s     0.500000    0.500000    0.500000    0.000000
--------------------------------------------------------------------------------

  Final Cartesian lattice vectors (Angstroms) :

        3.920675    0.000000    0.000000
        0.000000    3.920675    0.000000
        0.000000    0.000000    3.920675


  Final cell parameters and derivatives :

--------------------------------------------------------------------------------
       a            3.920675 Angstrom     dE/de1(xx)    -0.000000 eV/strain
       b            3.920675 Angstrom     dE/de2(yy)     0.000000 eV/strain
       c            3.920675 Angstrom     dE/de3(zz)     0.000000 eV/strain
       alpha       90.000000 Degrees      dE/de4(yz)     0.000000 eV/strain
       beta        90.000000 Degrees      dE/de5(xz)     0.000000 eV/strain
       gamma       90.000000 Degrees      dE/de6(xy)     0.000000 eV/strain
--------------------------------------------------------------------------------

  Primitive cell volume =            60.267433 Angs**3

  Density of cell =      1.991276 g/cm**3

  Non-primitive cell volume =            60.267433 Angs**3


  Final internal derivatives :

--------------------------------------------------------------------------------
   No.  Atomic          a             b             c           Radius
        Label          (eV)          (eV)          (eV)        (eV/Angs)
--------------------------------------------------------------------------------
      1 Cl    c       0.000000      0.000000      0.000000      0.000000
      2 O     c       0.000000      0.000000      0.000000      0.000000
      3 Li    c       0.000000      0.000000      0.000000      0.000000
      4 Cl    s       0.000000      0.000000      0.000000      0.000000
      5 O     s       0.000000      0.000000      0.000000      0.000000
--------------------------------------------------------------------------------
  Maximum abs         0.000000      0.000000      0.000000      0.000000
--------------------------------------------------------------------------------

  Comparison of initial and final structures : 

--------------------------------------------------------------------------------
  Parameter   Initial value   Final value   Difference    Units      Percent
--------------------------------------------------------------------------------
    Volume        60.184349     60.267433     0.083084    Angs**3      0.14
    a              3.918873      3.920675     0.001802    Angstroms    0.05
    b              3.918873      3.920675     0.001802    Angstroms    0.05
    c              3.918873      3.920675     0.001802    Angstroms    0.05
    alpha         90.000000     90.000000     0.000000    Degrees      0.00
    beta          90.000000     90.000000     0.000000    Degrees      0.00
    gamma         90.000000     90.000000     0.000000    Degrees      0.00
      1 x          0.000000      0.000000     0.000000    Fractional   0.00
      1 y          0.000000      0.000000     0.000000    Fractional   0.00
      1 z          0.000000      0.000000     0.000000    Fractional   0.00
      2 x          0.500000      0.500000     0.000000    Fractional   0.00
      2 y          0.500000      0.500000     0.000000    Fractional   0.00
      2 z          0.500000      0.500000     0.000000    Fractional   0.00
      3 x          0.500000      0.500000     0.000000    Fractional   0.00
      3 y          0.500000      0.500000     0.000000    Fractional   0.00
      3 z          0.000000      0.000000     0.000000    Fractional   0.00
      4 x          0.000000      0.000000     0.000000    Fractional   0.00
      4 y          0.000000      0.000000     0.000000    Fractional   0.00
      4 z          0.000000      0.000000     0.000000    Fractional   0.00
      5 x          0.500000      0.500000     0.000000    Fractional   0.00
      5 y          0.500000      0.500000     0.000000    Fractional   0.00
      5 z          0.500000      0.500000     0.000000    Fractional   0.00
--------------------------------------------------------------------------------


  Born effective charge tensors : 

-------------------------------------------------------------------------------
  Atom             x           y             z
-------------------------------------------------------------------------------
    1 Cl    x      -0.9489     -0.0000     -0.0000
            y      -0.0000     -0.9489     -0.0000
            z      -0.0000     -0.0000     -0.9489
-------------------------------------------------------------------------------
    2 O     x      -2.4688      0.0000      0.0000
            y       0.0000     -2.4688      0.0000
            z       0.0000      0.0000     -2.4688
-------------------------------------------------------------------------------
    3 Li    x       1.3129      0.0000     -0.0000
            y       0.0000      1.3129      0.0000
            z      -0.0000      0.0000      0.7919
-------------------------------------------------------------------------------




  Elastic Constant Matrix: (Units=GPa)

-------------------------------------------------------------------------------
  Indices      1         2         3         4         5         6    
-------------------------------------------------------------------------------
       1     94.3368   44.9178   44.9178    0.0000   -0.0000    0.0000
       2     44.9178   94.3368   44.9178   -0.0000    0.0000   -0.0000
       3     44.9178   44.9178   94.3368    0.0000   -0.0000    0.0000
       4      0.0000   -0.0000    0.0000   44.9178   -0.0000    0.0000
       5     -0.0000    0.0000   -0.0000   -0.0000   44.9178    0.0000
       6      0.0000   -0.0000    0.0000    0.0000    0.0000   44.9178
-------------------------------------------------------------------------------


  Elastic Compliance Matrix: (Units=1/GPa)

-------------------------------------------------------------------------------
  Indices      1         2         3         4         5         6    
-------------------------------------------------------------------------------
       1    0.015300 -0.004935 -0.004935 -0.000000  0.000000 -0.000000
       2   -0.004935  0.015300 -0.004935  0.000000 -0.000000  0.000000
       3   -0.004935 -0.004935  0.015300 -0.000000  0.000000 -0.000000
       4   -0.000000  0.000000 -0.000000  0.022263  0.000000 -0.000000
       5    0.000000 -0.000000  0.000000  0.000000  0.022263 -0.000000
       6   -0.000000  0.000000 -0.000000 -0.000000 -0.000000  0.022263
-------------------------------------------------------------------------------

  Mechanical properties :

-------------------------------------------------------------------------------
  Convention :                    Reuss         Voigt         Hill
-------------------------------------------------------------------------------
  Bulk  Modulus (GPa)     =      61.39080      61.39080      61.39080
  Shear Modulus (GPa)     =      33.84570      36.83448      35.34009
-------------------------------------------------------------------------------
  Velocity S-wave (km/s)  =       4.12274       4.30092       4.21277
  Velocity P-wave (km/s)  =       7.31386       7.44942       7.38195
-------------------------------------------------------------------------------
  Compressibility (1/GPa) =    0.01628909
-------------------------------------------------------------------------------
  Stress axis :                     x             y             z
-------------------------------------------------------------------------------
  Youngs Moduli (GPa)     =      65.35947      65.35947      65.35947
-------------------------------------------------------------------------------
  Poissons Ratio (x)      =                     0.32256       0.32256
  Poissons Ratio (y)      =       0.32256                     0.32256
  Poissons Ratio (z)      =       0.32256       0.32256
-------------------------------------------------------------------------------


  Piezoelectric Strain Matrix: (Units=C/m**2)

-------------------------------------------------------------------------------
  Indices      1         2         3         4         5         6    
-------------------------------------------------------------------------------
       x    -0.00000   0.00000   0.00000  -0.00000  -0.00000   0.00000
       y    -0.00000   0.00000   0.00000  -0.00000  -0.00000  -0.00000
       z     0.00000   0.00000   0.00000   0.00000  -0.00000  -0.00000
-------------------------------------------------------------------------------


  Piezoelectric Stress Matrix: (Units=10**-11 C/N)

-------------------------------------------------------------------------------
  Indices      1         2         3         4         5         6    
-------------------------------------------------------------------------------
       x    -0.00000   0.00000   0.00000  -0.00000  -0.00000   0.00000
       y    -0.00000   0.00000   0.00000  -0.00000  -0.00000  -0.00000
       z    -0.00000  -0.00000   0.00000   0.00000  -0.00000  -0.00000
-------------------------------------------------------------------------------


  Static dielectric constant tensor : 

-------------------------------------------------------------------------------
              x         y         z
-------------------------------------------------------------------------------
       x    12.11703   0.00000  -0.00000
       y     0.00000  12.11703  -0.00000
       z    -0.00000  -0.00000  12.11703
--------------------------------------------------------------------------------

  High frequency dielectric constant tensor : 

-------------------------------------------------------------------------------
              x         y         z
-------------------------------------------------------------------------------
       x     1.74104   0.00000   0.00000
       y     0.00000   1.74104   0.00000
       z     0.00000   0.00000   1.74104
-------------------------------------------------------------------------------

  Static refractive indices : 

-------------------------------------------------------------------------------
    1 =    3.48095      2 =    3.48095      3 =    3.48095
-------------------------------------------------------------------------------

  High frequency refractive indices : 

-------------------------------------------------------------------------------
    1 =    1.31948      2 =    1.31948      3 =    1.31948
-------------------------------------------------------------------------------


  Time to end of optimisation =       0.0105 seconds

********************************************************************************
*  Defect calculation for configuration   1 :                                  *
********************************************************************************

  Total number of defects =      3

  Total charge on defect  =   1.00

  Defect centre is at   2.3513   0.0000   0.0000  Angs

  Region 1 radius =  20.0000      Number of ions =   3882

  Number of symmetry inequivalent region 1 ions  =    625

  Region 2 radius =  24.0000      Number of ions =   2876

  Number of symmetry inequivalent region 2a ions =    419

  Region 2a mode = 4 : screened electrostatics due to region 1 
                       neglect correction to region 1 forces from 2a
                       region 2a displacements based on defects only

  Region 2a ions will only interact with defects in region 1

  Vacancies:

--------------------------------------------------------------------------------
    Specification type     Symbol/Number         x          y          z
--------------------------------------------------------------------------------
    Cartesian                                0.000000   0.000000   0.000000
    Cartesian                                3.918873   0.000000   0.000000
--------------------------------------------------------------------------------

  Interstitials:

--------------------------------------------------------------------------------
    Specification type     Symbol/Number         x          y          z
--------------------------------------------------------------------------------
    Atom/Fractional         Cl               2.351324   0.000000   0.000000
--------------------------------------------------------------------------------


  Symmetry reduced region 1 (Relative to defect centre) :

--------------------------------------------------------------------------------
   No.   Atomic       x            y             z       Radius  Multiplicity   
         Label      (Angs)       (Angs)        (Angs)    (Angs)     
--------------------------------------------------------------------------------
     1  Li    c     -0.3910 *    -1.9603 *     0.0000    0.0000     4          
     2  O     c     -0.3910 *    -1.9603 *    -1.9603    0.0000     4          
     3  Cl    c      2.9468       0.0000       0.0000    0.0000     1    Defect
     4  Li    c      1.5694 *    -1.9603 *    -1.9603    0.0000     4          
     5  Li    c     -2.3513 *    -1.9603 *    -1.9603    0.0000     4          
     6  Li    c      3.5297 *    -1.9603 *     0.0000    0.0000     4          
     7  Cl    c      1.5694 *     0.0000       3.9207 *  0.0000     4          
     8  Li    c     -0.3910 *    -1.9603 *     3.9207 *  0.0000     8          
     9  O     c      3.5297 *    -1.9603 *    -1.9603    0.0000     4          
    10  Cl    c     -2.3513 *     0.0000       3.9207 *  0.0000     4          
    11  Li    c     -4.3117 *    -1.9603 *     0.0000    0.0000     4          
    12  O     c     -4.3117 *    -1.9603 *    -1.9603    0.0000     4          
    13  Cl    c      5.4900 *     0.0000       0.0000    0.0000     1          
    14  Li    c      3.5297 *     3.9207 *    -1.9603 *  0.0000     8          
    15  Cl    c      1.5694 *     3.9207 *     3.9207    0.0000     4          
    16  Li    c     -0.3910 *     5.8810 *     0.0000    0.0000     4          
    17  Cl    c     -2.3513 *     3.9207 *     3.9207    0.0000     4          
    18  Li    c     -4.3117 *     3.9207 *    -1.9603 *  0.0000     8          
    19  Li    c      5.4900 *    -1.9603 *    -1.9603    0.0000     4          
    20  O     c     -0.3910 *    -1.9603 *     5.8810 *  0.0000     8          
    21  Cl    c     -6.2720 *     0.0000       0.0000    0.0000     1          
    22  Li    c      1.5694 *    -1.9603 *     5.8810 *  0.0000     8          
    23  Li    c     -2.3513 *    -1.9603 *     5.8810 *  0.0000     8          
    24  Cl    c      5.4900 *     0.0000       3.9207 *  0.0000     4          
    25  Li    c     -6.2720 *    -1.9603 *    -1.9603    0.0000     4          
    26  Li    c      3.5297 *     5.8810 *     0.0000    0.0000     4          
    27  Li    c     -0.3910 *     5.8810 *     3.9207 *  0.0000     8          
    28  O     c      3.5297 *     5.8810 *    -1.9603 *  0.0000     8          
    29  Li    c     -4.3117 *     5.8810 *     0.0000    0.0000     4          
    30  Cl    c     -6.2720 *     0.0000       3.9207 *  0.0000     4          
    31  O     c     -4.3117 *     5.8810 *    -1.9603 *  0.0000     8          
    32  Li    c      7.4504 *    -1.9603 *     0.0000    0.0000     4          
    33  Cl    c      5.4900 *     3.9207 *     3.9207    0.0000     4          
    34  Li    c      3.5297 *     5.8810 *     3.9207 *  0.0000     8          
    35  O     c      7.4504 *    -1.9603 *    -1.9603    0.0000     4          
    36  Cl    c      1.5694 *     0.0000       7.8414 *  0.0000     4          
    37  Li    c     -0.3910 *    -1.9603 *     7.8414 *  0.0000     8          
    38  Cl    c     -2.3513 *     0.0000       7.8414 *  0.0000     4          
    39  Li    c     -4.3117 *     5.8810 *     3.9207 *  0.0000     8          
    40  Li    c      5.4900 *    -1.9603 *     5.8810 *  0.0000     8          
    41  O     c     -0.3910 *     5.8810 *     5.8810    0.0000     4          
    42  Cl    c     -6.2720 *     3.9207 *     3.9207    0.0000     4          
    43  Li    c     -8.2323 *    -1.9603 *     0.0000    0.0000     4          
    44  Li    c      1.5694 *     5.8810 *     5.8810    0.0000     4          
    45  Li    c     -2.3513 *     5.8810 *     5.8810    0.0000     4          
    46  Li    c      7.4504 *    -1.9603 *     3.9207 *  0.0000     8          
    47  O     c     -8.2323 *    -1.9603 *    -1.9603    0.0000     4          
    48  Li    c     -6.2720 *    -1.9603 *     5.8810 *  0.0000     8          
    49  Li    c      3.5297 *    -1.9603 *     7.8414 *  0.0000     8          
    50  Cl    c      1.5694 *     3.9207 *     7.8414 *  0.0000     8          
    51  O     c      3.5297 *     5.8810 *     5.8810    0.0000     4          
    52  Cl    c     -2.3513 *     3.9207 *     7.8414 *  0.0000     8          
    53  Li    c     -4.3117 *    -1.9603 *     7.8414 *  0.0000     8          
    54  Li    c     -8.2323 *    -1.9603 *     3.9207 *  0.0000     8          
    55  O     c     -4.3117 *     5.8810 *     5.8810    0.0000     4          
    56  Cl    c      9.4107 *     0.0000       0.0000    0.0000     1          
    57  Li    c      7.4504 *     5.8810 *     0.0000    0.0000     4          
    58  Cl    c      5.4900 *     0.0000       7.8414 *  0.0000     4          
    59  O     c      7.4504 *    -1.9603 *     5.8810 *  0.0000     8          
    60  Li    c     -0.3910 *     5.8810 *     7.8414 *  0.0000     8          
    61  Li    c     -0.3910 *     9.8017 *     0.0000    0.0000     4          
    62  Li    c      9.4107 *    -1.9603 *    -1.9603    0.0000     4          
    63  Li    c      5.4900 *     5.8810 *     5.8810    0.0000     4          
    64  O     c     -0.3910 *    -1.9603 *     9.8017 *  0.0000     8          
    65  Cl    c     -6.2720 *     0.0000       7.8414 *  0.0000     4          
    66  Li    c     -8.2323 *     5.8810 *     0.0000    0.0000     4          
    67  Li    c      1.5694 *    -1.9603 *     9.8017 *  0.0000     8          
    68  Cl    c    -10.1927 *     0.0000       0.0000    0.0000     1          
    69  Cl    c      9.4107 *     0.0000       3.9207 *  0.0000     4          
    70  Li    c     -2.3513 *    -1.9603 *     9.8017 *  0.0000     8          
    71  Li    c      7.4504 *     3.9207 *     5.8810 *  0.0000     8          
    72  O     c     -8.2323 *    -1.9603 *     5.8810 *  0.0000     8          
    73  Cl    c      5.4900 *     3.9207 *     7.8414 *  0.0000     8          
    74  Li    c     -6.2720 *     5.8810 *     5.8810    0.0000     4          
    75  Li    c      3.5297 *     5.8810 *     7.8414 *  0.0000     8          
    76  Li    c      3.5297 *     9.8017 *     0.0000    0.0000     4          
    77  Li    c    -10.1927 *    -1.9603 *    -1.9603    0.0000     4          
    78  Li    c     -0.3910 *     9.8017 *     3.9207 *  0.0000     8          
    79  O     c      3.5297 *    -1.9603 *     9.8017 *  0.0000     8          
    80  Li    c     -4.3117 *     5.8810 *     7.8414 *  0.0000     8          
    81  Li    c     -4.3117 *     9.8017 *     0.0000    0.0000     4          
    82  Cl    c     -6.2720 *     3.9207 *     7.8414 *  0.0000     8          
    83  Li    c     -8.2323 *     5.8810 *     3.9207 *  0.0000     8          
    84  O     c     -4.3117 *    -1.9603 *     9.8017 *  0.0000     8          
    85  Cl    c    -10.1927 *     0.0000       3.9207 *  0.0000     4          
    86  Cl    c      9.4107 *     3.9207 *     3.9207    0.0000     4          
    87  Li    c      7.4504 *    -1.9603 *     7.8414 *  0.0000     8          
    88  Li    c      3.5297 *     9.8017 *     3.9207 *  0.0000     8          
    89  O     c      7.4504 *     5.8810 *     5.8810    0.0000     4          
    90  Cl    c      1.5694 *     7.8414 *     7.8414    0.0000     4          
    91  Li    c      9.4107 *    -1.9603 *     5.8810 *  0.0000     8          
    92  Cl    c     -2.3513 *     7.8414 *     7.8414    0.0000     4          
    93  Li    c     -4.3117 *     9.8017 *     3.9207 *  0.0000     8          
    94  Li    c      5.4900 *    -1.9603 *     9.8017 *  0.0000     8          
    95  O     c     -0.3910 *     5.8810 *     9.8017 *  0.0000     8          
    96  Li    c     -8.2323 *    -1.9603 *     7.8414 *  0.0000     8          
    97  Li    c      1.5694 *     5.8810 *     9.8017 *  0.0000     8          
    98  Li    c     11.3710 *    -1.9603 *     0.0000    0.0000     4          
    99  Cl    c    -10.1927 *     3.9207 *     3.9207    0.0000     4          
   100  Li    c     -2.3513 *     5.8810 *     9.8017 *  0.0000     8          
   101  O     c     -8.2323 *     5.8810 *     5.8810    0.0000     4          
   102  O     c     11.3710 *    -1.9603 *    -1.9603    0.0000     4          
   103  Li    c     -6.2720 *    -1.9603 *     9.8017 *  0.0000     8          
   104  Cl    c      1.5694 *     0.0000      11.7620 *  0.0000     4          
   105  Li    c    -10.1927 *    -1.9603 *     5.8810 *  0.0000     8          
   106  Li    c     -0.3910 *    -1.9603 *    11.7620 *  0.0000     8          
   107  O     c      3.5297 *     5.8810 *     9.8017 *  0.0000     8          
   108  Cl    c     -2.3513 *     0.0000      11.7620 *  0.0000     4          
   109  Li    c     11.3710 *    -1.9603 *     3.9207 *  0.0000     8          
   110  O     c     -4.3117 *     5.8810 *     9.8017 *  0.0000     8          
   111  Cl    c      9.4107 *     0.0000       7.8414 *  0.0000     4          
   112  Li    c    -12.1530 *    -1.9603 *     0.0000    0.0000     4          
   113  Li    c      7.4504 *     5.8810 *     7.8414 *  0.0000     8          
   114  Li    c      7.4504 *     9.8017 *     0.0000    0.0000     4          
   115  Cl    c      5.4900 *     7.8414 *     7.8414    0.0000     4          
   116  Li    c      3.5297 *    11.7620 *    -1.9603 *  0.0000     8          
   117  O     c    -12.1530 *    -1.9603 *    -1.9603    0.0000     4          
   118  O     c      7.4504 *    -1.9603 *     9.8017 *  0.0000     8          
   119  Cl    c      1.5694 *     3.9207 *    11.7620 *  0.0000     8          
   120  Li    c     -0.3910 *     9.8017 *     7.8414 *  0.0000     8          
   121  Li    c      9.4107 *     5.8810 *     5.8810    0.0000     4          
   122  Cl    c     -2.3513 *     3.9207 *    11.7620 *  0.0000     8          
   123  Li    c     -4.3117 *    11.7620 *    -1.9603 *  0.0000     8          
   124  Li    c      5.4900 *     5.8810 *     9.8017 *  0.0000     8          
   125  Cl    c     -6.2720 *     7.8414 *     7.8414    0.0000     4          
   126  Li    c     -8.2323 *     5.8810 *     7.8414 *  0.0000     8          
   127  Li    c     -8.2323 *     9.8017 *     0.0000    0.0000     4          
   128  Li    c     11.3710 *     5.8810 *     0.0000    0.0000     4          
   129  Cl    c    -10.1927 *     0.0000       7.8414 *  0.0000     4          
   130  Cl    c      9.4107 *     3.9207 *     7.8414 *  0.0000     8          
   131  Li    c    -12.1530 *    -1.9603 *     3.9207 *  0.0000     8          
   132  Li    c      7.4504 *     9.8017 *     3.9207 *  0.0000     8          
   133  O     c     -8.2323 *     9.8017 *    -1.9603 *  0.0000     8          
   134  O     c     11.3710 *    -1.9603 *     5.8810 *  0.0000     8          
   135  Cl    c      5.4900 *     0.0000      11.7620 *  0.0000     4          
   136  Li    c     -6.2720 *     5.8810 *     9.8017 *  0.0000     8          
   137  Li    c      3.5297 *     9.8017 *     7.8414 *  0.0000     8          
   138  Li    c    -10.1927 *     5.8810 *     5.8810    0.0000     4          
   139  Li    c     -0.3910 *     5.8810 *    11.7620 *  0.0000     8          
   140  Li    c     -4.3117 *     9.8017 *     7.8414 *  0.0000     8          
   141  Cl    c     -6.2720 *     0.0000      11.7620 *  0.0000     4          
   142  Cl    c     13.3314 *     0.0000       0.0000    0.0000     1          
   143  Li    c     -8.2323 *     9.8017 *     3.9207 *  0.0000     8          
   144  Li    c     11.3710 *     5.8810 *     3.9207 *  0.0000     8          
   145  Cl    c    -10.1927 *     7.8414 *     3.9207 *  0.0000     8          
   146  Li    c    -12.1530 *     5.8810 *     0.0000    0.0000     4          
   147  Cl    c      5.4900 *     3.9207 *    11.7620 *  0.0000     8          
   148  Li    c      3.5297 *    11.7620 *     5.8810 *  0.0000     8          
   149  Li    c     13.3314 *    -1.9603 *    -1.9603    0.0000     4          
   150  O     c    -12.1530 *    -1.9603 *     5.8810 *  0.0000     8          
   151  O     c      7.4504 *     5.8810 *     9.8017 *  0.0000     8          
   152  Li    c     -0.3910 *    13.7224 *     0.0000    0.0000     4          
   153  Li    c      9.4107 *     9.8017 *    -1.9603 *  0.0000     8          
   154  Li    c     -4.3117 *    11.7620 *     5.8810 *  0.0000     8          
   155  O     c     -0.3910 *    -1.9603 *    13.7224 *  0.0000     8          
   156  O     c     -0.3910 *     9.8017 *     9.8017    0.0000     4          
   157  Cl    c     -6.2720 *     3.9207 *    11.7620 *  0.0000     8          
   158  Cl    c     13.3314 *     0.0000       3.9207 *  0.0000     4          
   159  Li    c      1.5694 *    -1.9603 *    13.7224 *  0.0000     8          
   160  Li    c      1.5694 *     9.8017 *     9.8017    0.0000     4          
   161  Li    c     11.3710 *    -1.9603 *     7.8414 *  0.0000     8          
   162  Li    c    -12.1530 *     5.8810 *     3.9207 *  0.0000     8          
   163  Li    c     -2.3513 *    -1.9603 *    13.7224 *  0.0000     8          
   164  Li    c     -2.3513 *     9.8017 *     9.8017    0.0000     4          
   165  Li    c      7.4504 *    -1.9603 *    11.7620 *  0.0000     8          
   166  O     c     -8.2323 *     9.8017 *     5.8810 *  0.0000     8          
   167  O     c     11.3710 *     5.8810 *     5.8810    0.0000     4          
   168  Cl    c    -14.1134 *     0.0000       0.0000    0.0000     1          
   169  Li    c      3.5297 *    13.7224 *     0.0000    0.0000     4          
   170  Cl    c      1.5694 *     7.8414 *    11.7620 *  0.0000     8          
   171  Li    c    -10.1927 *    -1.9603 *     9.8017 *  0.0000     8          
   172  Li    c     -0.3910 *    13.7224 *     3.9207 *  0.0000     8          
   173  O     c      3.5297 *    -1.9603 *    13.7224 *  0.0000     8          
   174  O     c      3.5297 *     9.8017 *     9.8017    0.0000     4          
   175  Cl    c     -2.3513 *     7.8414 *    11.7620 *  0.0000     8          
   176  Li    c    -14.1134 *    -1.9603 *    -1.9603    0.0000     4          
   177  Li    c     -4.3117 *    13.7224 *     0.0000    0.0000     4          
   178  Cl    c     13.3314 *     3.9207 *     3.9207    0.0000     4          
   179  Li    c     -8.2323 *    -1.9603 *    11.7620 *  0.0000     8          
   180  O     c     -4.3117 *    -1.9603 *    13.7224 *  0.0000     8          
   181  O     c     -4.3117 *     9.8017 *     9.8017    0.0000     4          
   182  Cl    c      9.4107 *     7.8414 *     7.8414    0.0000     4          
   183  Li    c    -12.1530 *    -1.9603 *     7.8414 *  0.0000     8          
   184  Li    c      7.4504 *     9.8017 *     7.8414 *  0.0000     8          
   185  Cl    c    -14.1134 *     0.0000       3.9207 *  0.0000     4          
   186  Li    c      3.5297 *    13.7224 *     3.9207 *  0.0000     8          
   187  Li    c     13.3314 *    -1.9603 *     5.8810 *  0.0000     8          
   188  O     c    -12.1530 *     5.8810 *     5.8810    0.0000     4          
   189  Li    c      9.4107 *     9.8017 *     5.8810 *  0.0000     8          
   190  Li    c     -4.3117 *    13.7224 *     3.9207 *  0.0000     8          
   191  Li    c      5.4900 *    -1.9603 *    13.7224 *  0.0000     8          
   192  Li    c      5.4900 *     9.8017 *     9.8017    0.0000     4          
   193  O     c     -0.3910 *     5.8810 *    13.7224 *  0.0000     8          
   194  Li    c     -8.2323 *     9.8017 *     7.8414 *  0.0000     8          
   195  Li    c      1.5694 *     5.8810 *    13.7224 *  0.0000     8          
   196  Li    c     11.3710 *     5.8810 *     7.8414 *  0.0000     8          
   197  Li    c     11.3710 *     9.8017 *     0.0000    0.0000     4          
   198  Cl    c    -10.1927 *     7.8414 *     7.8414    0.0000     4          
   199  Cl    c      9.4107 *     0.0000      11.7620 *  0.0000     4          
   200  Li    c     -2.3513 *     5.8810 *    13.7224 *  0.0000     8          
   201  Li    c      7.4504 *     5.8810 *    11.7620 *  0.0000     8          
   202  O     c     11.3710 *    -1.9603 *     9.8017 *  0.0000     8          
   203  Cl    c    -14.1134 *     3.9207 *     3.9207    0.0000     4          
   204  Cl    c      5.4900 *     7.8414 *    11.7620 *  0.0000     8          
   205  Li    c     -6.2720 *    -1.9603 *    13.7224 *  0.0000     8          
   206  Li    c     -6.2720 *     9.8017 *     9.8017    0.0000     4          
   207  Li    c    -10.1927 *     5.8810 *     9.8017 *  0.0000     8          
   208  Li    c     -0.3910 *     9.8017 *    11.7620 *  0.0000     8          
   209  O     c      3.5297 *     5.8810 *    13.7224 *  0.0000     8          
   210  Li    c    -14.1134 *    -1.9603 *     5.8810 *  0.0000     8          
   211  Li    c     15.2917 *    -1.9603 *     0.0000    0.0000     4          
   212  Cl    c     -6.2720 *     7.8414 *    11.7620 *  0.0000     8          
   213  Cl    c     13.3314 *     0.0000       7.8414 *  0.0000     4          
   214  Li    c     -8.2323 *     5.8810 *    11.7620 *  0.0000     8          
   215  Li    c     11.3710 *     9.8017 *     3.9207 *  0.0000     8          
   216  O     c     -4.3117 *     5.8810 *    13.7224 *  0.0000     8          
   217  O     c     15.2917 *    -1.9603 *    -1.9603    0.0000     4          
   218  Cl    c    -10.1927 *     0.0000      11.7620 *  0.0000     4          
   219  Cl    c      9.4107 *     3.9207 *    11.7620 *  0.0000     8          
   220  Li    c    -12.1530 *     5.8810 *     7.8414 *  0.0000     8          
   221  Li    c    -12.1530 *     9.8017 *     0.0000    0.0000     4          
   222  Li    c      7.4504 *    13.7224 *     0.0000    0.0000     4          
   223  Li    c      3.5297 *    11.7620 *     9.8017 *  0.0000     8          
   224  Li    c     13.3314 *     5.8810 *     5.8810    0.0000     4          
   225  O     c    -12.1530 *    -1.9603 *     9.8017 *  0.0000     8          
   226  O     c      7.4504 *    -1.9603 *    13.7224 *  0.0000     8          
   227  O     c      7.4504 *     9.8017 *     9.8017    0.0000     4          
   228  Cl    c      1.5694 *     0.0000      15.6827 *  0.0000     4          
   229  Li    c     -0.3910 *    -1.9603 *    15.6827 *  0.0000     8          
   230  Li    c     -0.3910 *    13.7224 *     7.8414 *  0.0000     8          
   231  Cl    c     -2.3513 *     0.0000      15.6827 *  0.0000     4          
   232  Li    c     -4.3117 *    11.7620 *     9.8017 *  0.0000     8          
   233  Li    c      5.4900 *     5.8810 *    13.7224 *  0.0000     8          
   234  Li    c     15.2917 *    -1.9603 *     3.9207 *  0.0000     8          
   235  Cl    c     13.3314 *     3.9207 *     7.8414 *  0.0000     8          
   236  Li    c     -8.2323 *    13.7224 *     0.0000    0.0000     4          
   237  Cl    c    -10.1927 *     3.9207 *    11.7620 *  0.0000     8          
   238  Li    c    -12.1530 *     9.8017 *     3.9207 *  0.0000     8          
   239  Li    c      7.4504 *     3.9207 *    13.7224 *  0.0000     8          
   240  O     c     -8.2323 *    13.7224 *    -1.9603 *  0.0000     8          
   241  O     c     -8.2323 *     9.8017 *     9.8017    0.0000     4          
   242  O     c     11.3710 *     5.8810 *     9.8017 *  0.0000     8          
   243  Cl    c    -14.1134 *     0.0000       7.8414 *  0.0000     4          
   244  Li    c    -16.0737 *    -1.9603 *     0.0000    0.0000     4          
   245  Li    c     -6.2720 *     5.8810 *    13.7224 *  0.0000     8          
   246  Li    c      3.5297 *    -1.9603 *    15.6827 *  0.0000     8          
   247  Li    c      3.5297 *    13.7224 *     7.8414 *  0.0000     8          
   248  Cl    c      1.5694 *     3.9207 *    15.6827 *  0.0000     8          
   249  O     c    -16.0737 *    -1.9603 *    -1.9603    0.0000     4          
   250  Cl    c     -2.3513 *     3.9207 *    15.6827 *  0.0000     8          
   251  Li    c    -14.1134 *     5.8810 *     5.8810    0.0000     4          
   252  Li    c     -4.3117 *    -1.9603 *    15.6827 *  0.0000     8          
   253  Li    c     -4.3117 *     7.8414 *    13.7224 *  0.0000     8          
   254  Li    c     15.2917 *     5.8810 *     0.0000    0.0000     4          
   255  Li    c     -8.2323 *    13.7224 *     3.9207 *  0.0000     8          
   256  Li    c     11.3710 *    -1.9603 *    11.7620 *  0.0000     8          
   257  O     c     15.2917 *    -1.9603 *     5.8810 *  0.0000     8          
   258  Cl    c    -14.1134 *     3.9207 *     7.8414 *  0.0000     8          
   259  Cl    c      5.4900 *     0.0000      15.6827 *  0.0000     4          
   260  Li    c    -16.0737 *    -1.9603 *     3.9207 *  0.0000     8          
   261  Li    c     13.3314 *     9.8017 *    -1.9603 *  0.0000     8          
   262  O     c    -12.1530 *     5.8810 *     9.8017 *  0.0000     8          
   263  O     c      7.4504 *     5.8810 *    13.7224 *  0.0000     8          
   264  Cl    c      1.5694 *    11.7620 *    11.7620    0.0000     4          
   265  Li    c     -0.3910 *     5.8810 *    15.6827 *  0.0000     8          
   266  Li    c      9.4107 *    -1.9603 *    13.7224 *  0.0000     8          
   267  Li    c      9.4107 *     9.8017 *     9.8017    0.0000     4          
   268  Cl    c     -2.3513 *    11.7620 *    11.7620    0.0000     4          
   269  Li    c     15.2917 *     3.9207 *     5.8810 *  0.0000     8          
   270  O     c     -0.3910 *     9.8017 *    13.7224 *  0.0000     8          
   271  Cl    c     -6.2720 *     0.0000      15.6827 *  0.0000     4          
   272  Li    c      1.5694 *     9.8017 *    13.7224 *  0.0000     8          
   273  Li    c     11.3710 *     9.8017 *     7.8414 *  0.0000     8          
   274  Cl    c      9.4107 *     7.8414 *    11.7620 *  0.0000     8          
   275  Li    c    -12.1530 *    -1.9603 *    11.7620 *  0.0000     8          
   276  Li    c     -2.3513 *     9.8017 *    13.7224 *  0.0000     8          
   277  Li    c      7.4504 *     9.8017 *    11.7620 *  0.0000     8          
   278  O     c     -8.2323 *    13.7224 *     5.8810 *  0.0000     8          
   279  Cl    c      5.4900 *     3.9207 *    15.6827 *  0.0000     8          
   280  Li    c    -16.0737 *     5.8810 *     0.0000    0.0000     4          
   281  Li    c      3.5297 *     5.8810 *    15.6827 *  0.0000     8          
   282  Li    c    -10.1927 *    -1.9603 *    13.7224 *  0.0000     8          
   283  Li    c    -10.1927 *     9.8017 *     9.8017    0.0000     4          
   284  O     c    -16.0737 *     5.8810 *    -1.9603 *  0.0000     8          
   285  O     c      3.5297 *     9.8017 *    13.7224 *  0.0000     8          
   286  Cl    c     17.2521 *     0.0000       0.0000    0.0000     1          
   287  Li    c    -14.1134 *    -1.9603 *     9.8017 *  0.0000     8          
   288  Li    c     -4.3117 *     5.8810 *    15.6827 *  0.0000     8          
   289  Li    c     15.2917 *    -1.9603 *     7.8414 *  0.0000     8          
   290  Cl    c     -6.2720 *     3.9207 *    15.6827 *  0.0000     8          
   291  Cl    c     13.3314 *     7.8414 *     7.8414    0.0000     4          
   292  Li    c     -8.2323 *     9.8017 *    11.7620 *  0.0000     8          
   293  Li    c     11.3710 *     5.8810 *    11.7620 *  0.0000     8          
   294  O     c     -4.3117 *     9.8017 *    13.7224 *  0.0000     8          
   295  O     c     15.2917 *     5.8810 *     5.8810    0.0000     4          
   296  Cl    c    -10.1927 *     7.8414 *    11.7620 *  0.0000     8          
   297  Li    c    -12.1530 *     9.8017 *     7.8414 *  0.0000     8          
   298  Li    c      7.4504 *    -1.9603 *    15.6827 *  0.0000     8          
   299  Li    c      7.4504 *     7.8414 *    13.7224 *  0.0000     8          
   300  Li    c     17.2521 *    -1.9603 *    -1.9603    0.0000     4          
   301  Cl    c      5.4900 *    11.7620 *    11.7620    0.0000     4          
   302  Li    c    -16.0737 *     5.8810 *     3.9207 *  0.0000     8          
   303  Li    c     13.3314 *     9.8017 *     5.8810 *  0.0000     8          
   304  Cl    c      1.5694 *     7.8414 *    15.6827 *  0.0000     8          
   305  Li    c     -0.3910 *    17.6430 *     0.0000    0.0000     4          
   306  Li    c      9.4107 *     5.8810 *    13.7224 *  0.0000     8          
   307  Cl    c     -2.3513 *     7.8414 *    15.6827 *  0.0000     8          
   308  Cl    c     17.2521 *     0.0000       3.9207 *  0.0000     4          
   309  Li    c      5.4900 *     9.8017 *    13.7224 *  0.0000     8          
   310  O     c     -0.3910 *    -1.9603 *    17.6430 *  0.0000     8          
   311  Cl    c     -6.2720 *    11.7620 *    11.7620    0.0000     4          
   312  Cl    c     13.3314 *     0.0000      11.7620 *  0.0000     4          
   313  Li    c     -8.2323 *    -1.9603 *    15.6827 *  0.0000     8          
   314  Li    c     -8.2323 *    13.7224 *     7.8414 *  0.0000     8          
   315  Li    c      1.5694 *    -1.9603 *    17.6430 *  0.0000     8          
   316  Li    c     11.3710 *    13.7224 *     0.0000    0.0000     4          
   317  Li    c    -12.1530 *     5.8810 *    11.7620 *  0.0000     8          
   318  Li    c     -2.3513 *    17.6430 *    -1.9603 *  0.0000     8          
   319  O     c     11.3710 *    -1.9603 *    13.7224 *  0.0000     8          
   320  O     c     11.3710 *     9.8017 *     9.8017    0.0000     4          
   321  Cl    c    -14.1134 *     7.8414 *     7.8414    0.0000     4          
   322  Li    c    -16.0737 *    -1.9603 *     7.8414 *  0.0000     8          
   323  Li    c     -6.2720 *     9.8017 *    13.7224 *  0.0000     8          
   324  Li    c      3.5297 *    17.6430 *     0.0000    0.0000     4          
   325  Cl    c    -18.0340 *     0.0000       0.0000    0.0000     1          
   326  Li    c    -10.1927 *     5.8810 *    13.7224 *  0.0000     8          
   327  Li    c     -0.3910 *    13.7224 *    11.7620 *  0.0000     8          
   328  Li    c     -0.3910 *    17.6430 *     3.9207 *  0.0000     8          
   329  O     c    -16.0737 *     5.8810 *     5.8810    0.0000     4          
   330  O     c      3.5297 *    -1.9603 *    17.6430 *  0.0000     8          
   331  Cl    c     17.2521 *     3.9207 *     3.9207    0.0000     4          
   332  Li    c    -14.1134 *     5.8810 *     9.8017 *  0.0000     8          
   333  Li    c     -4.3117 *    17.6430 *     0.0000    0.0000     4          
   334  Li    c     15.2917 *     9.8017 *     0.0000    0.0000     4          
   335  Li    c     15.2917 *     7.8414 *     5.8810 *  0.0000     8          
   336  Cl    c     13.3314 *     3.9207 *    11.7620 *  0.0000     8          
   337  Li    c    -18.0340 *    -1.9603 *    -1.9603    0.0000     4          
   338  Li    c     11.3710 *    13.7224 *     3.9207 *  0.0000     8          
   339  O     c     -4.3117 *    -1.9603 *    17.6430 *  0.0000     8          
   340  O     c     15.2917 *     9.8017 *    -1.9603 *  0.0000     8          
   341  Cl    c      9.4107 *     0.0000      15.6827 *  0.0000     4          
   342  Li    c    -12.1530 *    13.7224 *     0.0000    0.0000     4          
   343  Li    c      7.4504 *     5.8810 *    15.6827 *  0.0000     8          
   344  Li    c     17.2521 *    -1.9603 *     5.8810 *  0.0000     8          
   345  Cl    c    -14.1134 *     0.0000      11.7620 *  0.0000     4          
   346  Cl    c      5.4900 *     7.8414 *    15.6827 *  0.0000     8          
   347  Li    c      3.5297 *    11.7620 *    13.7224 *  0.0000     8          
   348  Li    c      3.5297 *    17.6430 *     3.9207 *  0.0000     8          
   349  O     c    -12.1530 *    -1.9603 *    13.7224 *  0.0000     8          
   350  O     c    -12.1530 *     9.8017 *     9.8017    0.0000     4          
   351  O     c      7.4504 *     9.8017 *    13.7224 *  0.0000     8          
   352  Cl    c    -18.0340 *     0.0000       3.9207 *  0.0000     4          
   353  Li    c     -0.3910 *     9.8017 *    15.6827 *  0.0000     8          
   354  Li    c     -4.3117 *    13.7224 *    11.7620 *  0.0000     8          
   355  Li    c     -4.3117 *    17.6430 *     3.9207 *  0.0000     8          
   356  Li    c      5.4900 *    -1.9603 *    17.6430 *  0.0000     8          
   357  Li    c     15.2917 *     9.8017 *     3.9207 *  0.0000     8          
   358  O     c     -0.3910 *    17.6430 *     5.8810 *  0.0000     8          
   359  Cl    c     -6.2720 *     7.8414 *    15.6827 *  0.0000     8          
   360  Li    c     -8.2323 *     5.8810 *    15.6827 *  0.0000     8          
   361  Li    c      1.5694 *     5.8810 *    17.6430 *  0.0000     8          
   362  Cl    c    -10.1927 *     0.0000      15.6827 *  0.0000     4          
   363  Cl    c      9.4107 *     3.9207 *    15.6827 *  0.0000     8          
   364  Li    c    -12.1530 *     3.9207 *    13.7224 *  0.0000     8          
   365  Li    c     -2.3513 *    17.6430 *     5.8810 *  0.0000     8          
   366  O     c     -8.2323 *     9.8017 *    13.7224 *  0.0000     8          
   367  O     c     11.3710 *     5.8810 *    13.7224 *  0.0000     8          
   368  Cl    c    -14.1134 *     3.9207 *    11.7620 *  0.0000     8          
   369  Li    c    -16.0737 *     5.8810 *     7.8414 *  0.0000     8          
   370  Li    c    -16.0737 *     9.8017 *     0.0000    0.0000     4          
   371  Li    c     -6.2720 *    17.6430 *    -1.9603 *  0.0000     8          
   372  Li    c      3.5297 *     9.8017 *    15.6827 *  0.0000     8          
   373  Cl    c    -18.0340 *     3.9207 *     3.9207    0.0000     4          
   374  O     c    -16.0737 *    -1.9603 *     9.8017 *  0.0000     8          
   375  O     c      3.5297 *    17.6430 *     5.8810 *  0.0000     8          
   376  Cl    c     17.2521 *     0.0000       7.8414 *  0.0000     4          
   377  Li    c     -4.3117 *     9.8017 *    15.6827 *  0.0000     8          
   378  Li    c    -18.0340 *     5.8810 *    -1.9603 *  0.0000     8          
   379  Li    c     11.3710 *     9.8017 *    11.7620 *  0.0000     8          
   380  O     c     -4.3117 *     5.8810 *    17.6430 *  0.0000     8          
   381  O     c     15.2917 *     9.8017 *     5.8810 *  0.0000     8          
   382  Cl    c    -10.1927 *     3.9207 *    15.6827 *  0.0000     8          
   383  Cl    c      9.4107 *    11.7620 *    11.7620    0.0000     4          
   384  Li    c      7.4504 *    17.6430 *     0.0000    0.0000     4          
   385  Li    c     17.2521 *     5.8810 *     5.8810    0.0000     4          
   386  Li    c    -16.0737 *     3.9207 *     9.8017 *  0.0000     8          
   387  Li    c     13.3314 *    13.7224 *    -1.9603 *  0.0000     8          
   388  Li    c     13.3314 *     9.8017 *     9.8017    0.0000     4          
   389  O     c    -12.1530 *     5.8810 *    13.7224 *  0.0000     8          
   390  O     c      7.4504 *    -1.9603 *    17.6430 *  0.0000     8          
   391  Li    c     -0.3910 *    17.6430 *     7.8414 *  0.0000     8          
   392  Li    c      9.4107 *     9.8017 *    13.7224 *  0.0000     8          
   393  Li    c     19.2124 *    -1.9603 *     0.0000    0.0000     4          
   394  Cl    c     17.2521 *     3.9207 *     7.8414 *  0.0000     8          
   395  Li    c      5.4900 *     5.8810 *    17.6430 *  0.0000     8          
   396  Li    c     15.2917 *    -1.9603 *    11.7620 *  0.0000     8          
   397  O     c     -0.3910 *    13.7224 *    13.7224    0.0000     4          
   398  O     c     19.2124 *    -1.9603 *    -1.9603    0.0000     4          
   399  Cl    c     13.3314 *     7.8414 *    11.7620 *  0.0000     8          
   400  Li    c     -8.2323 *    17.6430 *     0.0000    0.0000     4          
   401  Li    c      1.5694 *    13.7224 *    13.7224    0.0000     4          
   402  Li    c     11.3710 *    -1.9603 *    15.6827 *  0.0000     8          
   403  Li    c     11.3710 *    13.7224 *     7.8414 *  0.0000     8          
   404  Cl    c    -10.1927 *    11.7620 *    11.7620    0.0000     4          
   405  Li    c    -12.1530 *     9.8017 *    11.7620 *  0.0000     8          
   406  Li    c     -2.3513 *    13.7224 *    13.7224    0.0000     4          
   407  Li    c      7.4504 *    13.7224 *    11.7620 *  0.0000     8          
   408  Li    c      7.4504 *    17.6430 *     3.9207 *  0.0000     8          
   409  O     c     -8.2323 *    -1.9603 *    17.6430 *  0.0000     8          
   410  Li    c     -6.2720 *    17.6430 *     5.8810 *  0.0000     8          
   411  Li    c      3.5297 *    17.6430 *     7.8414 *  0.0000     8          
   412  Cl    c    -18.0340 *     0.0000       7.8414 *  0.0000     4          
   413  Cl    c      1.5694 *    11.7620 *    15.6827 *  0.0000     8          
   414  Cl    c      1.5694 *     0.0000      19.6034 *  0.0000     4          
   415  Li    c    -10.1927 *     9.8017 *    13.7224 *  0.0000     8          
   416  Li    c     -0.3910 *    -1.9603 *    19.6034 *  0.0000     8          
   417  Li    c     19.2124 *    -1.9603 *     3.9207 *  0.0000     8          
   418  O     c    -16.0737 *     5.8810 *     9.8017 *  0.0000     8          
   419  O     c      3.5297 *    13.7224 *    13.7224    0.0000     4          
   420  Cl    c     -2.3513 *    11.7620 *    15.6827 *  0.0000     8          
   421  Cl    c     -2.3513 *     0.0000      19.6034 *  0.0000     4          
   422  Li    c    -14.1134 *    -1.9603 *    13.7224 *  0.0000     8          
   423  Li    c    -14.1134 *     9.8017 *     9.8017    0.0000     4          
   424  Li    c     -4.3117 *    17.6430 *     7.8414 *  0.0000     8          
   425  Li    c     15.2917 *     9.8017 *     7.8414 *  0.0000     8          
   426  Li    c    -18.0340 *     5.8810 *     5.8810    0.0000     4          
   427  Li    c     -8.2323 *    13.7224 *    11.7620 *  0.0000     8          
   428  Li    c     -8.2323 *     3.9207 *    17.6430 *  0.0000     8          
   429  O     c     -4.3117 *    13.7224 *    13.7224    0.0000     4          
   430  Cl    c      9.4107 *     7.8414 *    15.6827 *  0.0000     8          
   431  Li    c    -12.1530 *    15.6827 *    -1.9603 *  0.0000     8          
   432  Li    c    -12.1530 *     7.8414 *    13.7224 *  0.0000     8          
   433  Li    c      7.4504 *     9.8017 *    15.6827 *  0.0000     8          
   434  Li    c     17.2521 *     9.8017 *    -1.9603 *  0.0000     8          
   435  Cl    c    -14.1134 *     7.8414 *    11.7620 *  0.0000     8          
   436  O     s     -0.3910 *    -1.9603 *    -1.9603    0.0000     4          
   437  Cl    s      2.9468       0.0000       0.0000    0.0000     1    Defect
   438  Cl    s      1.5694 *     0.0000       3.9207 *  0.0000     4          
   439  O     s      3.5297 *    -1.9603 *    -1.9603    0.0000     4          
   440  Cl    s     -2.3513 *     0.0000       3.9207 *  0.0000     4          
   441  O     s     -4.3117 *    -1.9603 *    -1.9603    0.0000     4          
   442  Cl    s      5.4900 *     0.0000       0.0000    0.0000     1          
   443  Cl    s      1.5694 *     3.9207 *     3.9207    0.0000     4          
   444  Cl    s     -2.3513 *     3.9207 *     3.9207    0.0000     4          
   445  O     s     -0.3910 *    -1.9603 *     5.8810 *  0.0000     8          
   446  Cl    s     -6.2720 *     0.0000       0.0000    0.0000     1          
   447  Cl    s      5.4900 *     0.0000       3.9207 *  0.0000     4          
   448  O     s      3.5297 *     5.8810 *    -1.9603 *  0.0000     8          
   449  Cl    s     -6.2720 *     0.0000       3.9207 *  0.0000     4          
   450  O     s     -4.3117 *     5.8810 *    -1.9603 *  0.0000     8          
   451  Cl    s      5.4900 *     3.9207 *     3.9207    0.0000     4          
   452  O     s      7.4504 *    -1.9603 *    -1.9603    0.0000     4          
   453  Cl    s      1.5694 *     0.0000       7.8414 *  0.0000     4          
   454  Cl    s     -2.3513 *     0.0000       7.8414 *  0.0000     4          
   455  O     s     -0.3910 *     5.8810 *     5.8810    0.0000     4          
   456  Cl    s     -6.2720 *     3.9207 *     3.9207    0.0000     4          
   457  O     s     -8.2323 *    -1.9603 *    -1.9603    0.0000     4          
   458  Cl    s      1.5694 *     3.9207 *     7.8414 *  0.0000     8          
   459  O     s      3.5297 *     5.8810 *     5.8810    0.0000     4          
   460  Cl    s     -2.3513 *     3.9207 *     7.8414 *  0.0000     8          
   461  O     s     -4.3117 *     5.8810 *     5.8810    0.0000     4          
   462  Cl    s      9.4107 *     0.0000       0.0000    0.0000     1          
   463  Cl    s      5.4900 *     0.0000       7.8414 *  0.0000     4          
   464  O     s      7.4504 *    -1.9603 *     5.8810 *  0.0000     8          
   465  O     s     -0.3910 *    -1.9603 *     9.8017 *  0.0000     8          
   466  Cl    s     -6.2720 *     0.0000       7.8414 *  0.0000     4          
   467  Cl    s    -10.1927 *     0.0000       0.0000    0.0000     1          
   468  Cl    s      9.4107 *     0.0000       3.9207 *  0.0000     4          
   469  O     s     -8.2323 *    -1.9603 *     5.8810 *  0.0000     8          
   470  Cl    s      5.4900 *     3.9207 *     7.8414 *  0.0000     8          
   471  O     s      3.5297 *    -1.9603 *     9.8017 *  0.0000     8          
   472  Cl    s     -6.2720 *     3.9207 *     7.8414 *  0.0000     8          
   473  O     s     -4.3117 *    -1.9603 *     9.8017 *  0.0000     8          
   474  Cl    s    -10.1927 *     0.0000       3.9207 *  0.0000     4          
   475  Cl    s      9.4107 *     3.9207 *     3.9207    0.0000     4          
   476  O     s      7.4504 *     5.8810 *     5.8810    0.0000     4          
   477  Cl    s      1.5694 *     7.8414 *     7.8414    0.0000     4          
   478  Cl    s     -2.3513 *     7.8414 *     7.8414    0.0000     4          
   479  O     s     -0.3910 *     5.8810 *     9.8017 *  0.0000     8          
   480  Cl    s    -10.1927 *     3.9207 *     3.9207    0.0000     4          
   481  O     s     -8.2323 *     5.8810 *     5.8810    0.0000     4          
   482  O     s     11.3710 *    -1.9603 *    -1.9603    0.0000     4          
   483  Cl    s      1.5694 *     0.0000      11.7620 *  0.0000     4          
   484  O     s      3.5297 *     5.8810 *     9.8017 *  0.0000     8          
   485  Cl    s     -2.3513 *     0.0000      11.7620 *  0.0000     4          
   486  O     s     -4.3117 *     5.8810 *     9.8017 *  0.0000     8          
   487  Cl    s      9.4107 *     0.0000       7.8414 *  0.0000     4          
   488  Cl    s      5.4900 *     7.8414 *     7.8414    0.0000     4          
   489  O     s    -12.1530 *    -1.9603 *    -1.9603    0.0000     4          
   490  O     s      7.4504 *    -1.9603 *     9.8017 *  0.0000     8          
   491  Cl    s      1.5694 *     3.9207 *    11.7620 *  0.0000     8          
   492  Cl    s     -2.3513 *     3.9207 *    11.7620 *  0.0000     8          
   493  Cl    s     -6.2720 *     7.8414 *     7.8414    0.0000     4          
   494  Cl    s    -10.1927 *     0.0000       7.8414 *  0.0000     4          
   495  Cl    s      9.4107 *     3.9207 *     7.8414 *  0.0000     8          
   496  O     s     -8.2323 *     9.8017 *    -1.9603 *  0.0000     8          
   497  O     s     11.3710 *    -1.9603 *     5.8810 *  0.0000     8          
   498  Cl    s      5.4900 *     0.0000      11.7620 *  0.0000     4          
   499  Cl    s     -6.2720 *     0.0000      11.7620 *  0.0000     4          
   500  Cl    s     13.3314 *     0.0000       0.0000    0.0000     1          
   501  Cl    s    -10.1927 *     7.8414 *     3.9207 *  0.0000     8          
   502  Cl    s      5.4900 *     3.9207 *    11.7620 *  0.0000     8          
   503  O     s    -12.1530 *    -1.9603 *     5.8810 *  0.0000     8          
   504  O     s      7.4504 *     5.8810 *     9.8017 *  0.0000     8          
   505  O     s     -0.3910 *    -1.9603 *    13.7224 *  0.0000     8          
   506  O     s     -0.3910 *     9.8017 *     9.8017    0.0000     4          
   507  Cl    s     -6.2720 *     3.9207 *    11.7620 *  0.0000     8          
   508  Cl    s     13.3314 *     0.0000       3.9207 *  0.0000     4          
   509  O     s     -8.2323 *     9.8017 *     5.8810 *  0.0000     8          
   510  O     s     11.3710 *     5.8810 *     5.8810    0.0000     4          
   511  Cl    s    -14.1134 *     0.0000       0.0000    0.0000     1          
   512  Cl    s      1.5694 *     7.8414 *    11.7620 *  0.0000     8          
   513  O     s      3.5297 *    -1.9603 *    13.7224 *  0.0000     8          
   514  O     s      3.5297 *     9.8017 *     9.8017    0.0000     4          
   515  Cl    s     -2.3513 *     7.8414 *    11.7620 *  0.0000     8          
   516  Cl    s     13.3314 *     3.9207 *     3.9207    0.0000     4          
   517  O     s     -4.3117 *    -1.9603 *    13.7224 *  0.0000     8          
   518  O     s     -4.3117 *     9.8017 *     9.8017    0.0000     4          
   519  Cl    s      9.4107 *     7.8414 *     7.8414    0.0000     4          
   520  Cl    s    -14.1134 *     0.0000       3.9207 *  0.0000     4          
   521  O     s    -12.1530 *     5.8810 *     5.8810    0.0000     4          
   522  O     s     -0.3910 *     5.8810 *    13.7224 *  0.0000     8          
   523  Cl    s    -10.1927 *     7.8414 *     7.8414    0.0000     4          
   524  Cl    s      9.4107 *     0.0000      11.7620 *  0.0000     4          
   525  O     s     11.3710 *    -1.9603 *     9.8017 *  0.0000     8          
   526  Cl    s    -14.1134 *     3.9207 *     3.9207    0.0000     4          
   527  Cl    s      5.4900 *     7.8414 *    11.7620 *  0.0000     8          
   528  O     s      3.5297 *     5.8810 *    13.7224 *  0.0000     8          
   529  Cl    s     -6.2720 *     7.8414 *    11.7620 *  0.0000     8          
   530  Cl    s     13.3314 *     0.0000       7.8414 *  0.0000     4          
   531  O     s     -4.3117 *     5.8810 *    13.7224 *  0.0000     8          
   532  O     s     15.2917 *    -1.9603 *    -1.9603    0.0000     4          
   533  Cl    s    -10.1927 *     0.0000      11.7620 *  0.0000     4          
   534  Cl    s      9.4107 *     3.9207 *    11.7620 *  0.0000     8          
   535  O     s    -12.1530 *    -1.9603 *     9.8017 *  0.0000     8          
   536  O     s      7.4504 *    -1.9603 *    13.7224 *  0.0000     8          
   537  O     s      7.4504 *     9.8017 *     9.8017    0.0000     4          
   538  Cl    s      1.5694 *     0.0000      15.6827 *  0.0000     4          
   539  Cl    s     -2.3513 *     0.0000      15.6827 *  0.0000     4          
   540  Cl    s     13.3314 *     3.9207 *     7.8414 *  0.0000     8          
   541  Cl    s    -10.1927 *     3.9207 *    11.7620 *  0.0000     8          
   542  O     s     -8.2323 *    13.7224 *    -1.9603 *  0.0000     8          
   543  O     s     -8.2323 *     9.8017 *     9.8017    0.0000     4          
   544  O     s     11.3710 *     5.8810 *     9.8017 *  0.0000     8          
   545  Cl    s    -14.1134 *     0.0000       7.8414 *  0.0000     4          
   546  Cl    s      1.5694 *     3.9207 *    15.6827 *  0.0000     8          
   547  O     s    -16.0737 *    -1.9603 *    -1.9603    0.0000     4          
   548  Cl    s     -2.3513 *     3.9207 *    15.6827 *  0.0000     8          
   549  O     s     15.2917 *    -1.9603 *     5.8810 *  0.0000     8          
   550  Cl    s    -14.1134 *     3.9207 *     7.8414 *  0.0000     8          
   551  Cl    s      5.4900 *     0.0000      15.6827 *  0.0000     4          
   552  O     s    -12.1530 *     5.8810 *     9.8017 *  0.0000     8          
   553  O     s      7.4504 *     5.8810 *    13.7224 *  0.0000     8          
   554  Cl    s      1.5694 *    11.7620 *    11.7620    0.0000     4          
   555  Cl    s     -2.3513 *    11.7620 *    11.7620    0.0000     4          
   556  O     s     -0.3910 *     9.8017 *    13.7224 *  0.0000     8          
   557  Cl    s     -6.2720 *     0.0000      15.6827 *  0.0000     4          
   558  Cl    s      9.4107 *     7.8414 *    11.7620 *  0.0000     8          
   559  O     s     -8.2323 *    13.7224 *     5.8810 *  0.0000     8          
   560  Cl    s      5.4900 *     3.9207 *    15.6827 *  0.0000     8          
   561  O     s    -16.0737 *     5.8810 *    -1.9603 *  0.0000     8          
   562  O     s      3.5297 *     9.8017 *    13.7224 *  0.0000     8          
   563  Cl    s     17.2521 *     0.0000       0.0000    0.0000     1          
   564  Cl    s     -6.2720 *     3.9207 *    15.6827 *  0.0000     8          
   565  Cl    s     13.3314 *     7.8414 *     7.8414    0.0000     4          
   566  O     s     -4.3117 *     9.8017 *    13.7224 *  0.0000     8          
   567  O     s     15.2917 *     5.8810 *     5.8810    0.0000     4          
   568  Cl    s    -10.1927 *     7.8414 *    11.7620 *  0.0000     8          
   569  Cl    s      5.4900 *    11.7620 *    11.7620    0.0000     4          
   570  Cl    s      1.5694 *     7.8414 *    15.6827 *  0.0000     8          
   571  Cl    s     -2.3513 *     7.8414 *    15.6827 *  0.0000     8          
   572  Cl    s     17.2521 *     0.0000       3.9207 *  0.0000     4          
   573  O     s     -0.3910 *    -1.9603 *    17.6430 *  0.0000     8          
   574  Cl    s     -6.2720 *    11.7620 *    11.7620    0.0000     4          
   575  Cl    s     13.3314 *     0.0000      11.7620 *  0.0000     4          
   576  O     s     11.3710 *    -1.9603 *    13.7224 *  0.0000     8          
   577  O     s     11.3710 *     9.8017 *     9.8017    0.0000     4          
   578  Cl    s    -14.1134 *     7.8414 *     7.8414    0.0000     4          
   579  Cl    s    -18.0340 *     0.0000       0.0000    0.0000     1          
   580  O     s    -16.0737 *     5.8810 *     5.8810    0.0000     4          
   581  O     s      3.5297 *    -1.9603 *    17.6430 *  0.0000     8          
   582  Cl    s     17.2521 *     3.9207 *     3.9207    0.0000     4          
   583  Cl    s     13.3314 *     3.9207 *    11.7620 *  0.0000     8          
   584  O     s     -4.3117 *    -1.9603 *    17.6430 *  0.0000     8          
   585  O     s     15.2917 *     9.8017 *    -1.9603 *  0.0000     8          
   586  Cl    s      9.4107 *     0.0000      15.6827 *  0.0000     4          
   587  Cl    s    -14.1134 *     0.0000      11.7620 *  0.0000     4          
   588  Cl    s      5.4900 *     7.8414 *    15.6827 *  0.0000     8          
   589  O     s    -12.1530 *    -1.9603 *    13.7224 *  0.0000     8          
   590  O     s    -12.1530 *     9.8017 *     9.8017    0.0000     4          
   591  O     s      7.4504 *     9.8017 *    13.7224 *  0.0000     8          
   592  Cl    s    -18.0340 *     0.0000       3.9207 *  0.0000     4          
   593  O     s     -0.3910 *    17.6430 *     5.8810 *  0.0000     8          
   594  Cl    s     -6.2720 *     7.8414 *    15.6827 *  0.0000     8          
   595  Cl    s    -10.1927 *     0.0000      15.6827 *  0.0000     4          
   596  Cl    s      9.4107 *     3.9207 *    15.6827 *  0.0000     8          
   597  O     s     -8.2323 *     9.8017 *    13.7224 *  0.0000     8          
   598  O     s     11.3710 *     5.8810 *    13.7224 *  0.0000     8          
   599  Cl    s    -14.1134 *     3.9207 *    11.7620 *  0.0000     8          
   600  Cl    s    -18.0340 *     3.9207 *     3.9207    0.0000     4          
   601  O     s    -16.0737 *    -1.9603 *     9.8017 *  0.0000     8          
   602  O     s      3.5297 *    17.6430 *     5.8810 *  0.0000     8          
   603  Cl    s     17.2521 *     0.0000       7.8414 *  0.0000     4          
   604  O     s     -4.3117 *     5.8810 *    17.6430 *  0.0000     8          
   605  O     s     15.2917 *     9.8017 *     5.8810 *  0.0000     8          
   606  Cl    s    -10.1927 *     3.9207 *    15.6827 *  0.0000     8          
   607  Cl    s      9.4107 *    11.7620 *    11.7620    0.0000     4          
   608  O     s    -12.1530 *     5.8810 *    13.7224 *  0.0000     8          
   609  O     s      7.4504 *    -1.9603 *    17.6430 *  0.0000     8          
   610  Cl    s     17.2521 *     3.9207 *     7.8414 *  0.0000     8          
   611  O     s     -0.3910 *    13.7224 *    13.7224    0.0000     4          
   612  O     s     19.2124 *    -1.9603 *    -1.9603    0.0000     4          
   613  Cl    s     13.3314 *     7.8414 *    11.7620 *  0.0000     8          
   614  Cl    s    -10.1927 *    11.7620 *    11.7620    0.0000     4          
   615  O     s     -8.2323 *    -1.9603 *    17.6430 *  0.0000     8          
   616  Cl    s    -18.0340 *     0.0000       7.8414 *  0.0000     4          
   617  Cl    s      1.5694 *    11.7620 *    15.6827 *  0.0000     8          
   618  Cl    s      1.5694 *     0.0000      19.6034 *  0.0000     4          
   619  O     s    -16.0737 *     5.8810 *     9.8017 *  0.0000     8          
   620  O     s      3.5297 *    13.7224 *    13.7224    0.0000     4          
   621  Cl    s     -2.3513 *    11.7620 *    15.6827 *  0.0000     8          
   622  Cl    s     -2.3513 *     0.0000      19.6034 *  0.0000     4          
   623  O     s     -4.3117 *    13.7224 *    13.7224    0.0000     4          
   624  Cl    s      9.4107 *     7.8414 *    15.6827 *  0.0000     8          
   625  Cl    s    -14.1134 *     7.8414 *    11.7620 *  0.0000     8          
--------------------------------------------------------------------------------


  Constraints on symmetry reduced coordinates :

--------------------------------------------------------------------------------
  Constraint no.      Unconstrained     Constrained    Coefficient    
                         Variable         Variable
--------------------------------------------------------------------------------
           1                 2 y             2 z         1.00000
           2                 4 y             4 z         1.00000
           3                 5 y             5 z         1.00000
           4                 9 y             9 z         1.00000
           5                12 y            12 z         1.00000
           6                15 y            15 z         1.00000
           7                17 y            17 z         1.00000
           8                19 y            19 z         1.00000
           9                25 y            25 z         1.00000
          10                33 y            33 z         1.00000
          11                35 y            35 z         1.00000
          12                41 y            41 z         1.00000
          13                42 y            42 z         1.00000
          14                44 y            44 z         1.00000
          15                45 y            45 z         1.00000
          16                47 y            47 z         1.00000
          17                51 y            51 z         1.00000
          18                55 y            55 z         1.00000
          19                62 y            62 z         1.00000
          20                63 y            63 z         1.00000
          21                74 y            74 z         1.00000
          22                77 y            77 z         1.00000
          23                86 y            86 z         1.00000
          24                89 y            89 z         1.00000
          25                90 y            90 z         1.00000
          26                92 y            92 z         1.00000
          27                99 y            99 z         1.00000
          28               101 y           101 z         1.00000
          29               102 y           102 z         1.00000
          30               115 y           115 z         1.00000
          31               117 y           117 z         1.00000
          32               121 y           121 z         1.00000
          33               125 y           125 z         1.00000
          34               138 y           138 z         1.00000
          35               149 y           149 z         1.00000
          36               156 y           156 z         1.00000
          37               160 y           160 z         1.00000
          38               164 y           164 z         1.00000
          39               167 y           167 z         1.00000
          40               174 y           174 z         1.00000
          41               176 y           176 z         1.00000
          42               178 y           178 z         1.00000
          43               181 y           181 z         1.00000
          44               182 y           182 z         1.00000
          45               188 y           188 z         1.00000
          46               192 y           192 z         1.00000
          47               198 y           198 z         1.00000
          48               203 y           203 z         1.00000
          49               206 y           206 z         1.00000
          50               217 y           217 z         1.00000
          51               224 y           224 z         1.00000
          52               227 y           227 z         1.00000
          53               241 y           241 z         1.00000
          54               249 y           249 z         1.00000
          55               251 y           251 z         1.00000
          56               264 y           264 z         1.00000
          57               267 y           267 z         1.00000
          58               268 y           268 z         1.00000
          59               283 y           283 z         1.00000
          60               291 y           291 z         1.00000
          61               295 y           295 z         1.00000
          62               300 y           300 z         1.00000
          63               301 y           301 z         1.00000
          64               311 y           311 z         1.00000
          65               320 y           320 z         1.00000
          66               321 y           321 z         1.00000
          67               329 y           329 z         1.00000
          68               331 y           331 z         1.00000
          69               337 y           337 z         1.00000
          70               350 y           350 z         1.00000
          71               373 y           373 z         1.00000
          72               383 y           383 z         1.00000
          73               385 y           385 z         1.00000
          74               388 y           388 z         1.00000
          75               397 y           397 z         1.00000
          76               398 y           398 z         1.00000
          77               401 y           401 z         1.00000
          78               404 y           404 z         1.00000
          79               406 y           406 z         1.00000
          80               419 y           419 z         1.00000
          81               423 y           423 z         1.00000
          82               426 y           426 z         1.00000
          83               429 y           429 z         1.00000
          84               436 y           436 z         1.00000
          85               439 y           439 z         1.00000
[...]
    545 y          0.000000      0.000000     0.000000    Cartesian    0.00
    545 z          7.841351      7.835109    -0.006242    Cartesian   -0.08
    546 x          3.920675      3.920403    -0.000272    Cartesian   -0.01
    546 y          3.920675      3.920232    -0.000444    Cartesian   -0.01
    546 z         15.682702     15.679912    -0.002790    Cartesian   -0.02
    547 x        -13.722364    -13.718485     0.003880    Cartesian   -0.03
    547 y         -1.960338     -1.959735     0.000603    Cartesian   -0.03
    547 z         -1.960338     -1.959735     0.000603    Cartesian   -0.03
    548 x          0.000000      0.000830     0.000830    Cartesian    0.00
    548 y          3.920675      3.919378    -0.001298    Cartesian   -0.03
    548 z         15.682702     15.678025    -0.004677    Cartesian   -0.03
    549 x         17.643040     17.650827     0.007787    Cartesian    0.04
    549 y         -1.960338     -1.961728    -0.001390    Cartesian    0.07
    549 z          5.881013      5.885152     0.004138    Cartesian    0.07
    550 x        -11.762026    -11.753318     0.008708    Cartesian   -0.07
    550 y          3.920675      3.917608    -0.003068    Cartesian   -0.08
    550 z          7.841351      7.835088    -0.006263    Cartesian   -0.08
    551 x          7.841351      7.840183    -0.001168    Cartesian   -0.01
    551 y          0.000000      0.000000     0.000000    Cartesian    0.00
    551 z         15.682702     15.681452    -0.001250    Cartesian   -0.01
    552 x         -9.801689     -9.794828     0.006861    Cartesian   -0.07
    552 y          5.881013      5.877930    -0.003083    Cartesian   -0.05
    552 z          9.801689      9.796819    -0.004870    Cartesian   -0.05
    553 x          9.801689      9.803564     0.001875    Cartesian    0.02
    553 y          5.881013      5.882898     0.001884    Cartesian    0.03
    553 z         13.722364     13.725358     0.002994    Cartesian    0.02
    554 x          3.920675      3.918396    -0.002279    Cartesian   -0.06
    554 y         11.762026     11.759442    -0.002585    Cartesian   -0.02
    554 z         11.762026     11.759442    -0.002585    Cartesian   -0.02
    555 x          0.000000     -0.000528    -0.000528    Cartesian    0.00
    555 y         11.762026     11.756641    -0.005385    Cartesian   -0.05
    555 z         11.762026     11.756641    -0.005385    Cartesian   -0.05
    556 x          1.960338      1.960489     0.000151    Cartesian    0.01
    556 y          9.801689      9.800309    -0.001380    Cartesian   -0.01
    556 z         13.722364     13.721244    -0.001120    Cartesian   -0.01
    557 x         -3.920675     -3.917298     0.003378    Cartesian   -0.09
    557 y          0.000000      0.000000     0.000000    Cartesian    0.00
    557 z         15.682702     15.676320    -0.006382    Cartesian   -0.04
    558 x         11.762026     11.761985    -0.000042    Cartesian   -0.00
    558 y          7.841351      7.844175     0.002824    Cartesian    0.04
    558 z         11.762026     11.765366     0.003339    Cartesian    0.03
    559 x         -5.881013     -5.877967     0.003046    Cartesian   -0.05
    559 y         13.722364     13.719054    -0.003310    Cartesian   -0.02
    559 z          5.881013      5.879387    -0.001626    Cartesian   -0.03
    560 x          7.841351      7.840004    -0.001347    Cartesian   -0.02
    560 y          3.920675      3.920966     0.000291    Cartesian    0.01
    560 z         15.682702     15.681747    -0.000955    Cartesian   -0.01
    561 x        -13.722364    -13.719068     0.003296    Cartesian   -0.02
    561 y          5.881013      5.879801    -0.001213    Cartesian   -0.02
    561 z         -1.960338     -1.960462    -0.000124    Cartesian    0.01
    562 x          5.881013      5.881496     0.000483    Cartesian    0.01
    562 y          9.801689      9.802718     0.001029    Cartesian    0.01
    562 z         13.722364     13.723733     0.001368    Cartesian    0.01
    563 x         19.603377     19.605845     0.002468    Cartesian    0.01
    563 y          0.000000      0.000000     0.000000    Cartesian    0.00
    563 z          0.000000      0.000000     0.000000    Cartesian    0.00
    564 x         -3.920675     -3.918778     0.001898    Cartesian   -0.05
    564 y          3.920675      3.919552    -0.001123    Cartesian   -0.03
    564 z         15.682702     15.676892    -0.005810    Cartesian   -0.04
    565 x         15.682702     15.686499     0.003797    Cartesian    0.02
    565 y          7.841351      7.846164     0.004813    Cartesian    0.06
    565 z          7.841351      7.846164     0.004813    Cartesian    0.06
    566 x         -1.960338     -1.960004     0.000334    Cartesian   -0.02
    566 y          9.801689      9.799728    -0.001961    Cartesian   -0.02
    566 z         13.722364     13.720242    -0.002122    Cartesian   -0.02
    567 x         17.643040     17.649076     0.006036    Cartesian    0.03
    567 y          5.881013      5.884749     0.003736    Cartesian    0.06
    567 z          5.881013      5.884749     0.003736    Cartesian    0.06
    568 x         -7.841351     -7.835773     0.005578    Cartesian   -0.07
    568 y          7.841351      7.836717    -0.004634    Cartesian   -0.06
    568 z         11.762026     11.755496    -0.006531    Cartesian   -0.06
    569 x          7.841351      7.839080    -0.002271    Cartesian   -0.03
    569 y         11.762026     11.762589     0.000563    Cartesian    0.00
    569 z         11.762026     11.762589     0.000563    Cartesian    0.00
    570 x          3.920675      3.918984    -0.001692    Cartesian   -0.04
    570 y          7.841351      7.840572    -0.000779    Cartesian   -0.01
    570 z         15.682702     15.680674    -0.002028    Cartesian   -0.01
    571 x          0.000000     -0.000634    -0.000634    Cartesian    0.00
    571 y          7.841351      7.839605    -0.001746    Cartesian   -0.02
    571 z         15.682702     15.679310    -0.003392    Cartesian   -0.02
    572 x         19.603377     19.604922     0.001545    Cartesian    0.01
    572 y          0.000000      0.000000     0.000000    Cartesian    0.00
    572 z          3.920675      3.922201     0.001526    Cartesian    0.04
    573 x          1.960338      1.961143     0.000806    Cartesian    0.04
    573 y         -1.960338     -1.961203    -0.000865    Cartesian    0.04
    573 z         17.643040     17.642571    -0.000469    Cartesian   -0.00
    574 x         -3.920675     -3.920116     0.000559    Cartesian   -0.01
    574 y         11.762026     11.757087    -0.004940    Cartesian   -0.04
    574 z         11.762026     11.757087    -0.004940    Cartesian   -0.04
    575 x         15.682702     15.684761     0.002059    Cartesian    0.01
    575 y          0.000000      0.000000     0.000000    Cartesian    0.00
    575 z         11.762026     11.766528     0.004501    Cartesian    0.04
    576 x         13.722364     13.725881     0.003517    Cartesian    0.03
    576 y         -1.960338     -1.961027    -0.000689    Cartesian    0.04
    576 z         13.722364     13.726765     0.004401    Cartesian    0.03
    577 x         13.722364     13.726179     0.003815    Cartesian    0.03
    577 y          9.801689      9.806035     0.004347    Cartesian    0.04
    577 z          9.801689      9.806035     0.004347    Cartesian    0.04
    578 x        -11.762026    -11.755501     0.006525    Cartesian   -0.06
    578 y          7.841351      7.837144    -0.004207    Cartesian   -0.05
    578 z          7.841351      7.837144    -0.004207    Cartesian   -0.05
    579 x        -15.682702    -15.677361     0.005341    Cartesian   -0.03
    579 y          0.000000      0.000000     0.000000    Cartesian    0.00
    579 z          0.000000      0.000000     0.000000    Cartesian    0.00
    580 x        -13.722364    -13.719718     0.002646    Cartesian   -0.02
    580 y          5.881013      5.880001    -0.001013    Cartesian   -0.02
    580 z          5.881013      5.880001    -0.001013    Cartesian   -0.02
    581 x          5.881013      5.881558     0.000545    Cartesian    0.01
    581 y         -1.960338     -1.960596    -0.000258    Cartesian    0.01
    581 z         17.643040     17.642925    -0.000114    Cartesian   -0.00
    582 x         19.603377     19.604468     0.001091    Cartesian    0.01
    582 y          3.920675      3.922333     0.001658    Cartesian    0.04
    582 z          3.920675      3.922333     0.001658    Cartesian    0.04
    583 x         15.682702     15.683882     0.001180    Cartesian    0.01
    583 y          3.920675      3.922584     0.001908    Cartesian    0.05
    583 z         11.762026     11.765707     0.003681    Cartesian    0.03
    584 x         -1.960338     -1.959710     0.000627    Cartesian   -0.03
    584 y         -1.960338     -1.960518    -0.000180    Cartesian    0.01
    584 z         17.643040     17.641306    -0.001733    Cartesian   -0.01
    585 x         17.643040     17.648380     0.005340    Cartesian    0.03
    585 y          9.801689      9.806356     0.004667    Cartesian    0.05
    585 z         -1.960338     -1.961157    -0.000819    Cartesian    0.04
    586 x         11.762026     11.760983    -0.001043    Cartesian   -0.01
    586 y          0.000000      0.000000     0.000000    Cartesian    0.00
    586 z         15.682702     15.683114     0.000412    Cartesian    0.00
    587 x        -11.762026    -11.757063     0.004963    Cartesian   -0.04
    587 y          0.000000      0.000000     0.000000    Cartesian    0.00
    587 z         11.762026     11.756847    -0.005179    Cartesian   -0.04
    588 x          7.841351      7.839365    -0.001986    Cartesian   -0.03
    588 y          7.841351      7.841217    -0.000134    Cartesian   -0.00
    588 z         15.682702     15.681972    -0.000730    Cartesian   -0.00
    589 x         -9.801689     -9.799520     0.002169    Cartesian   -0.02
    589 y         -1.960338     -1.959775     0.000563    Cartesian   -0.03
    589 z         13.722364     13.720146    -0.002219    Cartesian   -0.02
    590 x         -9.801689     -9.798198     0.003491    Cartesian   -0.04
    590 y          9.801689      9.799220    -0.002469    Cartesian   -0.03
    590 z          9.801689      9.799220    -0.002469    Cartesian   -0.03
    591 x          9.801689      9.802298     0.000610    Cartesian    0.01
    591 y          9.801689      9.803993     0.002304    Cartesian    0.02
    591 z         13.722364     13.724786     0.002422    Cartesian    0.02
    592 x        -15.682702    -15.677090     0.005612    Cartesian   -0.04
    592 y          0.000000      0.000000     0.000000    Cartesian    0.00
    592 z          3.920675      3.919110    -0.001565    Cartesian   -0.04
    593 x          1.960338      1.960441     0.000103    Cartesian    0.01
    593 y         17.643040     17.642294    -0.000746    Cartesian   -0.00
    593 z          5.881013      5.881020     0.000006    Cartesian    0.00
    594 x         -3.920675     -3.920081     0.000594    Cartesian   -0.02
    594 y          7.841351      7.838842    -0.002509    Cartesian   -0.03
    594 z         15.682702     15.677948    -0.004754    Cartesian   -0.03
    595 x         -7.841351     -7.839084     0.002267    Cartesian   -0.03
    595 y          0.000000      0.000000     0.000000    Cartesian    0.00
    595 z         15.682702     15.677029    -0.005673    Cartesian   -0.04
    596 x         11.762026     11.760721    -0.001306    Cartesian   -0.01
    596 y          3.920675      3.921071     0.000396    Cartesian    0.01
    596 z         15.682702     15.682620    -0.000082    Cartesian   -0.00
    597 x         -5.881013     -5.879765     0.001249    Cartesian   -0.02
    597 y          9.801689      9.800068    -0.001621    Cartesian   -0.02
    597 z         13.722364     13.720525    -0.001840    Cartesian   -0.01
    598 x         13.722364     13.722898     0.000534    Cartesian    0.00
    598 y          5.881013      5.881902     0.000888    Cartesian    0.02
    598 z         13.722364     13.723966     0.001601    Cartesian    0.01
    599 x        -11.762026    -11.756952     0.005075    Cartesian   -0.04
    599 y          3.920675      3.918657    -0.002019    Cartesian   -0.05
    599 z         11.762026     11.757336    -0.004691    Cartesian   -0.04
    600 x        -15.682702    -15.676822     0.005880    Cartesian   -0.04
    600 y          3.920675      3.919033    -0.001643    Cartesian   -0.04
    600 z          3.920675      3.919033    -0.001643    Cartesian   -0.04
    601 x        -13.722364    -13.719182     0.003182    Cartesian   -0.02
    601 y         -1.960338     -1.959997     0.000341    Cartesian   -0.02
    601 z          9.801689      9.799756    -0.001932    Cartesian   -0.02
    602 x          5.881013      5.880976    -0.000037    Cartesian   -0.00
    602 y         17.643040     17.643042     0.000002    Cartesian    0.00
    602 z          5.881013      5.881266     0.000253    Cartesian    0.00
    603 x         19.603377     19.603232    -0.000145    Cartesian   -0.00
    603 y          0.000000      0.000000     0.000000    Cartesian    0.00
    603 z          7.841351      7.842850     0.001499    Cartesian    0.02
    604 x         -1.960338     -1.960088     0.000250    Cartesian   -0.01
    604 y          5.881013      5.880681    -0.000332    Cartesian   -0.01
    604 z         17.643040     17.641838    -0.001201    Cartesian   -0.01
    605 x         17.643040     17.644735     0.001696    Cartesian    0.01
    605 y          9.801689      9.803375     0.001686    Cartesian    0.02
    605 z          5.881013      5.882372     0.001358    Cartesian    0.02
    606 x         -7.841351     -7.838678     0.002673    Cartesian   -0.03
    606 y          3.920675      3.919173    -0.001502    Cartesian   -0.04
    606 z         15.682702     15.676923    -0.005779    Cartesian   -0.04
    607 x         11.762026     11.760470    -0.001557    Cartesian   -0.01
    607 y         11.762026     11.762957     0.000930    Cartesian    0.01
    607 z         11.762026     11.762957     0.000930    Cartesian    0.01
    608 x         -9.801689     -9.799162     0.002527    Cartesian   -0.03
    608 y          5.881013      5.879821    -0.001192    Cartesian   -0.02
    608 z         13.722364     13.719916    -0.002448    Cartesian   -0.02
    609 x          9.801689      9.801067    -0.000622    Cartesian   -0.01
    609 y         -1.960338     -1.960501    -0.000163    Cartesian    0.01
    609 z         17.643040     17.642577    -0.000462    Cartesian   -0.00
    610 x         19.603377     19.602284    -0.001093    Cartesian   -0.01
    610 y          3.920675      3.921382     0.000707    Cartesian    0.02
    610 z          7.841351      7.842654     0.001303    Cartesian    0.02
    611 x          1.960338      1.959528    -0.000810    Cartesian   -0.04
    611 y         13.722364     13.721085    -0.001279    Cartesian   -0.01
    611 z         13.722364     13.721085    -0.001279    Cartesian   -0.01
    612 x         21.563715     21.565089     0.001374    Cartesian    0.01
    612 y         -1.960338     -1.960683    -0.000345    Cartesian    0.02
    612 z         -1.960338     -1.960683    -0.000345    Cartesian    0.02
    613 x         15.682702     15.681465    -0.001237    Cartesian   -0.01
    613 y          7.841351      7.841835     0.000484    Cartesian    0.01
    613 z         11.762026     11.763332     0.001306    Cartesian    0.01
    614 x         -7.841351     -7.838450     0.002901    Cartesian   -0.04
    614 y         11.762026     11.757253    -0.004774    Cartesian   -0.04
    614 z         11.762026     11.757253    -0.004774    Cartesian   -0.04
    615 x         -5.881013     -5.879745     0.001269    Cartesian   -0.02
    615 y         -1.960338     -1.960107     0.000231    Cartesian   -0.01
    615 z         17.643040     17.640514    -0.002525    Cartesian   -0.01
    616 x        -15.682702    -15.675779     0.006923    Cartesian   -0.04
    616 y          0.000000      0.000000     0.000000    Cartesian    0.00
    616 z          7.841351      7.838062    -0.003289    Cartesian   -0.04
    617 x          3.920675      3.918695    -0.001981    Cartesian   -0.05
    617 y         11.762026     11.759391    -0.002636    Cartesian   -0.02
    617 z         15.682702     15.678763    -0.003939    Cartesian   -0.03
    618 x          3.920675      3.919325    -0.001350    Cartesian   -0.03
    618 y          0.000000      0.000000     0.000000    Cartesian    0.00
    618 z         19.603377     19.597593    -0.005785    Cartesian   -0.03
    619 x        -13.722364    -13.718838     0.003526    Cartesian   -0.03
    619 y          5.881013      5.879539    -0.001475    Cartesian   -0.03
    619 z          9.801689      9.799387    -0.002301    Cartesian   -0.02
    620 x          5.881013      5.879525    -0.001488    Cartesian   -0.03
    620 y         13.722364     13.721210    -0.001155    Cartesian   -0.01
    620 z         13.722364     13.721210    -0.001155    Cartesian   -0.01
    621 x          0.000000     -0.000436    -0.000436    Cartesian    0.00
    621 y         11.762026     11.758235    -0.003792    Cartesian   -0.03
    621 z         15.682702     15.677742    -0.004960    Cartesian   -0.03
    622 x          0.000000     -0.000035    -0.000035    Cartesian    0.00
    622 y          0.000000      0.000000     0.000000    Cartesian    0.00
    622 z         19.603377     19.596603    -0.006774    Cartesian   -0.03
    623 x         -1.960338     -1.959749     0.000589    Cartesian   -0.03
    623 y         13.722364     13.719788    -0.002576    Cartesian   -0.02
    623 z         13.722364     13.719788    -0.002576    Cartesian   -0.02
    624 x         11.762026     11.759406    -0.002620    Cartesian   -0.02
    624 y          7.841351      7.840695    -0.000656    Cartesian   -0.01
    624 z         15.682702     15.680156    -0.002546    Cartesian   -0.02
    625 x        -11.762026    -11.756361     0.005665    Cartesian   -0.05
    625 y          7.841351      7.837948    -0.003403    Cartesian   -0.04
    625 z         11.762026     11.756829    -0.005197    Cartesian   -0.04
--------------------------------------------------------------------------------


  Time to end of optimisation  =      101.9565 seconds


  Peak dynamic memory used =    1737.46 MB 


  Timing analysis for GULP :

--------------------------------------------------------------------------------
  Task / Subroutine                                          Time (Seconds)
--------------------------------------------------------------------------------
  Calculation of reciprocal space energy and derivatives          0.0002
  Calculation of reciprocal space energy using symmetry           0.0003
  Calculation of real space energy and derivatives                0.0016
  Calculation of real space energy using symmetry                 0.0035
  Calculation for region 1 energy and derivatives (2-b)          57.3515
  Calculation for region 2a energy                               15.7843
  Calculation for region 2b energy                                0.0028
  Calculation and manipulation of Hessian matrix                 25.8646
  Calculation of matrix inversion                                 2.0832
  Symmetry generation of equivalent positions                     0.0017
--------------------------------------------------------------------------------
  Total CPU time                                                101.9566
--------------------------------------------------------------------------------


  Dump file written as Li3OCl.grs


  Job Finished at 17:53.23 20th October    2020                               

