********************************************************************************
*                       GENERAL UTILITY LATTICE PROGRAM                        *
*                                 Julian Gale                                  *
*                       Curtin Institute for Computation                       *
*                    School of Molecular and Life Sciences                     *
*                    Curtin University, Western Australia                      *
********************************************************************************
* Version = 5.2.0 * Last modified =  10th September 2020                       *
********************************************************************************
*  optimise     - perform optimisation run                                     *
*  conp         - constant pressure calculation                                *
*  property     - calculate properties for final geometry                      *
*  defect       - perform defect calculation after bulk run                    *
*  compare      - compare initial and final structures                         *
********************************************************************************

  Job Started  at 17:55.34 20th October    2020                               

  Number of CPUs =     1


  Total number of configurations input =      1

********************************************************************************
*  Input for Configuration =   1                                               *
********************************************************************************

  Formula = ClOLi3                                                      

  Number of irreducible atoms/shells =       5


  Total number atoms/shells =       7

  Dimensionality = 3               :  Bulk   


  Symmetry :

  Crystal family                   :  Cubic       
  Crystal class  (Groth - 1921)    :  Cubic Hexakisoctahedral              

  Space group (centrosymmetric)    :  P M 3 M         

  Patterson group                  :  P m -3 m 

  Cartesian lattice vectors (Angstroms) :

        3.918873    0.000000    0.000000
        0.000000    3.918873    0.000000
        0.000000    0.000000    3.918873

  Cell parameters (Angstroms/Degrees):

  a =       3.9189    alpha =  90.0000
  b =       3.9189    beta  =  90.0000
  c =       3.9189    gamma =  90.0000

  Initial cell volume =          60.184349 Angs**3

  Temperature of configuration =   0.00     K 

  Pressure of configuration =         0.000 GPa 

  Fractional coordinates of asymmetric unit :

--------------------------------------------------------------------------------
   No.  Atomic       x           y          z         Charge      Occupancy
        Label      (Frac)      (Frac)     (Frac)        (e)         (Frac)  
--------------------------------------------------------------------------------
      1 Cl    c    0.000000    0.000000    0.000000     1.48500    1.000000    
      2 O     c    0.500000    0.500000    0.500000     0.18300    1.000000    
      3 Li    c    0.500000    0.500000    0.000000     1.00000    1.000000    
      4 Cl    s    0.000000    0.000000    0.000000    -2.48500    1.000000    
      5 O     s    0.500000    0.500000    0.500000    -2.18300    1.000000    
--------------------------------------------------------------------------------


  Constraints : 

--------------------------------------------------------------------------------
  Constraint no.      Unconstrained     Constrained    Coefficient    Offset
                         Variable         Variable
--------------------------------------------------------------------------------
           1              Strain 1        Strain 2       1.00000      0.0000
           2              Strain 1        Strain 3       1.00000      0.0000
--------------------------------------------------------------------------------


********************************************************************************
*  General input information                                                   *
********************************************************************************

  Species output for all configurations : 

--------------------------------------------------------------------------------
  Species    Type    Atomic    Atomic    Charge       Radii (Angs)     Library
                     Number     Mass       (e)     Cova   Ionic  VDW   Symbol
--------------------------------------------------------------------------------
    Li       Core        3       6.94   1.000000   0.680  0.000  1.800          
    O        Core        8      16.00   0.183000   0.730  0.000  1.360          
    O        Shell       8       0.00  -2.183000   0.730  0.000  1.360          
    Cl       Core       17      35.45   1.485000   0.990  0.000  1.650          
    Cl       Shell      17       0.00  -2.485000   0.990  0.000  1.650          
--------------------------------------------------------------------------------


  Lattice summation method               =    Ewald          (3-D)
                                         =    Parry          (2-D)
                                         =    Saunders et al (1-D)
  Accuracy factor for lattice sums       =   12.000


  Analytic derivatives to be used

  Time limit = Infinity

  Maximum range for interatomic potentials =    100000.000000 Angstroms

  General interatomic potentials :

--------------------------------------------------------------------------------
Atom  Types   Potential      Parameter       Value         Units   Cutoffs(Ang)
  1     2                                                            Min /  Max 
--------------------------------------------------------------------------------
O    c O    s Spring (c-s)  Spring k 2       593.72000    eV*Ang^-2 0.000  0.800
                            Spring k 4       0.0000000    eV*Ang^-4 
--------------------------------------------------------------------------------
Cl   c Cl   s Spring (c-s)  Spring k 2       29.380000    eV*Ang^-2 0.000  0.800
                            Spring k 4       0.0000000    eV*Ang^-4 
--------------------------------------------------------------------------------
Li   c Li   c Buckingham    Buckingham A     360.53000    eV        0.000 12.000
                            Buckingham rho  0.16100000    Ang       
                            Buckingham C     0.0000000    eV*Ang^6  
--------------------------------------------------------------------------------
Li   c O    s Buckingham    Buckingham A     292.30000    eV        0.000 12.000
                            Buckingham rho  0.34720000    Ang       
                            Buckingham C     0.0000000    eV*Ang^6  
--------------------------------------------------------------------------------
Li   c Cl   s Buckingham    Buckingham A     421.04000    eV        0.000 12.000
                            Buckingham rho  0.33400000    Ang       
                            Buckingham C     0.0000000    eV*Ang^6  
--------------------------------------------------------------------------------
O    s O    s Buckingham    Buckingham A     22764.300    eV        0.000 12.000
                            Buckingham rho  0.14900000    Ang       
                            Buckingham C     13.190000    eV*Ang^6  
--------------------------------------------------------------------------------
O    s Cl   s Buckingham    Buckingham A     8286.9100    eV        0.000 12.000
                            Buckingham rho  0.25900000    Ang       
                            Buckingham C     62.200000    eV*Ang^6  
--------------------------------------------------------------------------------
Cl   s Cl   s Buckingham    Buckingham A     1227.2000    eV        0.000 12.000
                            Buckingham rho  0.32100000    Ang       
                            Buckingham C     14.530000    eV*Ang^6  
--------------------------------------------------------------------------------

********************************************************************************
*  Output for configuration   1                                                *
********************************************************************************


  Components of energy : 

--------------------------------------------------------------------------------
  Interatomic potentials     =           7.26836263 eV    
  Monopole - monopole (real) =         -11.53475722 eV    
  Monopole - monopole (recip)=         -33.94580548 eV    
  Monopole - monopole (total)=         -45.48056271 eV    
--------------------------------------------------------------------------------
  Total lattice energy       =         -38.21220008 eV    
--------------------------------------------------------------------------------
  Total lattice energy       =           -3686.8932 kJ/(mole unit cells)
--------------------------------------------------------------------------------


  Number of variables =        1

  Maximum number of calculations  =          1000
  Maximum Hessian update interval =            10
  Maximum step size               =   1.000000000
  Maximum parameter tolerance     =   0.000010000
  Maximum function  tolerance     =   0.000010000
  Maximum gradient  tolerance     =   0.001000000
  Maximum gradient  component     =   0.010000000

  Symmetry constrained optimisation

  Symmetry used for second derivatives

  Cell parameters to be optimised using strains

  Newton-Raphson optimiser to be used

  BFGS hessian update to be used

  Lower half triangular hessian to be used

  Start of bulk optimisation :

  Cycle:      0 Energy:       -38.212200  Gnorm:      0.095699  CPU:    0.006
  ** Hessian calculated **
  Cycle:      1 Energy:       -38.212222  Gnorm:      0.000105  CPU:    0.007


  **** Optimisation achieved ****


  Final energy =     -38.21222207 eV
  Final Gnorm  =       0.00000016

  Components of energy : 

--------------------------------------------------------------------------------
  Interatomic potentials     =           7.24743141 eV    
  Monopole - monopole (real) =         -11.52945423 eV    
  Monopole - monopole (recip)=         -33.93019924 eV    
  Monopole - monopole (total)=         -45.45965348 eV    
--------------------------------------------------------------------------------
  Total lattice energy       =         -38.21222207 eV    
--------------------------------------------------------------------------------
  Total lattice energy       =           -3686.8953 kJ/(mole unit cells)
--------------------------------------------------------------------------------

  Final asymmetric unit coordinates :

--------------------------------------------------------------------------------
   No.  Atomic        x           y           z         Radius
        Label       (Frac)      (Frac)      (Frac)       (Angs) 
--------------------------------------------------------------------------------
     1  Cl    c     0.000000    0.000000    0.000000    0.000000
     2  O     c     0.500000    0.500000    0.500000    0.000000
     3  Li    c     0.500000    0.500000    0.000000    0.000000
     4  Cl    s     0.000000    0.000000    0.000000    0.000000
     5  O     s     0.500000    0.500000    0.500000    0.000000
--------------------------------------------------------------------------------

  Final Cartesian lattice vectors (Angstroms) :

        3.920675    0.000000    0.000000
        0.000000    3.920675    0.000000
        0.000000    0.000000    3.920675


  Final cell parameters and derivatives :

--------------------------------------------------------------------------------
       a            3.920675 Angstrom     dE/de1(xx)    -0.000000 eV/strain
       b            3.920675 Angstrom     dE/de2(yy)     0.000000 eV/strain
       c            3.920675 Angstrom     dE/de3(zz)     0.000000 eV/strain
       alpha       90.000000 Degrees      dE/de4(yz)     0.000000 eV/strain
       beta        90.000000 Degrees      dE/de5(xz)     0.000000 eV/strain
       gamma       90.000000 Degrees      dE/de6(xy)     0.000000 eV/strain
--------------------------------------------------------------------------------

  Primitive cell volume =            60.267433 Angs**3

  Density of cell =      1.991276 g/cm**3

  Non-primitive cell volume =            60.267433 Angs**3


  Final internal derivatives :

--------------------------------------------------------------------------------
   No.  Atomic          a             b             c           Radius
        Label          (eV)          (eV)          (eV)        (eV/Angs)
--------------------------------------------------------------------------------
      1 Cl    c       0.000000      0.000000      0.000000      0.000000
      2 O     c       0.000000      0.000000      0.000000      0.000000
      3 Li    c       0.000000      0.000000      0.000000      0.000000
      4 Cl    s       0.000000      0.000000      0.000000      0.000000
      5 O     s       0.000000      0.000000      0.000000      0.000000
--------------------------------------------------------------------------------
  Maximum abs         0.000000      0.000000      0.000000      0.000000
--------------------------------------------------------------------------------

  Comparison of initial and final structures : 

--------------------------------------------------------------------------------
  Parameter   Initial value   Final value   Difference    Units      Percent
--------------------------------------------------------------------------------
    Volume        60.184349     60.267433     0.083084    Angs**3      0.14
    a              3.918873      3.920675     0.001802    Angstroms    0.05
    b              3.918873      3.920675     0.001802    Angstroms    0.05
    c              3.918873      3.920675     0.001802    Angstroms    0.05
    alpha         90.000000     90.000000     0.000000    Degrees      0.00
    beta          90.000000     90.000000     0.000000    Degrees      0.00
    gamma         90.000000     90.000000     0.000000    Degrees      0.00
      1 x          0.000000      0.000000     0.000000    Fractional   0.00
      1 y          0.000000      0.000000     0.000000    Fractional   0.00
      1 z          0.000000      0.000000     0.000000    Fractional   0.00
      2 x          0.500000      0.500000     0.000000    Fractional   0.00
      2 y          0.500000      0.500000     0.000000    Fractional   0.00
      2 z          0.500000      0.500000     0.000000    Fractional   0.00
      3 x          0.500000      0.500000     0.000000    Fractional   0.00
      3 y          0.500000      0.500000     0.000000    Fractional   0.00
      3 z          0.000000      0.000000     0.000000    Fractional   0.00
      4 x          0.000000      0.000000     0.000000    Fractional   0.00
      4 y          0.000000      0.000000     0.000000    Fractional   0.00
      4 z          0.000000      0.000000     0.000000    Fractional   0.00
      5 x          0.500000      0.500000     0.000000    Fractional   0.00
      5 y          0.500000      0.500000     0.000000    Fractional   0.00
      5 z          0.500000      0.500000     0.000000    Fractional   0.00
--------------------------------------------------------------------------------


  Born effective charge tensors : 

-------------------------------------------------------------------------------
  Atom             x           y             z
-------------------------------------------------------------------------------
    1 Cl    x      -0.9489     -0.0000     -0.0000
            y      -0.0000     -0.9489     -0.0000
            z      -0.0000     -0.0000     -0.9489
-------------------------------------------------------------------------------
    2 O     x      -2.4688      0.0000      0.0000
            y       0.0000     -2.4688      0.0000
            z       0.0000      0.0000     -2.4688
-------------------------------------------------------------------------------
    3 Li    x       1.3129      0.0000     -0.0000
            y       0.0000      1.3129      0.0000
            z      -0.0000      0.0000      0.7919
-------------------------------------------------------------------------------




  Elastic Constant Matrix: (Units=GPa)

-------------------------------------------------------------------------------
  Indices      1         2         3         4         5         6    
-------------------------------------------------------------------------------
       1     94.3368   44.9178   44.9178    0.0000   -0.0000    0.0000
       2     44.9178   94.3368   44.9178   -0.0000    0.0000   -0.0000
       3     44.9178   44.9178   94.3368    0.0000   -0.0000    0.0000
       4      0.0000   -0.0000    0.0000   44.9178   -0.0000    0.0000
       5     -0.0000    0.0000   -0.0000   -0.0000   44.9178    0.0000
       6      0.0000   -0.0000    0.0000    0.0000    0.0000   44.9178
-------------------------------------------------------------------------------


  Elastic Compliance Matrix: (Units=1/GPa)

-------------------------------------------------------------------------------
  Indices      1         2         3         4         5         6    
-------------------------------------------------------------------------------
       1    0.015300 -0.004935 -0.004935 -0.000000  0.000000 -0.000000
       2   -0.004935  0.015300 -0.004935  0.000000 -0.000000  0.000000
       3   -0.004935 -0.004935  0.015300 -0.000000  0.000000 -0.000000
       4   -0.000000  0.000000 -0.000000  0.022263  0.000000 -0.000000
       5    0.000000 -0.000000  0.000000  0.000000  0.022263 -0.000000
       6   -0.000000  0.000000 -0.000000 -0.000000 -0.000000  0.022263
-------------------------------------------------------------------------------

  Mechanical properties :

-------------------------------------------------------------------------------
  Convention :                    Reuss         Voigt         Hill
-------------------------------------------------------------------------------
  Bulk  Modulus (GPa)     =      61.39080      61.39080      61.39080
  Shear Modulus (GPa)     =      33.84570      36.83448      35.34009
-------------------------------------------------------------------------------
  Velocity S-wave (km/s)  =       4.12274       4.30092       4.21277
  Velocity P-wave (km/s)  =       7.31386       7.44942       7.38195
-------------------------------------------------------------------------------
  Compressibility (1/GPa) =    0.01628909
-------------------------------------------------------------------------------
  Stress axis :                     x             y             z
-------------------------------------------------------------------------------
  Youngs Moduli (GPa)     =      65.35947      65.35947      65.35947
-------------------------------------------------------------------------------
  Poissons Ratio (x)      =                     0.32256       0.32256
  Poissons Ratio (y)      =       0.32256                     0.32256
  Poissons Ratio (z)      =       0.32256       0.32256
-------------------------------------------------------------------------------


  Piezoelectric Strain Matrix: (Units=C/m**2)

-------------------------------------------------------------------------------
  Indices      1         2         3         4         5         6    
-------------------------------------------------------------------------------
       x    -0.00000   0.00000   0.00000  -0.00000  -0.00000   0.00000
       y    -0.00000   0.00000   0.00000  -0.00000  -0.00000  -0.00000
       z     0.00000   0.00000   0.00000   0.00000  -0.00000  -0.00000
-------------------------------------------------------------------------------


  Piezoelectric Stress Matrix: (Units=10**-11 C/N)

-------------------------------------------------------------------------------
  Indices      1         2         3         4         5         6    
-------------------------------------------------------------------------------
       x    -0.00000   0.00000   0.00000  -0.00000  -0.00000   0.00000
       y    -0.00000   0.00000   0.00000  -0.00000  -0.00000  -0.00000
       z    -0.00000  -0.00000   0.00000   0.00000  -0.00000  -0.00000
-------------------------------------------------------------------------------


  Static dielectric constant tensor : 

-------------------------------------------------------------------------------
              x         y         z
-------------------------------------------------------------------------------
       x    12.11703   0.00000  -0.00000
       y     0.00000  12.11703  -0.00000
       z    -0.00000  -0.00000  12.11703
--------------------------------------------------------------------------------

  High frequency dielectric constant tensor : 

-------------------------------------------------------------------------------
              x         y         z
-------------------------------------------------------------------------------
       x     1.74104   0.00000   0.00000
       y     0.00000   1.74104   0.00000
       z     0.00000   0.00000   1.74104
-------------------------------------------------------------------------------

  Static refractive indices : 

-------------------------------------------------------------------------------
    1 =    3.48095      2 =    3.48095      3 =    3.48095
-------------------------------------------------------------------------------

  High frequency refractive indices : 

-------------------------------------------------------------------------------
    1 =    1.31948      2 =    1.31948      3 =    1.31948
-------------------------------------------------------------------------------


  Time to end of optimisation =       0.0107 seconds

********************************************************************************
*  Defect calculation for configuration   1 :                                  *
********************************************************************************

  Total number of defects =      3

  Total charge on defect  =   1.00

  Defect centre is at   2.7432   0.0000   0.0000  Angs

  Region 1 radius =  20.0000      Number of ions =   3862

  Number of symmetry inequivalent region 1 ions  =    621

  Region 2 radius =  24.0000      Number of ions =   2876

  Number of symmetry inequivalent region 2a ions =    420

  Region 2a mode = 4 : screened electrostatics due to region 1 
                       neglect correction to region 1 forces from 2a
                       region 2a displacements based on defects only

  Region 2a ions will only interact with defects in region 1

  Vacancies:

--------------------------------------------------------------------------------
    Specification type     Symbol/Number         x          y          z
--------------------------------------------------------------------------------
    Cartesian                                0.000000   0.000000   0.000000
    Cartesian                                3.918873   0.000000   0.000000
--------------------------------------------------------------------------------

  Interstitials:

--------------------------------------------------------------------------------
    Specification type     Symbol/Number         x          y          z
--------------------------------------------------------------------------------
    Atom/Fractional         Cl               2.743211   0.000000   0.000000
--------------------------------------------------------------------------------


  Symmetry reduced region 1 (Relative to defect centre) :

--------------------------------------------------------------------------------
   No.   Atomic       x            y             z       Radius  Multiplicity   
         Label      (Angs)       (Angs)        (Angs)    (Angs)     
--------------------------------------------------------------------------------
     1  Li    c     -0.7829 *    -1.9603 *     0.0000    0.0000     4          
     2  O     c     -0.7829 *    -1.9603 *    -1.9603    0.0000     4          
     3  Li    c      1.1775 *    -1.9603 *    -1.9603    0.0000     4          
     4  Li    c      3.1378 *    -1.9603 *     0.0000    0.0000     4          
     5  Li    c     -2.7432 *    -1.9603 *    -1.9603    0.0000     4          
     6  Cl    c      4.0914       0.0000       0.0000    0.0000     1    Defect
     7  Cl    c      1.1775 *     0.0000       3.9207 *  0.0000     4          
     8  O     c      3.1378 *    -1.9603 *    -1.9603    0.0000     4          
     9  Li    c     -0.7829 *    -1.9603 *     3.9207 *  0.0000     8          
    10  Cl    c     -2.7432 *     0.0000       3.9207 *  0.0000     4          
    11  Li    c     -4.7035 *    -1.9603 *     0.0000    0.0000     4          
    12  Cl    c      5.0981 *     0.0000       0.0000    0.0000     1          
    13  Li    c      3.1378 *    -1.9603 *     3.9207 *  0.0000     8          
    14  O     c     -4.7035 *    -1.9603 *    -1.9603    0.0000     4          
    15  Cl    c      1.1775 *     3.9207 *     3.9207    0.0000     4          
    16  Li    c      5.0981 *    -1.9603 *    -1.9603    0.0000     4          
    17  Li    c     -0.7829 *     5.8810 *     0.0000    0.0000     4          
    18  Cl    c     -2.7432 *     3.9207 *     3.9207    0.0000     4          
    19  O     c     -0.7829 *    -1.9603 *     5.8810 *  0.0000     8          
    20  Li    c      1.1775 *    -1.9603 *     5.8810 *  0.0000     8          
    21  Li    c     -4.7035 *    -1.9603 *     3.9207 *  0.0000     8          
    22  Cl    c      5.0981 *     0.0000       3.9207 *  0.0000     4          
    23  Cl    c     -6.6639 *     0.0000       0.0000    0.0000     1          
    24  Li    c      3.1378 *     5.8810 *     0.0000    0.0000     4          
    25  Li    c     -2.7432 *    -1.9603 *     5.8810 *  0.0000     8          
    26  O     c      3.1378 *     5.8810 *    -1.9603 *  0.0000     8          
    27  Li    c     -0.7829 *     5.8810 *     3.9207 *  0.0000     8          
    28  Li    c     -6.6639 *    -1.9603 *    -1.9603    0.0000     4          
    29  Li    c      7.0585 *    -1.9603 *     0.0000    0.0000     4          
    30  Li    c     -4.7035 *     5.8810 *     0.0000    0.0000     4          
    31  Cl    c      5.0981 *     3.9207 *     3.9207    0.0000     4          
    32  O     c      7.0585 *    -1.9603 *    -1.9603    0.0000     4          
    33  Cl    c     -6.6639 *     0.0000       3.9207 *  0.0000     4          
    34  Li    c      3.1378 *     5.8810 *     3.9207 *  0.0000     8          
    35  O     c     -4.7035 *    -1.9603 *     5.8810 *  0.0000     8          
    36  Cl    c      1.1775 *     0.0000       7.8414 *  0.0000     4          
    37  Li    c      5.0981 *    -1.9603 *     5.8810 *  0.0000     8          
    38  Li    c     -0.7829 *    -1.9603 *     7.8414 *  0.0000     8          
    39  Cl    c     -2.7432 *     0.0000       7.8414 *  0.0000     4          
    40  Li    c      7.0585 *    -1.9603 *     3.9207 *  0.0000     8          
    41  O     c     -0.7829 *     5.8810 *     5.8810    0.0000     4          
    42  Li    c      1.1775 *     5.8810 *     5.8810    0.0000     4          
    43  Li    c     -4.7035 *     3.9207 *     5.8810 *  0.0000     8          
    44  Cl    c     -6.6639 *     3.9207 *     3.9207    0.0000     4          
    45  Li    c      3.1378 *    -1.9603 *     7.8414 *  0.0000     8          
    46  Li    c     -2.7432 *     5.8810 *     5.8810    0.0000     4          
    47  Li    c     -8.6242 *    -1.9603 *     0.0000    0.0000     4          
    48  Cl    c      1.1775 *     3.9207 *     7.8414 *  0.0000     8          
    49  O     c      3.1378 *     5.8810 *     5.8810    0.0000     4          
    50  Cl    c      9.0188 *     0.0000       0.0000    0.0000     1          
    51  O     c     -8.6242 *    -1.9603 *    -1.9603    0.0000     4          
    52  Li    c     -6.6639 *    -1.9603 *     5.8810 *  0.0000     8          
    53  Cl    c     -2.7432 *     3.9207 *     7.8414 *  0.0000     8          
    54  Li    c      7.0585 *     5.8810 *     0.0000    0.0000     4          
    55  Li    c     -4.7035 *    -1.9603 *     7.8414 *  0.0000     8          
    56  Cl    c      5.0981 *     0.0000       7.8414 *  0.0000     4          
    57  O     c      7.0585 *    -1.9603 *     5.8810 *  0.0000     8          
    58  Li    c      9.0188 *    -1.9603 *    -1.9603    0.0000     4          
    59  O     c     -4.7035 *     5.8810 *     5.8810    0.0000     4          
    60  Li    c     -8.6242 *    -1.9603 *     3.9207 *  0.0000     8          
    61  Li    c      5.0981 *     5.8810 *     5.8810    0.0000     4          
    62  Li    c     -0.7829 *     5.8810 *     7.8414 *  0.0000     8          
    63  Li    c     -0.7829 *     9.8017 *     0.0000    0.0000     4          
    64  Cl    c      9.0188 *     0.0000       3.9207 *  0.0000     4          
    65  Li    c      7.0585 *     5.8810 *     3.9207 *  0.0000     8          
    66  O     c     -0.7829 *    -1.9603 *     9.8017 *  0.0000     8          
    67  Li    c      1.1775 *    -1.9603 *     9.8017 *  0.0000     8          
    68  Cl    c      5.0981 *     3.9207 *     7.8414 *  0.0000     8          
    69  Cl    c     -6.6639 *     0.0000       7.8414 *  0.0000     4          
    70  Li    c      3.1378 *     5.8810 *     7.8414 *  0.0000     8          
    71  Li    c      3.1378 *     9.8017 *     0.0000    0.0000     4          
    72  Li    c     -2.7432 *    -1.9603 *     9.8017 *  0.0000     8          
    73  Li    c     -8.6242 *     5.8810 *     0.0000    0.0000     4          
    74  O     c      3.1378 *    -1.9603 *     9.8017 *  0.0000     8          
    75  Cl    c    -10.5846 *     0.0000       0.0000    0.0000     1          
    76  Li    c     -0.7829 *     9.8017 *     3.9207 *  0.0000     8          
    77  Cl    c      9.0188 *     3.9207 *     3.9207    0.0000     4          
    78  O     c     -8.6242 *    -1.9603 *     5.8810 *  0.0000     8          
    79  Li    c     -6.6639 *     5.8810 *     5.8810    0.0000     4          
    80  Li    c      7.0585 *    -1.9603 *     7.8414 *  0.0000     8          
    81  Li    c     -4.7035 *     5.8810 *     7.8414 *  0.0000     8          
    82  Li    c     -4.7035 *     9.8017 *     0.0000    0.0000     4          
    83  O     c      7.0585 *     5.8810 *     5.8810    0.0000     4          
    84  Li    c    -10.5846 *    -1.9603 *    -1.9603    0.0000     4          
    85  Li    c      9.0188 *    -1.9603 *     5.8810 *  0.0000     8          
    86  Cl    c     -6.6639 *     3.9207 *     7.8414 *  0.0000     8          
    87  Li    c      3.1378 *     9.8017 *     3.9207 *  0.0000     8          
    88  O     c     -4.7035 *    -1.9603 *     9.8017 *  0.0000     8          
    89  Li    c     -8.6242 *     5.8810 *     3.9207 *  0.0000     8          
    90  Cl    c      1.1775 *     7.8414 *     7.8414    0.0000     4          
    91  Li    c     10.9792 *    -1.9603 *     0.0000    0.0000     4          
    92  Li    c      5.0981 *    -1.9603 *     9.8017 *  0.0000     8          
    93  Cl    c    -10.5846 *     0.0000       3.9207 *  0.0000     4          
    94  O     c     10.9792 *    -1.9603 *    -1.9603    0.0000     4          
    95  Cl    c     -2.7432 *     7.8414 *     7.8414    0.0000     4          
    96  O     c     -0.7829 *     9.8017 *     5.8810 *  0.0000     8          
    97  Li    c      1.1775 *     9.8017 *     5.8810 *  0.0000     8          
    98  Li    c     -4.7035 *     9.8017 *     3.9207 *  0.0000     8          
    99  Li    c     -2.7432 *     5.8810 *     9.8017 *  0.0000     8          
   100  Li    c     -8.6242 *     7.8414 *    -1.9603 *  0.0000     8          
   101  Cl    c      1.1775 *     0.0000      11.7620 *  0.0000     4          
   102  Li    c     10.9792 *    -1.9603 *     3.9207 *  0.0000     8          
   103  O     c      3.1378 *     5.8810 *     9.8017 *  0.0000     8          
   104  Cl    c    -10.5846 *     3.9207 *     3.9207    0.0000     4          
   105  Li    c     -0.7829 *    -1.9603 *    11.7620 *  0.0000     8          
   106  Cl    c      9.0188 *     0.0000       7.8414 *  0.0000     4          
   107  O     c     -8.6242 *     5.8810 *     5.8810    0.0000     4          
   108  Li    c     -6.6639 *    -1.9603 *     9.8017 *  0.0000     8          
   109  Cl    c     -2.7432 *     0.0000      11.7620 *  0.0000     4          
   110  Li    c      7.0585 *     5.8810 *     7.8414 *  0.0000     8          
   111  Li    c      7.0585 *     9.8017 *     0.0000    0.0000     4          
   112  Cl    c      5.0981 *     7.8414 *     7.8414    0.0000     4          
   113  O     c      7.0585 *     9.8017 *    -1.9603 *  0.0000     8          
   114  Li    c    -10.5846 *     5.8810 *    -1.9603 *  0.0000     8          
   115  Li    c      9.0188 *     5.8810 *     5.8810    0.0000     4          
   116  Li    c      3.1378 *    -1.9603 *    11.7620 *  0.0000     8          
   117  O     c     -4.7035 *     5.8810 *     9.8017 *  0.0000     8          
   118  Cl    c      1.1775 *     3.9207 *    11.7620 *  0.0000     8          
   119  Li    c     10.9792 *     5.8810 *     0.0000    0.0000     4          
   120  Li    c      5.0981 *     5.8810 *     9.8017 *  0.0000     8          
   121  Li    c     -0.7829 *     9.8017 *     7.8414 *  0.0000     8          
   122  Cl    c      9.0188 *     3.9207 *     7.8414 *  0.0000     8          
   123  O     c     10.9792 *     5.8810 *    -1.9603 *  0.0000     8          
   124  Li    c    -12.5449 *    -1.9603 *     0.0000    0.0000     4          
   125  Cl    c     -2.7432 *    11.7620 *     3.9207 *  0.0000     8          
   126  Li    c      7.0585 *     9.8017 *     3.9207 *  0.0000     8          
   127  Li    c     -4.7035 *    -1.9603 *    11.7620 *  0.0000     8          
   128  Cl    c      5.0981 *     0.0000      11.7620 *  0.0000     4          
   129  O     c    -12.5449 *    -1.9603 *    -1.9603    0.0000     4          
   130  Cl    c     -6.6639 *     7.8414 *     7.8414    0.0000     4          
   131  Li    c      3.1378 *     9.8017 *     7.8414 *  0.0000     8          
   132  Cl    c     12.9395 *     0.0000       0.0000    0.0000     1          
   133  Li    c     -8.6242 *     5.8810 *     7.8414 *  0.0000     8          
   134  Li    c     -8.6242 *     9.8017 *     0.0000    0.0000     4          
   135  Li    c     10.9792 *     5.8810 *     3.9207 *  0.0000     8          
   136  Cl    c    -10.5846 *     0.0000       7.8414 *  0.0000     4          
   137  Li    c     -0.7829 *     5.8810 *    11.7620 *  0.0000     8          
   138  O     c     -8.6242 *     9.8017 *    -1.9603 *  0.0000     8          
   139  Li    c     -6.6639 *     5.8810 *     9.8017 *  0.0000     8          
   140  Li    c     12.9395 *    -1.9603 *    -1.9603    0.0000     4          
   141  Li    c    -12.5449 *    -1.9603 *     3.9207 *  0.0000     8          
   142  Li    c     -4.7035 *     9.8017 *     7.8414 *  0.0000     8          
   143  Cl    c      5.0981 *    11.7620 *     3.9207 *  0.0000     8          
   144  O     c      7.0585 *     5.8810 *     9.8017 *  0.0000     8          
   145  Li    c    -10.5846 *     5.8810 *     5.8810    0.0000     4          
   146  Li    c      9.0188 *    -1.9603 *     9.8017 *  0.0000     8          
   147  Cl    c     -6.6639 *     0.0000      11.7620 *  0.0000     4          
   148  Li    c      3.1378 *     5.8810 *    11.7620 *  0.0000     8          
   149  Cl    c     12.9395 *     0.0000       3.9207 *  0.0000     4          
   150  Li    c     -8.6242 *     9.8017 *     3.9207 *  0.0000     8          
   151  Li    c     10.9792 *    -1.9603 *     7.8414 *  0.0000     8          
   152  Cl    c    -10.5846 *     3.9207 *     7.8414 *  0.0000     8          
   153  Li    c     -0.7829 *    13.7224 *     0.0000    0.0000     4          
   154  O     c     10.9792 *     5.8810 *     5.8810    0.0000     4          
   155  Li    c    -12.5449 *     5.8810 *     0.0000    0.0000     4          
   156  Li    c      7.0585 *    -1.9603 *    11.7620 *  0.0000     8          
   157  O     c     -0.7829 *    -1.9603 *    13.7224 *  0.0000     8          
   158  O     c     -0.7829 *     9.8017 *     9.8017    0.0000     4          
   159  Li    c      1.1775 *    -1.9603 *    13.7224 *  0.0000     8          
   160  Li    c      1.1775 *     9.8017 *     9.8017    0.0000     4          
   161  Li    c     -4.7035 *     5.8810 *    11.7620 *  0.0000     8          
   162  O     c    -12.5449 *    -1.9603 *     5.8810 *  0.0000     8          
   163  Cl    c     -6.6639 *     3.9207 *    11.7620 *  0.0000     8          
   164  Li    c      3.1378 *    13.7224 *     0.0000    0.0000     4          
   165  Cl    c     12.9395 *     3.9207 *     3.9207    0.0000     4          
   166  Li    c     -2.7432 *    13.7224 *    -1.9603 *  0.0000     8          
   167  Li    c     -2.7432 *     9.8017 *     9.8017    0.0000     4          
   168  Cl    c      1.1775 *     7.8414 *    11.7620 *  0.0000     8          
   169  O     c      3.1378 *    -1.9603 *    13.7224 *  0.0000     8          
   170  O     c      3.1378 *     9.8017 *     9.8017    0.0000     4          
   171  Li    c     -0.7829 *    13.7224 *     3.9207 *  0.0000     8          
   172  Cl    c      9.0188 *     7.8414 *     7.8414    0.0000     4          
   173  O     c     -8.6242 *     5.8810 *     9.8017 *  0.0000     8          
   174  Li    c     12.9395 *    -1.9603 *     5.8810 *  0.0000     8          
   175  Li    c    -12.5449 *     5.8810 *     3.9207 *  0.0000     8          
   176  Cl    c     -2.7432 *     7.8414 *    11.7620 *  0.0000     8          
   177  Li    c      7.0585 *     9.8017 *     7.8414 *  0.0000     8          
   178  Cl    c    -14.5052 *     0.0000       0.0000    0.0000     1          
   179  Li    c     -4.7035 *    13.7224 *     0.0000    0.0000     4          
   180  Li    c    -10.5846 *     9.8017 *    -1.9603 *  0.0000     8          
   181  Li    c      9.0188 *     5.8810 *     9.8017 *  0.0000     8          
   182  Li    c      3.1378 *    13.7224 *     3.9207 *  0.0000     8          
   183  O     c     -4.7035 *    -1.9603 *    13.7224 *  0.0000     8          
   184  O     c     -4.7035 *     9.8017 *     9.8017    0.0000     4          
   185  Li    c     -8.6242 *    -1.9603 *    11.7620 *  0.0000     8          
   186  Li    c     10.9792 *     5.8810 *     7.8414 *  0.0000     8          
   187  Li    c     10.9792 *     9.8017 *     0.0000    0.0000     4          
   188  Li    c    -14.5052 *    -1.9603 *    -1.9603    0.0000     4          
   189  Li    c      5.0981 *    13.7224 *    -1.9603 *  0.0000     8          
   190  Li    c      5.0981 *     9.8017 *     9.8017    0.0000     4          
   191  Cl    c      9.0188 *     0.0000      11.7620 *  0.0000     4          
   192  O     c     10.9792 *     9.8017 *    -1.9603 *  0.0000     8          
   193  Li    c    -12.5449 *    -1.9603 *     7.8414 *  0.0000     8          
   194  Li    c      7.0585 *     5.8810 *    11.7620 *  0.0000     8          
   195  O     c     -0.7829 *     5.8810 *    13.7224 *  0.0000     8          
   196  Li    c      1.1775 *     5.8810 *    13.7224 *  0.0000     8          
   197  Cl    c    -14.5052 *     0.0000       3.9207 *  0.0000     4          
   198  Li    c     -4.7035 *    13.7224 *     3.9207 *  0.0000     8          
   199  Cl    c      5.0981 *    11.7620 *     7.8414 *  0.0000     8          
   200  Li    c     14.8998 *    -1.9603 *     0.0000    0.0000     4          
   201  O     c    -12.5449 *     5.8810 *     5.8810    0.0000     4          
   202  Cl    c     12.9395 *     0.0000       7.8414 *  0.0000     4          
   203  O     c     14.8998 *    -1.9603 *    -1.9603    0.0000     4          
   204  Li    c     -2.7432 *    13.7224 *     5.8810 *  0.0000     8          
   205  Li    c     -8.6242 *     9.8017 *     7.8414 *  0.0000     8          
   206  Li    c     10.9792 *     9.8017 *     3.9207 *  0.0000     8          
   207  O     c      3.1378 *     5.8810 *    13.7224 *  0.0000     8          
   208  Cl    c    -10.5846 *     7.8414 *     7.8414    0.0000     4          
   209  Li    c     -0.7829 *     9.8017 *    11.7620 *  0.0000     8          
   210  Cl    c      9.0188 *    11.7620 *     3.9207 *  0.0000     8          
   211  Li    c     -6.6639 *    -1.9603 *    13.7224 *  0.0000     8          
   212  Li    c     -6.6639 *     9.8017 *     9.8017    0.0000     4          
   213  Li    c     12.9395 *     5.8810 *     5.8810    0.0000     4          
   214  Li    c      7.0585 *    13.7224 *     0.0000    0.0000     4          
   215  Cl    c    -14.5052 *     3.9207 *     3.9207    0.0000     4          
   216  Li    c     14.8998 *    -1.9603 *     3.9207 *  0.0000     8          
   217  O     c      7.0585 *    13.7224 *    -1.9603 *  0.0000     8          
   218  O     c      7.0585 *     9.8017 *     9.8017    0.0000     4          
   219  Li    c    -10.5846 *     5.8810 *     9.8017 *  0.0000     8          
   220  Cl    c     -6.6639 *     7.8414 *    11.7620 *  0.0000     8          
   221  Li    c      3.1378 *     9.8017 *    11.7620 *  0.0000     8          
   222  Cl    c     12.9395 *     3.9207 *     7.8414 *  0.0000     8          
   223  O     c     -4.7035 *     5.8810 *    13.7224 *  0.0000     8          
   224  Li    c     -8.6242 *     5.8810 *    11.7620 *  0.0000     8          
   225  Cl    c      1.1775 *     0.0000      15.6827 *  0.0000     4          
   226  Li    c    -14.5052 *    -1.9603 *     5.8810 *  0.0000     8          
   227  Li    c      5.0981 *     5.8810 *    13.7224 *  0.0000     8          
   228  Cl    c    -10.5846 *     0.0000      11.7620 *  0.0000     4          
   229  Li    c     -0.7829 *    -1.9603 *    15.6827 *  0.0000     8          
   230  Li    c     -0.7829 *    13.7224 *     7.8414 *  0.0000     8          
   231  O     c     10.9792 *     5.8810 *     9.8017 *  0.0000     8          
   232  Li    c    -12.5449 *     5.8810 *     7.8414 *  0.0000     8          
   233  Li    c    -12.5449 *     9.8017 *     0.0000    0.0000     4          
   234  Cl    c     -2.7432 *     0.0000      15.6827 *  0.0000     4          
   235  Li    c      7.0585 *    13.7224 *     3.9207 *  0.0000     8          
   236  Li    c     -4.7035 *     9.8017 *    11.7620 *  0.0000     8          
   237  Li    c     14.8998 *     5.8810 *     0.0000    0.0000     4          
   238  O     c    -12.5449 *    -1.9603 *     9.8017 *  0.0000     8          
   239  Li    c      3.1378 *    -1.9603 *    15.6827 *  0.0000     8          
   240  Li    c      3.1378 *    13.7224 *     7.8414 *  0.0000     8          
   241  O     c     14.8998 *    -1.9603 *     5.8810 *  0.0000     8          
   242  Li    c     -8.6242 *    13.7224 *     0.0000    0.0000     4          
   243  Cl    c      1.1775 *     3.9207 *    15.6827 *  0.0000     8          
   244  Li    c     10.9792 *    -1.9603 *    11.7620 *  0.0000     8          
   245  Cl    c    -10.5846 *     3.9207 *    11.7620 *  0.0000     8          
   246  O     c     -8.6242 *    -1.9603 *    13.7224 *  0.0000     8          
   247  O     c     -8.6242 *     9.8017 *     9.8017    0.0000     4          
   248  Li    c     -6.6639 *     5.8810 *    13.7224 *  0.0000     8          
   249  Li    c     12.9395 *    -1.9603 *     9.8017 *  0.0000     8          
   250  Li    c    -12.5449 *     9.8017 *     3.9207 *  0.0000     8          
   251  Cl    c     -2.7432 *     3.9207 *    15.6827 *  0.0000     8          
   252  Cl    c    -14.5052 *     0.0000       7.8414 *  0.0000     4          
   253  Li    c     -4.7035 *    -1.9603 *    15.6827 *  0.0000     8          
   254  Li    c     -4.7035 *    13.7224 *     7.8414 *  0.0000     8          
   255  Cl    c      5.0981 *     0.0000      15.6827 *  0.0000     4          
   256  Li    c     14.8998 *     5.8810 *     3.9207 *  0.0000     8          
   257  O     c      7.0585 *     5.8810 *    13.7224 *  0.0000     8          
   258  Li    c      9.0188 *    -1.9603 *    13.7224 *  0.0000     8          
   259  Li    c      9.0188 *     9.8017 *     9.8017    0.0000     4          
   260  Li    c    -16.4656 *    -1.9603 *     0.0000    0.0000     4          
   261  Li    c     -8.6242 *     3.9207 *    13.7224 *  0.0000     8          
   262  Cl    c      1.1775 *    11.7620 *    11.7620    0.0000     4          
   263  Li    c     10.9792 *     9.8017 *     7.8414 *  0.0000     8          
   264  O     c    -16.4656 *    -1.9603 *    -1.9603    0.0000     4          
   265  Li    c    -14.5052 *     5.8810 *     5.8810    0.0000     4          
   266  Li    c     -0.7829 *     5.8810 *    15.6827 *  0.0000     8          
   267  Cl    c      9.0188 *     7.8414 *    11.7620 *  0.0000     8          
   268  Cl    c     -2.7432 *    11.7620 *    11.7620    0.0000     4          
   269  Li    c      7.0585 *     9.8017 *    11.7620 *  0.0000     8          
   270  Cl    c     16.8602 *     0.0000       0.0000    0.0000     1          
   271  O     c     -0.7829 *     9.8017 *    13.7224 *  0.0000     8          
   272  Li    c      1.1775 *     9.8017 *    13.7224 *  0.0000     8          
   273  Cl    c    -14.5052 *     3.9207 *     7.8414 *  0.0000     8          
   274  Cl    c      5.0981 *     3.9207 *    15.6827 *  0.0000     8          
   275  Li    c     14.8998 *    -1.9603 *     7.8414 *  0.0000     8          
   276  O     c    -12.5449 *     5.8810 *     9.8017 *  0.0000     8          
   277  Li    c    -16.4656 *    -1.9603 *     3.9207 *  0.0000     8          
   278  Cl    c     -6.6639 *     0.0000      15.6827 *  0.0000     4          
   279  Li    c      3.1378 *     5.8810 *    15.6827 *  0.0000     8          
   280  Cl    c     12.9395 *     7.8414 *     7.8414    0.0000     4          
   281  O     c     14.8998 *     5.8810 *     5.8810    0.0000     4          
   282  Li    c     -2.7432 *     9.8017 *    13.7224 *  0.0000     8          
   283  Li    c     16.8602 *    -1.9603 *    -1.9603    0.0000     4          
   284  Li    c     10.9792 *     5.8810 *    11.7620 *  0.0000     8          
   285  O     c      3.1378 *     9.8017 *    13.7224 *  0.0000     8          
   286  O     c     -8.6242 *     5.8810 *    13.7224 *  0.0000     8          
   287  Li    c     12.9395 *     5.8810 *     9.8017 *  0.0000     8          
   288  Li    c    -12.5449 *    -1.9603 *    11.7620 *  0.0000     8          
   289  Li    c      7.0585 *    -1.9603 *    15.6827 *  0.0000     8          
   290  Li    c      7.0585 *    13.7224 *     7.8414 *  0.0000     8          
   291  Cl    c     16.8602 *     0.0000       3.9207 *  0.0000     4          
   292  Li    c     -4.7035 *     5.8810 *    15.6827 *  0.0000     8          
   293  Cl    c      5.0981 *    11.7620 *    11.7620    0.0000     4          
   294  Li    c    -10.5846 *    -1.9603 *    13.7224 *  0.0000     8          
   295  Li    c    -10.5846 *     9.8017 *     9.8017    0.0000     4          
   296  Li    c      9.0188 *     5.8810 *    13.7224 *  0.0000     8          
   297  Li    c    -16.4656 *     5.8810 *     0.0000    0.0000     4          
   298  Cl    c     -6.6639 *     3.9207 *    15.6827 *  0.0000     8          
   299  Cl    c     12.9395 *     0.0000      11.7620 *  0.0000     4          
   300  O     c     -4.7035 *     9.8017 *    13.7224 *  0.0000     8          
   301  Li    c     -8.6242 *     9.8017 *    11.7620 *  0.0000     8          
   302  Cl    c      1.1775 *     7.8414 *    15.6827 *  0.0000     8          
   303  Li    c     10.9792 *    13.7224 *     0.0000    0.0000     4          
   304  O     c    -16.4656 *    -1.9603 *     5.8810 *  0.0000     8          
   305  Li    c    -14.5052 *    -1.9603 *     9.8017 *  0.0000     8          
   306  Li    c      5.0981 *     9.8017 *    13.7224 *  0.0000     8          
   307  Cl    c    -10.5846 *     7.8414 *    11.7620 *  0.0000     8          
   308  Li    c     -0.7829 *    17.6430 *     0.0000    0.0000     4          
   309  O     c     10.9792 *    13.7224 *    -1.9603 *  0.0000     8          
   310  O     c     10.9792 *     9.8017 *     9.8017    0.0000     4          
   311  Li    c    -12.5449 *     9.8017 *     7.8414 *  0.0000     8          
   312  Cl    c     -2.7432 *     7.8414 *    15.6827 *  0.0000     8          
   313  Cl    c     16.8602 *     3.9207 *     3.9207    0.0000     4          
   314  O     c     -0.7829 *    17.6430 *    -1.9603 *  0.0000     8          
   315  Li    c      1.1775 *    -1.9603 *    17.6430 *  0.0000     8          
   316  Li    c     14.8998 *     5.8810 *     7.8414 *  0.0000     8          
   317  Li    c     14.8998 *     9.8017 *     0.0000    0.0000     4          
   318  Li    c    -16.4656 *     3.9207 *     5.8810 *  0.0000     8          
   319  Cl    c     -6.6639 *    11.7620 *    11.7620    0.0000     4          
   320  Li    c      3.1378 *    17.6430 *     0.0000    0.0000     4          
   321  Cl    c     12.9395 *     3.9207 *    11.7620 *  0.0000     8          
   322  O     c     14.8998 *    -1.9603 *     9.8017 *  0.0000     8          
   323  Li    c     -2.7432 *    -1.9603 *    17.6430 *  0.0000     8          
   324  Li    c     16.8602 *    -1.9603 *     5.8810 *  0.0000     8          
   325  Li    c     -8.6242 *    15.6827 *    -1.9603 *  0.0000     8          
   326  Li    c     -8.6242 *     7.8414 *    13.7224 *  0.0000     8          
   327  Li    c     10.9792 *    13.7224 *     3.9207 *  0.0000     8          
   328  O     c      3.1378 *    -1.9603 *    17.6430 *  0.0000     8          
   329  Li    c     -0.7829 *    13.7224 *    11.7620 *  0.0000     8          
   330  Li    c     -0.7829 *    17.6430 *     3.9207 *  0.0000     8          
   331  Cl    c      9.0188 *     0.0000      15.6827 *  0.0000     4          
   332  Li    c     -6.6639 *     9.8017 *    13.7224 *  0.0000     8          
   333  Li    c    -12.5449 *     5.8810 *    11.7620 *  0.0000     8          
   334  Li    c      7.0585 *     5.8810 *    15.6827 *  0.0000     8          
   335  Cl    c    -14.5052 *     7.8414 *     7.8414    0.0000     4          
   336  Li    c     -4.7035 *    17.6430 *     0.0000    0.0000     4          
   337  Cl    c      5.0981 *     7.8414 *    15.6827 *  0.0000     8          
   338  Li    c     14.8998 *     3.9207 *     9.8017 *  0.0000     8          
   339  O     c      7.0585 *     9.8017 *    13.7224 *  0.0000     8          
   340  Li    c    -10.5846 *     5.8810 *    13.7224 *  0.0000     8          
   341  Li    c    -16.4656 *    -1.9603 *     7.8414 *  0.0000     8          
   342  Li    c      3.1378 *    13.7224 *    11.7620 *  0.0000     8          
   343  Li    c      3.1378 *     3.9207 *    17.6430 *  0.0000     8          
   344  O     c     -4.7035 *    17.6430 *    -1.9603 *  0.0000     8          
   345  Cl    c    -18.4259 *     0.0000       0.0000    0.0000     1          
   346  O     c    -16.4656 *     5.8810 *     5.8810    0.0000     4          
   347  Li    c    -14.5052 *     5.8810 *     9.8017 *  0.0000     8          
   348  Li    c      5.0981 *    -1.9603 *    17.6430 *  0.0000     8          
   349  Li    c     -0.7829 *     9.8017 *    15.6827 *  0.0000     8          
   350  Cl    c      9.0188 *     3.9207 *    15.6827 *  0.0000     8          
   351  O     c     10.9792 *     5.8810 *    13.7224 *  0.0000     8          
   352  Li    c    -12.5449 *    13.7224 *     0.0000    0.0000     4          
   353  Cl    c     16.8602 *     0.0000       7.8414 *  0.0000     4          
   354  O     c     -0.7829 *     5.8810 *    17.6430 *  0.0000     8          
   355  Li    c    -18.4259 *    -1.9603 *    -1.9603    0.0000     4          
   356  Li    c      1.1775 *     5.8810 *    17.6430 *  0.0000     8          
   357  Cl    c    -14.5052 *     0.0000      11.7620 *  0.0000     4          
   358  Li    c     -4.7035 *    13.7224 *    11.7620 *  0.0000     8          
   359  Li    c     -4.7035 *    17.6430 *     3.9207 *  0.0000     8          
   360  O     c    -12.5449 *    -1.9603 *    13.7224 *  0.0000     8          
   361  O     c    -12.5449 *     9.8017 *     9.8017    0.0000     4          
   362  Cl    c     -6.6639 *     7.8414 *    15.6827 *  0.0000     8          
   363  Li    c      3.1378 *     9.8017 *    15.6827 *  0.0000     8          
   364  O     c     14.8998 *     5.8810 *     9.8017 *  0.0000     8          
   365  Li    c     -2.7432 *     5.8810 *    17.6430 *  0.0000     8          
   366  Li    c     16.8602 *     5.8810 *     5.8810    0.0000     4          
   367  Cl    c    -18.4259 *     0.0000       3.9207 *  0.0000     4          
   368  Li    c     -8.6242 *    15.6827 *     5.8810 *  0.0000     8          
   369  Li    c     10.9792 *     9.8017 *    11.7620 *  0.0000     8          
   370  O     c      3.1378 *     5.8810 *    17.6430 *  0.0000     8          
   371  Cl    c    -10.5846 *     0.0000      15.6827 *  0.0000     4          
   372  Cl    c      9.0188 *    11.7620 *    11.7620    0.0000     4          
   373  Li    c     18.8205 *    -1.9603 *     0.0000    0.0000     4          
   374  O     c     -8.6242 *     9.8017 *    13.7224 *  0.0000     8          
   375  Li    c     -6.6639 *    -1.9603 *    17.6430 *  0.0000     8          
   376  Li    c     12.9395 *    -1.9603 *    13.7224 *  0.0000     8          
   377  Li    c     12.9395 *     9.8017 *     9.8017    0.0000     4          
   378  Li    c    -12.5449 *    13.7224 *     3.9207 *  0.0000     8          
   379  Li    c      7.0585 *    17.6430 *     0.0000    0.0000     4          
   380  Cl    c     16.8602 *     3.9207 *     7.8414 *  0.0000     8          
   381  O     c     18.8205 *    -1.9603 *    -1.9603    0.0000     4          
   382  Cl    c    -14.5052 *     3.9207 *    11.7620 *  0.0000     8          
   383  Li    c     -4.7035 *     9.8017 *    15.6827 *  0.0000     8          
   384  Li    c     14.8998 *    11.7620 *    -1.9603 *  0.0000     8          
   385  O     c      7.0585 *    -1.9603 *    17.6430 *  0.0000     8          
   386  Li    c      9.0188 *     9.8017 *    13.7224 *  0.0000     8          
   387  Li    c    -16.4656 *     9.8017 *     0.0000    0.0000     4          
   388  Li    c    -16.4656 *     7.8414 *     5.8810 *  0.0000     8          
   389  Cl    c     12.9395 *     7.8414 *    11.7620 *  0.0000     8          
   390  O     c     -4.7035 *    17.6430 *     5.8810 *  0.0000     8          
   391  Cl    c    -18.4259 *     3.9207 *     3.9207    0.0000     4          
   392  Li    c     10.9792 *    -1.9603 *    15.6827 *  0.0000     8          
   393  Li    c     10.9792 *    13.7224 *     7.8414 *  0.0000     8          
   394  O     c    -16.4656 *     9.8017 *    -1.9603 *  0.0000     8          
   395  Li    c      5.0981 *    17.6430 *     5.8810 *  0.0000     8          
   396  Cl    c    -10.5846 *     3.9207 *    15.6827 *  0.0000     8          
   397  Li    c     -0.7829 *    17.6430 *     7.8414 *  0.0000     8          
   398  Li    c     18.8205 *    -1.9603 *     3.9207 *  0.0000     8          
   399  Li    c      7.0585 *    13.7224 *    11.7620 *  0.0000     8          
   400  Li    c      7.0585 *    17.6430 *     3.9207 *  0.0000     8          
   401  O     c     -0.7829 *    13.7224 *    13.7224    0.0000     4          
   402  Li    c    -18.4259 *     5.8810 *    -1.9603 *  0.0000     8          
   403  Li    c      1.1775 *    13.7224 *    13.7224    0.0000     4          
   404  Li    c     14.8998 *     7.8414 *     9.8017 *  0.0000     8          
   405  O     c    -12.5449 *     5.8810 *    13.7224 *  0.0000     8          
   406  Li    c    -16.4656 *     9.8017 *     3.9207 *  0.0000     8          
   407  Li    c      3.1378 *     7.8414 *    17.6430 *  0.0000     8          
   408  Li    c     -2.7432 *    13.7224 *    13.7224    0.0000     4          
   409  Li    c     16.8602 *     9.8017 *    -1.9603 *  0.0000     8          
   410  Li    c     -8.6242 *    17.6430 *     0.0000    0.0000     4          
   411  Cl    c      1.1775 *    11.7620 *    15.6827 *  0.0000     8          
   412  Cl    c      1.1775 *     0.0000      19.6034 *  0.0000     4          
   413  O     c      3.1378 *    13.7224 *    13.7224    0.0000     4          
   414  Cl    c    -10.5846 *    11.7620 *    11.7620    0.0000     4          
   415  Li    c     -0.7829 *    19.6034 *    -1.9603 *  0.0000     8          
   416  Cl    c      9.0188 *     7.8414 *    15.6827 *  0.0000     8          
   417  Li    c     18.8205 *     5.8810 *     0.0000    0.0000     4          
   418  O     c     -8.6242 *    -1.9603 *    17.6430 *  0.0000     8          
   419  Li    c     -6.6639 *     5.8810 *    17.6430 *  0.0000     8          
   420  Li    c     12.9395 *     5.8810 *    13.7224 *  0.0000     8          
   421  Li    c    -12.5449 *     9.8017 *    11.7620 *  0.0000     8          
   422  Cl    c     -2.7432 *    11.7620 *    15.6827 *  0.0000     8          
   423  Cl    c     -2.7432 *     0.0000      19.6034 *  0.0000     4          
   424  Li    c      7.0585 *     9.8017 *    15.6827 *  0.0000     8          
   425  O     c     18.8205 *     5.8810 *    -1.9603 *  0.0000     8          
   426  Li    c     -4.7035 *    17.6430 *     7.8414 *  0.0000     8          
   427  Li    c     14.8998 *    11.7620 *     5.8810 *  0.0000     8          
   428  O     c      7.0585 *     5.8810 *    17.6430 *  0.0000     8          
   429  Li    c    -10.5846 *     9.8017 *    13.7224 *  0.0000     8          
   430  Li    c      9.0188 *    17.6430 *    -1.9603 *  0.0000     8          
   431  Li    c      3.1378 *    -1.9603 *    19.6034 *  0.0000     8          
   432  O     c     -4.7035 *    13.7224 *    13.7224    0.0000     4          
   433  O     s     -0.7829 *    -1.9603 *    -1.9603    0.0000     4          
   434  Cl    s      4.0914       0.0000       0.0000    0.0000     1    Defect
   435  Cl    s      1.1775 *     0.0000       3.9207 *  0.0000     4          
   436  O     s      3.1378 *    -1.9603 *    -1.9603    0.0000     4          
   437  Cl    s     -2.7432 *     0.0000       3.9207 *  0.0000     4          
   438  Cl    s      5.0981 *     0.0000       0.0000    0.0000     1          
   439  O     s     -4.7035 *    -1.9603 *    -1.9603    0.0000     4          
   440  Cl    s      1.1775 *     3.9207 *     3.9207    0.0000     4          
   441  Cl    s     -2.7432 *     3.9207 *     3.9207    0.0000     4          
   442  O     s     -0.7829 *    -1.9603 *     5.8810 *  0.0000     8          
   443  Cl    s      5.0981 *     0.0000       3.9207 *  0.0000     4          
   444  Cl    s     -6.6639 *     0.0000       0.0000    0.0000     1          
   445  O     s      3.1378 *     5.8810 *    -1.9603 *  0.0000     8          
   446  Cl    s      5.0981 *     3.9207 *     3.9207    0.0000     4          
   447  O     s      7.0585 *    -1.9603 *    -1.9603    0.0000     4          
   448  Cl    s     -6.6639 *     0.0000       3.9207 *  0.0000     4          
   449  O     s     -4.7035 *    -1.9603 *     5.8810 *  0.0000     8          
   450  Cl    s      1.1775 *     0.0000       7.8414 *  0.0000     4          
   451  Cl    s     -2.7432 *     0.0000       7.8414 *  0.0000     4          
   452  O     s     -0.7829 *     5.8810 *     5.8810    0.0000     4          
   453  Cl    s     -6.6639 *     3.9207 *     3.9207    0.0000     4          
   454  Cl    s      1.1775 *     3.9207 *     7.8414 *  0.0000     8          
   455  O     s      3.1378 *     5.8810 *     5.8810    0.0000     4          
   456  Cl    s      9.0188 *     0.0000       0.0000    0.0000     1          
   457  O     s     -8.6242 *    -1.9603 *    -1.9603    0.0000     4          
   458  Cl    s     -2.7432 *     3.9207 *     7.8414 *  0.0000     8          
   459  Cl    s      5.0981 *     0.0000       7.8414 *  0.0000     4          
   460  O     s      7.0585 *    -1.9603 *     5.8810 *  0.0000     8          
   461  O     s     -4.7035 *     5.8810 *     5.8810    0.0000     4          
   462  Cl    s      9.0188 *     0.0000       3.9207 *  0.0000     4          
   463  O     s     -0.7829 *    -1.9603 *     9.8017 *  0.0000     8          
   464  Cl    s      5.0981 *     3.9207 *     7.8414 *  0.0000     8          
   465  Cl    s     -6.6639 *     0.0000       7.8414 *  0.0000     4          
   466  O     s      3.1378 *    -1.9603 *     9.8017 *  0.0000     8          
   467  Cl    s    -10.5846 *     0.0000       0.0000    0.0000     1          
   468  Cl    s      9.0188 *     3.9207 *     3.9207    0.0000     4          
   469  O     s     -8.6242 *    -1.9603 *     5.8810 *  0.0000     8          
   470  O     s      7.0585 *     5.8810 *     5.8810    0.0000     4          
   471  Cl    s     -6.6639 *     3.9207 *     7.8414 *  0.0000     8          
   472  O     s     -4.7035 *    -1.9603 *     9.8017 *  0.0000     8          
   473  Cl    s      1.1775 *     7.8414 *     7.8414    0.0000     4          
   474  Cl    s    -10.5846 *     0.0000       3.9207 *  0.0000     4          
   475  O     s     10.9792 *    -1.9603 *    -1.9603    0.0000     4          
   476  Cl    s     -2.7432 *     7.8414 *     7.8414    0.0000     4          
   477  O     s     -0.7829 *     9.8017 *     5.8810 *  0.0000     8          
   478  Cl    s      1.1775 *     0.0000      11.7620 *  0.0000     4          
   479  O     s      3.1378 *     5.8810 *     9.8017 *  0.0000     8          
   480  Cl    s    -10.5846 *     3.9207 *     3.9207    0.0000     4          
   481  Cl    s      9.0188 *     0.0000       7.8414 *  0.0000     4          
   482  O     s     -8.6242 *     5.8810 *     5.8810    0.0000     4          
   483  Cl    s     -2.7432 *     0.0000      11.7620 *  0.0000     4          
   484  Cl    s      5.0981 *     7.8414 *     7.8414    0.0000     4          
   485  O     s      7.0585 *     9.8017 *    -1.9603 *  0.0000     8          
   486  O     s     -4.7035 *     5.8810 *     9.8017 *  0.0000     8          
   487  Cl    s      1.1775 *     3.9207 *    11.7620 *  0.0000     8          
   488  Cl    s      9.0188 *     3.9207 *     7.8414 *  0.0000     8          
   489  O     s     10.9792 *     5.8810 *    -1.9603 *  0.0000     8          
   490  Cl    s     -2.7432 *    11.7620 *     3.9207 *  0.0000     8          
   491  Cl    s      5.0981 *     0.0000      11.7620 *  0.0000     4          
   492  O     s    -12.5449 *    -1.9603 *    -1.9603    0.0000     4          
   493  Cl    s     -6.6639 *     7.8414 *     7.8414    0.0000     4          
   494  Cl    s     12.9395 *     0.0000       0.0000    0.0000     1          
   495  Cl    s    -10.5846 *     0.0000       7.8414 *  0.0000     4          
   496  O     s     -8.6242 *     9.8017 *    -1.9603 *  0.0000     8          
   497  Cl    s      5.0981 *    11.7620 *     3.9207 *  0.0000     8          
   498  O     s      7.0585 *     5.8810 *     9.8017 *  0.0000     8          
   499  Cl    s     -6.6639 *     0.0000      11.7620 *  0.0000     4          
   500  Cl    s     12.9395 *     0.0000       3.9207 *  0.0000     4          
   501  Cl    s    -10.5846 *     3.9207 *     7.8414 *  0.0000     8          
   502  O     s     10.9792 *     5.8810 *     5.8810    0.0000     4          
   503  O     s     -0.7829 *    -1.9603 *    13.7224 *  0.0000     8          
   504  O     s     -0.7829 *     9.8017 *     9.8017    0.0000     4          
   505  O     s    -12.5449 *    -1.9603 *     5.8810 *  0.0000     8          
   506  Cl    s     -6.6639 *     3.9207 *    11.7620 *  0.0000     8          
   507  Cl    s     12.9395 *     3.9207 *     3.9207    0.0000     4          
   508  Cl    s      1.1775 *     7.8414 *    11.7620 *  0.0000     8          
   509  O     s      3.1378 *    -1.9603 *    13.7224 *  0.0000     8          
   510  O     s      3.1378 *     9.8017 *     9.8017    0.0000     4          
   511  Cl    s      9.0188 *     7.8414 *     7.8414    0.0000     4          
   512  O     s     -8.6242 *     5.8810 *     9.8017 *  0.0000     8          
   513  Cl    s     -2.7432 *     7.8414 *    11.7620 *  0.0000     8          
   514  Cl    s    -14.5052 *     0.0000       0.0000    0.0000     1          
   515  O     s     -4.7035 *    -1.9603 *    13.7224 *  0.0000     8          
   516  O     s     -4.7035 *     9.8017 *     9.8017    0.0000     4          
   517  Cl    s      9.0188 *     0.0000      11.7620 *  0.0000     4          
   518  O     s     10.9792 *     9.8017 *    -1.9603 *  0.0000     8          
   519  O     s     -0.7829 *     5.8810 *    13.7224 *  0.0000     8          
   520  Cl    s    -14.5052 *     0.0000       3.9207 *  0.0000     4          
   521  Cl    s      5.0981 *    11.7620 *     7.8414 *  0.0000     8          
   522  O     s    -12.5449 *     5.8810 *     5.8810    0.0000     4          
   523  Cl    s     12.9395 *     0.0000       7.8414 *  0.0000     4          
   524  O     s     14.8998 *    -1.9603 *    -1.9603    0.0000     4          
   525  O     s      3.1378 *     5.8810 *    13.7224 *  0.0000     8          
   526  Cl    s    -10.5846 *     7.8414 *     7.8414    0.0000     4          
   527  Cl    s      9.0188 *    11.7620 *     3.9207 *  0.0000     8          
   528  Cl    s    -14.5052 *     3.9207 *     3.9207    0.0000     4          
   529  O     s      7.0585 *    13.7224 *    -1.9603 *  0.0000     8          
   530  O     s      7.0585 *     9.8017 *     9.8017    0.0000     4          
   531  Cl    s     -6.6639 *     7.8414 *    11.7620 *  0.0000     8          
   532  Cl    s     12.9395 *     3.9207 *     7.8414 *  0.0000     8          
   533  O     s     -4.7035 *     5.8810 *    13.7224 *  0.0000     8          
   534  Cl    s      1.1775 *     0.0000      15.6827 *  0.0000     4          
   535  Cl    s    -10.5846 *     0.0000      11.7620 *  0.0000     4          
   536  O     s     10.9792 *     5.8810 *     9.8017 *  0.0000     8          
   537  Cl    s     -2.7432 *     0.0000      15.6827 *  0.0000     4          
   538  O     s    -12.5449 *    -1.9603 *     9.8017 *  0.0000     8          
   539  O     s     14.8998 *    -1.9603 *     5.8810 *  0.0000     8          
   540  Cl    s      1.1775 *     3.9207 *    15.6827 *  0.0000     8          
   541  Cl    s    -10.5846 *     3.9207 *    11.7620 *  0.0000     8          
   542  O     s     -8.6242 *    -1.9603 *    13.7224 *  0.0000     8          
   543  O     s     -8.6242 *     9.8017 *     9.8017    0.0000     4          
   544  Cl    s     -2.7432 *     3.9207 *    15.6827 *  0.0000     8          
   545  Cl    s    -14.5052 *     0.0000       7.8414 *  0.0000     4          
   546  Cl    s      5.0981 *     0.0000      15.6827 *  0.0000     4          
   547  O     s      7.0585 *     5.8810 *    13.7224 *  0.0000     8          
   548  Cl    s      1.1775 *    11.7620 *    11.7620    0.0000     4          
   549  O     s    -16.4656 *    -1.9603 *    -1.9603    0.0000     4          
   550  Cl    s      9.0188 *     7.8414 *    11.7620 *  0.0000     8          
   551  Cl    s     -2.7432 *    11.7620 *    11.7620    0.0000     4          
   552  Cl    s     16.8602 *     0.0000       0.0000    0.0000     1          
   553  O     s     -0.7829 *     9.8017 *    13.7224 *  0.0000     8          
   554  Cl    s    -14.5052 *     3.9207 *     7.8414 *  0.0000     8          
   555  Cl    s      5.0981 *     3.9207 *    15.6827 *  0.0000     8          
   556  O     s    -12.5449 *     5.8810 *     9.8017 *  0.0000     8          
   557  Cl    s     -6.6639 *     0.0000      15.6827 *  0.0000     4          
   558  Cl    s     12.9395 *     7.8414 *     7.8414    0.0000     4          
   559  O     s     14.8998 *     5.8810 *     5.8810    0.0000     4          
   560  O     s      3.1378 *     9.8017 *    13.7224 *  0.0000     8          
   561  O     s     -8.6242 *     5.8810 *    13.7224 *  0.0000     8          
   562  Cl    s     16.8602 *     0.0000       3.9207 *  0.0000     4          
   563  Cl    s      5.0981 *    11.7620 *    11.7620    0.0000     4          
   564  Cl    s     -6.6639 *     3.9207 *    15.6827 *  0.0000     8          
   565  Cl    s     12.9395 *     0.0000      11.7620 *  0.0000     4          
   566  O     s     -4.7035 *     9.8017 *    13.7224 *  0.0000     8          
   567  Cl    s      1.1775 *     7.8414 *    15.6827 *  0.0000     8          
   568  O     s    -16.4656 *    -1.9603 *     5.8810 *  0.0000     8          
   569  Cl    s    -10.5846 *     7.8414 *    11.7620 *  0.0000     8          
   570  O     s     10.9792 *    13.7224 *    -1.9603 *  0.0000     8          
   571  O     s     10.9792 *     9.8017 *     9.8017    0.0000     4          
   572  Cl    s     -2.7432 *     7.8414 *    15.6827 *  0.0000     8          
   573  Cl    s     16.8602 *     3.9207 *     3.9207    0.0000     4          
   574  O     s     -0.7829 *    17.6430 *    -1.9603 *  0.0000     8          
   575  Cl    s     -6.6639 *    11.7620 *    11.7620    0.0000     4          
   576  Cl    s     12.9395 *     3.9207 *    11.7620 *  0.0000     8          
   577  O     s     14.8998 *    -1.9603 *     9.8017 *  0.0000     8          
   578  O     s      3.1378 *    -1.9603 *    17.6430 *  0.0000     8          
   579  Cl    s      9.0188 *     0.0000      15.6827 *  0.0000     4          
   580  Cl    s    -14.5052 *     7.8414 *     7.8414    0.0000     4          
   581  Cl    s      5.0981 *     7.8414 *    15.6827 *  0.0000     8          
   582  O     s      7.0585 *     9.8017 *    13.7224 *  0.0000     8          
   583  O     s     -4.7035 *    17.6430 *    -1.9603 *  0.0000     8          
   584  Cl    s    -18.4259 *     0.0000       0.0000    0.0000     1          
   585  O     s    -16.4656 *     5.8810 *     5.8810    0.0000     4          
   586  Cl    s      9.0188 *     3.9207 *    15.6827 *  0.0000     8          
   587  O     s     10.9792 *     5.8810 *    13.7224 *  0.0000     8          
   588  Cl    s     16.8602 *     0.0000       7.8414 *  0.0000     4          
   589  O     s     -0.7829 *     5.8810 *    17.6430 *  0.0000     8          
   590  Cl    s    -14.5052 *     0.0000      11.7620 *  0.0000     4          
   591  O     s    -12.5449 *    -1.9603 *    13.7224 *  0.0000     8          
   592  O     s    -12.5449 *     9.8017 *     9.8017    0.0000     4          
   593  Cl    s     -6.6639 *     7.8414 *    15.6827 *  0.0000     8          
   594  O     s     14.8998 *     5.8810 *     9.8017 *  0.0000     8          
   595  Cl    s    -18.4259 *     0.0000       3.9207 *  0.0000     4          
   596  O     s      3.1378 *     5.8810 *    17.6430 *  0.0000     8          
   597  Cl    s    -10.5846 *     0.0000      15.6827 *  0.0000     4          
   598  Cl    s      9.0188 *    11.7620 *    11.7620    0.0000     4          
   599  O     s     -8.6242 *     9.8017 *    13.7224 *  0.0000     8          
   600  Cl    s     16.8602 *     3.9207 *     7.8414 *  0.0000     8          
   601  O     s     18.8205 *    -1.9603 *    -1.9603    0.0000     4          
   602  Cl    s    -14.5052 *     3.9207 *    11.7620 *  0.0000     8          
   603  O     s      7.0585 *    -1.9603 *    17.6430 *  0.0000     8          
   604  Cl    s     12.9395 *     7.8414 *    11.7620 *  0.0000     8          
   605  O     s     -4.7035 *    17.6430 *     5.8810 *  0.0000     8          
   606  Cl    s    -18.4259 *     3.9207 *     3.9207    0.0000     4          
   607  O     s    -16.4656 *     9.8017 *    -1.9603 *  0.0000     8          
   608  Cl    s    -10.5846 *     3.9207 *    15.6827 *  0.0000     8          
   609  O     s     -0.7829 *    13.7224 *    13.7224    0.0000     4          
   610  O     s    -12.5449 *     5.8810 *    13.7224 *  0.0000     8          
   611  Cl    s      1.1775 *    11.7620 *    15.6827 *  0.0000     8          
   612  Cl    s      1.1775 *     0.0000      19.6034 *  0.0000     4          
   613  O     s      3.1378 *    13.7224 *    13.7224    0.0000     4          
   614  Cl    s    -10.5846 *    11.7620 *    11.7620    0.0000     4          
   615  Cl    s      9.0188 *     7.8414 *    15.6827 *  0.0000     8          
   616  O     s     -8.6242 *    -1.9603 *    17.6430 *  0.0000     8          
   617  Cl    s     -2.7432 *    11.7620 *    15.6827 *  0.0000     8          
   618  Cl    s     -2.7432 *     0.0000      19.6034 *  0.0000     4          
   619  O     s     18.8205 *     5.8810 *    -1.9603 *  0.0000     8          
   620  O     s      7.0585 *     5.8810 *    17.6430 *  0.0000     8          
   621  O     s     -4.7035 *    13.7224 *    13.7224    0.0000     4          
--------------------------------------------------------------------------------


  Constraints on symmetry reduced coordinates :

--------------------------------------------------------------------------------
  Constraint no.      Unconstrained     Constrained    Coefficient    
                         Variable         Variable
--------------------------------------------------------------------------------
           1                 2 y             2 z         1.00000
           2                 3 y             3 z         1.00000
           3                 5 y             5 z         1.00000
           4                 8 y             8 z         1.00000
           5                14 y            14 z         1.00000
           6                15 y            15 z         1.00000
           7                16 y            16 z         1.00000
           8                18 y            18 z         1.00000
           9                28 y            28 z         1.00000
          10                31 y            31 z         1.00000
          11                32 y            32 z         1.00000
          12                41 y            41 z         1.00000
          13                42 y            42 z         1.00000
          14                44 y            44 z         1.00000
          15                46 y            46 z         1.00000
          16                49 y            49 z         1.00000
          17                51 y            51 z         1.00000
          18                58 y            58 z         1.00000
          19                59 y            59 z         1.00000
          20                61 y            61 z         1.00000
          21                77 y            77 z         1.00000
          22                79 y            79 z         1.00000
          23                83 y            83 z         1.00000
          24                84 y            84 z         1.00000
          25                90 y            90 z         1.00000
          26                94 y            94 z         1.00000
          27                95 y            95 z         1.00000
          28               104 y           104 z         1.00000
          29               107 y           107 z         1.00000
          30               112 y           112 z         1.00000
          31               115 y           115 z         1.00000
          32               129 y           129 z         1.00000
          33               130 y           130 z         1.00000
          34               140 y           140 z         1.00000
          35               145 y           145 z         1.00000
          36               154 y           154 z         1.00000
          37               158 y           158 z         1.00000
          38               160 y           160 z         1.00000
          39               165 y           165 z         1.00000
          40               167 y           167 z         1.00000
          41               170 y           170 z         1.00000
          42               172 y           172 z         1.00000
          43               184 y           184 z         1.00000
          44               188 y           188 z         1.00000
          45               190 y           190 z         1.00000
          46               201 y           201 z         1.00000
          47               203 y           203 z         1.00000
          48               208 y           208 z         1.00000
          49               212 y           212 z         1.00000
          50               213 y           213 z         1.00000
          51               215 y           215 z         1.00000
          52               218 y           218 z         1.00000
          53               247 y           247 z         1.00000
          54               259 y           259 z         1.00000
          55               262 y           262 z         1.00000
          56               264 y           264 z         1.00000
          57               265 y           265 z         1.00000
          58               268 y           268 z         1.00000
          59               280 y           280 z         1.00000
          60               281 y           281 z         1.00000
          61               283 y           283 z         1.00000
          62               293 y           293 z         1.00000
          63               295 y           295 z         1.00000
          64               310 y           310 z         1.00000
          65               313 y           313 z         1.00000
          66               319 y           319 z         1.00000
          67               335 y           335 z         1.00000
          68               346 y           346 z         1.00000
          69               355 y           355 z         1.00000
          70               361 y           361 z         1.00000
          71               366 y           366 z         1.00000
          72               372 y           372 z         1.00000
          73               377 y           377 z         1.00000
          74               381 y           381 z         1.00000
          75               391 y           391 z         1.00000
          76               401 y           401 z         1.00000
          77               403 y           403 z         1.00000
          78               408 y           408 z         1.00000
          79               413 y           413 z         1.00000
          80               414 y           414 z         1.00000
          81               432 y           432 z         1.00000
          82               433 y           433 z         1.00000
          83               436 y           436 z         1.00000
          84               439 y           439 z         1.00000
          85               440 y           440 z         1.00000
          86               441 y           441 z         1.00000
          87               446 y           446 z         1.00000
          88               447 y           447 z         1.00000
          89               452 y           452 z         1.00000
          90               453 y           453 z         1.00000
[...]
    541 y          3.920675      3.918178    -0.002497    Cartesian   -0.06
    541 z         11.762026     11.754449    -0.007577    Cartesian   -0.06
    542 x         -5.881013     -5.881010     0.000003    Cartesian   -0.00
    542 y         -1.960338     -1.959951     0.000387    Cartesian   -0.02
    542 z         13.722364     13.721094    -0.001270    Cartesian   -0.01
    543 x         -5.881013     -5.881154    -0.000141    Cartesian    0.00
    543 y          9.801689      9.799240    -0.002449    Cartesian   -0.02
    543 z          9.801689      9.799240    -0.002449    Cartesian   -0.02
    544 x          0.000000     -0.003437    -0.003437    Cartesian    0.00
    544 y          3.920675      3.920234    -0.000441    Cartesian   -0.01
    544 z         15.682702     15.679696    -0.003006    Cartesian   -0.02
    545 x        -11.762026    -11.756711     0.005315    Cartesian   -0.05
    545 y          0.000000      0.000000     0.000000    Cartesian    0.00
    545 z          7.841351      7.836127    -0.005224    Cartesian   -0.07
    546 x          7.841351      7.835949    -0.005402    Cartesian   -0.07
    546 y          0.000000      0.000000     0.000000    Cartesian    0.00
    546 z         15.682702     15.681229    -0.001473    Cartesian   -0.01
    547 x          9.801689      9.800006    -0.001683    Cartesian   -0.02
    547 y          5.881013      5.881347     0.000333    Cartesian    0.01
    547 z         13.722364     13.722711     0.000347    Cartesian    0.00
    548 x          3.920675      3.915346    -0.005330    Cartesian   -0.14
    548 y         11.762026     11.759860    -0.002166    Cartesian   -0.02
    548 z         11.762026     11.759860    -0.002166    Cartesian   -0.02
    549 x        -13.722364    -13.721700     0.000664    Cartesian   -0.00
    549 y         -1.960338     -1.960106     0.000232    Cartesian   -0.01
    549 z         -1.960338     -1.960106     0.000232    Cartesian   -0.01
    550 x         11.762026     11.755791    -0.006235    Cartesian   -0.05
    550 y          7.841351      7.841972     0.000621    Cartesian    0.01
    550 z         11.762026     11.763050     0.001024    Cartesian    0.01
    551 x          0.000000     -0.004110    -0.004110    Cartesian    0.00
    551 y         11.762026     11.758254    -0.003773    Cartesian   -0.03
    551 z         11.762026     11.758254    -0.003773    Cartesian   -0.03
    552 x         19.603377     19.603390     0.000012    Cartesian    0.00
    552 y          0.000000      0.000000     0.000000    Cartesian    0.00
    552 z          0.000000      0.000000     0.000000    Cartesian    0.00
    553 x          1.960338      1.958519    -0.001819    Cartesian   -0.09
    553 y          9.801689      9.801669    -0.000020    Cartesian   -0.00
    553 z         13.722364     13.722768     0.000404    Cartesian    0.00
    554 x        -11.762026    -11.757710     0.004316    Cartesian   -0.04
    554 y          3.920675      3.919220    -0.001456    Cartesian   -0.04
    554 z          7.841351      7.836921    -0.004430    Cartesian   -0.06
    555 x          7.841351      7.835673    -0.005678    Cartesian   -0.07
    555 y          3.920675      3.919786    -0.000889    Cartesian   -0.02
    555 z         15.682702     15.680785    -0.001917    Cartesian   -0.01
    556 x         -9.801689     -9.800483     0.001206    Cartesian   -0.01
    556 y          5.881013      5.880051    -0.000962    Cartesian   -0.02
    556 z          9.801689      9.799516    -0.002172    Cartesian   -0.02
    557 x         -3.920675     -3.921381    -0.000705    Cartesian    0.02
    557 y          0.000000      0.000000     0.000000    Cartesian    0.00
    557 z         15.682702     15.677695    -0.005007    Cartesian   -0.03
    558 x         15.682702     15.681885    -0.000817    Cartesian   -0.01
    558 y          7.841351      7.848259     0.006908    Cartesian    0.09
    558 z          7.841351      7.848259     0.006908    Cartesian    0.09
    559 x         17.643040     17.645250     0.002210    Cartesian    0.01
    559 y          5.881013      5.884695     0.003682    Cartesian    0.06
    559 z          5.881013      5.884695     0.003682    Cartesian    0.06
    560 x          5.881013      5.880116    -0.000897    Cartesian   -0.02
    560 y          9.801689      9.802587     0.000899    Cartesian    0.01
    560 z         13.722364     13.723397     0.001033    Cartesian    0.01
    561 x         -5.881013     -5.881604    -0.000591    Cartesian    0.01
    561 y          5.881013      5.880867    -0.000146    Cartesian   -0.00
    561 z         13.722364     13.721594    -0.000770    Cartesian   -0.01
    562 x         19.603377     19.601761    -0.001616    Cartesian   -0.01
    562 y          0.000000      0.000000     0.000000    Cartesian    0.00
    562 z          3.920675      3.922415     0.001740    Cartesian    0.04
    563 x          7.841351      7.836030    -0.005321    Cartesian   -0.07
    563 y         11.762026     11.761609    -0.000417    Cartesian   -0.00
    563 z         11.762026     11.761609    -0.000417    Cartesian   -0.00
    564 x         -3.920675     -3.922680    -0.002004    Cartesian    0.05
    564 y          3.920675      3.920145    -0.000530    Cartesian   -0.01
    564 z         15.682702     15.678500    -0.004202    Cartesian   -0.03
    565 x         15.682702     15.678290    -0.004412    Cartesian   -0.03
    565 y          0.000000      0.000000     0.000000    Cartesian    0.00
    565 z         11.762026     11.766183     0.004156    Cartesian    0.04
    566 x         -1.960338     -1.962369    -0.002032    Cartesian    0.10
    566 y          9.801689      9.801370    -0.000319    Cartesian   -0.00
    566 z         13.722364     13.722204    -0.000160    Cartesian   -0.00
    567 x          3.920675      3.916459    -0.004216    Cartesian   -0.11
    567 y          7.841351      7.840896    -0.000455    Cartesian   -0.01
    567 z         15.682702     15.680836    -0.001866    Cartesian   -0.01
    568 x        -13.722364    -13.722083     0.000281    Cartesian   -0.00
    568 y         -1.960338     -1.960148     0.000190    Cartesian   -0.01
    568 z          5.881013      5.881294     0.000281    Cartesian    0.00
    569 x         -7.841351     -7.840517     0.000834    Cartesian   -0.01
    569 y          7.841351      7.837574    -0.003777    Cartesian   -0.05
    569 z         11.762026     11.756534    -0.005493    Cartesian   -0.05
    570 x         13.722364     13.722210    -0.000154    Cartesian   -0.00
    570 y         13.722364     13.723967     0.001602    Cartesian    0.01
    570 z         -1.960338     -1.960586    -0.000248    Cartesian    0.01
    571 x         13.722364     13.721651    -0.000713    Cartesian   -0.01
    571 y          9.801689      9.803224     0.001536    Cartesian    0.02
    571 z          9.801689      9.803224     0.001536    Cartesian    0.02
    572 x          0.000000     -0.003293    -0.003293    Cartesian    0.00
    572 y          7.841351      7.840414    -0.000937    Cartesian   -0.01
    572 z         15.682702     15.680337    -0.002365    Cartesian   -0.02
    573 x         19.603377     19.601997    -0.001381    Cartesian   -0.01
    573 y          3.920675      3.923255     0.002579    Cartesian    0.07
    573 z          3.920675      3.923255     0.002579    Cartesian    0.07
    574 x          1.960338      1.959924    -0.000414    Cartesian   -0.02
    574 y         17.643040     17.643820     0.000780    Cartesian    0.00
    574 z         -1.960338     -1.961303    -0.000965    Cartesian    0.05
    575 x         -3.920675     -3.923930    -0.003254    Cartesian    0.08
    575 y         11.762026     11.758434    -0.003593    Cartesian   -0.03
    575 z         11.762026     11.758434    -0.003593    Cartesian   -0.03
    576 x         15.682702     15.678285    -0.004417    Cartesian   -0.03
    576 y          3.920675      3.921440     0.000765    Cartesian    0.02
    576 z         11.762026     11.765584     0.003558    Cartesian    0.03
    577 x         17.643040     17.644253     0.001213    Cartesian    0.01
    577 y         -1.960338     -1.960813    -0.000476    Cartesian    0.02
    577 z          9.801689      9.804918     0.003229    Cartesian    0.03
    578 x          5.881013      5.880924    -0.000089    Cartesian   -0.00
    578 y         -1.960338     -1.960489    -0.000151    Cartesian    0.01
    578 z         17.643040     17.644112     0.001072    Cartesian    0.01
    579 x         11.762026     11.757990    -0.004037    Cartesian   -0.03
    579 y          0.000000      0.000000     0.000000    Cartesian    0.00
    579 z         15.682702     15.682686    -0.000016    Cartesian   -0.00
    580 x        -11.762026    -11.759159     0.002867    Cartesian   -0.02
    580 y          7.841351      7.838194    -0.003157    Cartesian   -0.04
    580 z          7.841351      7.838194    -0.003157    Cartesian   -0.04
    581 x          7.841351      7.836467    -0.004884    Cartesian   -0.06
    581 y          7.841351      7.841178    -0.000173    Cartesian   -0.00
    581 z         15.682702     15.681164    -0.001538    Cartesian   -0.01
    582 x          9.801689      9.801077    -0.000612    Cartesian   -0.01
    582 y          9.801689      9.802519     0.000830    Cartesian    0.01
    582 z         13.722364     13.723154     0.000790    Cartesian    0.01
    583 x         -1.960338     -1.961251    -0.000913    Cartesian    0.05
    583 y         17.643040     17.642502    -0.000538    Cartesian   -0.00
    583 z         -1.960338     -1.960793    -0.000456    Cartesian    0.02
    584 x        -15.682702    -15.678370     0.004332    Cartesian   -0.03
    584 y          0.000000      0.000000     0.000000    Cartesian    0.00
    584 z          0.000000      0.000000     0.000000    Cartesian    0.00
    585 x        -13.722364    -13.721804     0.000561    Cartesian   -0.00
    585 y          5.881013      5.880567    -0.000446    Cartesian   -0.01
    585 z          5.881013      5.880567    -0.000446    Cartesian   -0.01
    586 x         11.762026     11.757950    -0.004076    Cartesian   -0.03
    586 y          3.920675      3.920778     0.000102    Cartesian    0.00
    586 z         15.682702     15.682422    -0.000280    Cartesian   -0.00
    587 x         13.722364     13.721417    -0.000947    Cartesian   -0.01
    587 y          5.881013      5.881233     0.000220    Cartesian    0.00
    587 z         13.722364     13.723322     0.000958    Cartesian    0.01
    588 x         19.603377     19.600488    -0.002890    Cartesian   -0.01
    588 y          0.000000      0.000000     0.000000    Cartesian    0.00
    588 z          7.841351      7.844898     0.003547    Cartesian    0.05
    589 x          1.960338      1.959613    -0.000725    Cartesian   -0.04
    589 y          5.881013      5.881288     0.000274    Cartesian    0.00
    589 z         17.643040     17.642952    -0.000088    Cartesian   -0.00
    590 x        -11.762026    -11.759064     0.002963    Cartesian   -0.03
    590 y          0.000000      0.000000     0.000000    Cartesian    0.00
    590 z         11.762026     11.757363    -0.004663    Cartesian   -0.04
    591 x         -9.801689     -9.800941     0.000748    Cartesian   -0.01
    591 y         -1.960338     -1.960017     0.000321    Cartesian   -0.02
    591 z         13.722364     13.720069    -0.002295    Cartesian   -0.02
    592 x         -9.801689     -9.801338     0.000350    Cartesian   -0.00
    592 y          9.801689      9.800029    -0.001660    Cartesian   -0.02
    592 z          9.801689      9.800029    -0.001660    Cartesian   -0.02
    593 x         -3.920675     -3.922547    -0.001872    Cartesian    0.05
    593 y          7.841351      7.839902    -0.001449    Cartesian   -0.02
    593 z         15.682702     15.678835    -0.003867    Cartesian   -0.02
    594 x         17.643040     17.643514     0.000474    Cartesian    0.00
    594 y          5.881013      5.882429     0.001416    Cartesian    0.02
    594 z          9.801689      9.804120     0.002431    Cartesian    0.02
    595 x        -15.682702    -15.677695     0.005007    Cartesian   -0.03
    595 y          0.000000      0.000000     0.000000    Cartesian    0.00
    595 z          3.920675      3.919343    -0.001333    Cartesian   -0.03
    596 x          5.881013      5.880135    -0.000879    Cartesian   -0.01
    596 y          5.881013      5.881053     0.000040    Cartesian    0.00
    596 z         17.643040     17.642889    -0.000150    Cartesian   -0.00
    597 x         -7.841351     -7.841608    -0.000257    Cartesian    0.00
    597 y          0.000000      0.000000     0.000000    Cartesian    0.00
    597 z         15.682702     15.676911    -0.005791    Cartesian   -0.04
    598 x         11.762026     11.757758    -0.004268    Cartesian   -0.04
    598 y         11.762026     11.761664    -0.000363    Cartesian   -0.00
    598 z         11.762026     11.761664    -0.000363    Cartesian   -0.00
    599 x         -5.881013     -5.881570    -0.000557    Cartesian    0.01
    599 y          9.801689      9.800605    -0.001083    Cartesian   -0.01
    599 z         13.722364     13.721017    -0.001347    Cartesian   -0.01
    600 x         19.603377     19.600064    -0.003314    Cartesian   -0.02
    600 y          3.920675      3.921850     0.001174    Cartesian    0.03
    600 z          7.841351      7.844016     0.002665    Cartesian    0.03
    601 x         21.563715     21.562181    -0.001534    Cartesian   -0.01
    601 y         -1.960338     -1.960551    -0.000213    Cartesian    0.01
    601 z         -1.960338     -1.960551    -0.000213    Cartesian    0.01
    602 x        -11.762026    -11.758830     0.003196    Cartesian   -0.03
    602 y          3.920675      3.918977    -0.001699    Cartesian   -0.04
    602 z         11.762026     11.756914    -0.005113    Cartesian   -0.04
    603 x          9.801689      9.801113    -0.000576    Cartesian   -0.01
    603 y         -1.960338     -1.960285     0.000052    Cartesian   -0.00
    603 z         17.643040     17.642631    -0.000408    Cartesian   -0.00
    604 x         15.682702     15.677797    -0.004905    Cartesian   -0.03
    604 y          7.841351      7.842188     0.000837    Cartesian    0.01
    604 z         11.762026     11.763614     0.001588    Cartesian    0.01
    605 x         -1.960338     -1.961123    -0.000785    Cartesian    0.04
    605 y         17.643040     17.642924    -0.000116    Cartesian   -0.00
    605 z          5.881013      5.881147     0.000134    Cartesian    0.00
    606 x        -15.682702    -15.676964     0.005738    Cartesian   -0.04
    606 y          3.920675      3.919294    -0.001381    Cartesian   -0.04
    606 z          3.920675      3.919294    -0.001381    Cartesian   -0.04
    607 x        -13.722364    -13.720568     0.001796    Cartesian   -0.01
    607 y          9.801689      9.800087    -0.001602    Cartesian   -0.02
    607 z         -1.960338     -1.960152     0.000186    Cartesian   -0.01
    608 x         -7.841351     -7.840405     0.000946    Cartesian   -0.01
    608 y          3.920675      3.919262    -0.001414    Cartesian   -0.04
    608 z         15.682702     15.677165    -0.005537    Cartesian   -0.04
    609 x          1.960338      1.958910    -0.001428    Cartesian   -0.07
    609 y         13.722364     13.721457    -0.000908    Cartesian   -0.01
    609 z         13.722364     13.721457    -0.000908    Cartesian   -0.01
    610 x         -9.801689     -9.799901     0.001788    Cartesian   -0.02
    610 y          5.881013      5.879473    -0.001540    Cartesian   -0.03
    610 z         13.722364     13.719683    -0.002681    Cartesian   -0.02
    611 x          3.920675      3.917576    -0.003100    Cartesian   -0.08
    611 y         11.762026     11.759634    -0.002393    Cartesian   -0.02
    611 z         15.682702     15.678868    -0.003834    Cartesian   -0.02
    612 x          3.920675      3.917902    -0.002774    Cartesian   -0.07
    612 y          0.000000      0.000000     0.000000    Cartesian    0.00
    612 z         19.603377     19.598586    -0.004791    Cartesian   -0.02
    613 x          5.881013      5.879094    -0.001919    Cartesian   -0.03
    613 y         13.722364     13.721107    -0.001257    Cartesian   -0.01
    613 z         13.722364     13.721107    -0.001257    Cartesian   -0.01
    614 x         -7.841351     -7.840230     0.001121    Cartesian   -0.01
    614 y         11.762026     11.757621    -0.004406    Cartesian   -0.04
    614 z         11.762026     11.757621    -0.004406    Cartesian   -0.04
    615 x         11.762026     11.757399    -0.004627    Cartesian   -0.04
    615 y          7.841351      7.840149    -0.001202    Cartesian   -0.02
    615 z         15.682702     15.680294    -0.002408    Cartesian   -0.02
    616 x         -5.881013     -5.880503     0.000510    Cartesian   -0.01
    616 y         -1.960338     -1.959634     0.000704    Cartesian   -0.04
    616 z         17.643040     17.640410    -0.002630    Cartesian   -0.01
    617 x          0.000000     -0.001527    -0.001527    Cartesian    0.00
    617 y         11.762026     11.758705    -0.003321    Cartesian   -0.03
    617 z         15.682702     15.678295    -0.004407    Cartesian   -0.03
    618 x          0.000000     -0.001412    -0.001412    Cartesian    0.00
    618 y          0.000000      0.000000     0.000000    Cartesian    0.00
    618 z         19.603377     19.596618    -0.006759    Cartesian   -0.03
    619 x         21.563715     21.561573    -0.002142    Cartesian   -0.01
    619 y          5.881013      5.881205     0.000192    Cartesian    0.00
    619 z         -1.960338     -1.960127     0.000211    Cartesian   -0.01
    620 x          9.801689      9.799791    -0.001898    Cartesian   -0.02
    620 y          5.881013      5.880163    -0.000850    Cartesian   -0.01
    620 z         17.643040     17.641162    -0.001878    Cartesian   -0.01
    621 x         -1.960338     -1.960212     0.000125    Cartesian   -0.01
    621 y         13.722364     13.720175    -0.002189    Cartesian   -0.02
    621 z         13.722364     13.720175    -0.002189    Cartesian   -0.02
--------------------------------------------------------------------------------


  Time to end of optimisation  =      146.4682 seconds


  Peak dynamic memory used =    1719.07 MB 


  Timing analysis for GULP :

--------------------------------------------------------------------------------
  Task / Subroutine                                          Time (Seconds)
--------------------------------------------------------------------------------
  Calculation of reciprocal space energy and derivatives          0.0002
  Calculation of reciprocal space energy using symmetry           0.0003
  Calculation of real space energy and derivatives                0.0016
  Calculation of real space energy using symmetry                 0.0034
  Calculation for region 1 energy and derivatives (2-b)          70.8360
  Calculation for region 2a energy                               19.8903
  Calculation for region 2b energy                                0.0035
  Calculation and manipulation of Hessian matrix                 50.6671
  Calculation of matrix inversion                                 4.1269
  Symmetry generation of equivalent positions                     0.0017
--------------------------------------------------------------------------------
  Total CPU time                                                146.4682
--------------------------------------------------------------------------------


  Dump file written as Li3OCl.grs


  Job Finished at 17:58.00 20th October    2020                               

