********************************************************************************
*                       GENERAL UTILITY LATTICE PROGRAM                        *
*                                 Julian Gale                                  *
*                       Curtin Institute for Computation                       *
*                    School of Molecular and Life Sciences                     *
*                    Curtin University, Western Australia                      *
********************************************************************************
* Version = 5.2.0 * Last modified =  10th September 2020                       *
********************************************************************************
*  optimise     - perform optimisation run                                     *
*  conp         - constant pressure calculation                                *
*  property     - calculate properties for final geometry                      *
*  defect       - perform defect calculation after bulk run                    *
*  compare      - compare initial and final structures                         *
********************************************************************************

  Job Started  at 17:58.00 20th October    2020                               

  Number of CPUs =     1


  Total number of configurations input =      1

********************************************************************************
*  Input for Configuration =   1                                               *
********************************************************************************

  Formula = ClOLi3                                                      

  Number of irreducible atoms/shells =       5


  Total number atoms/shells =       7

  Dimensionality = 3               :  Bulk   


  Symmetry :

  Crystal family                   :  Cubic       
  Crystal class  (Groth - 1921)    :  Cubic Hexakisoctahedral              

  Space group (centrosymmetric)    :  P M 3 M         

  Patterson group                  :  P m -3 m 

  Cartesian lattice vectors (Angstroms) :

        3.918873    0.000000    0.000000
        0.000000    3.918873    0.000000
        0.000000    0.000000    3.918873

  Cell parameters (Angstroms/Degrees):

  a =       3.9189    alpha =  90.0000
  b =       3.9189    beta  =  90.0000
  c =       3.9189    gamma =  90.0000

  Initial cell volume =          60.184349 Angs**3

  Temperature of configuration =   0.00     K 

  Pressure of configuration =         0.000 GPa 

  Fractional coordinates of asymmetric unit :

--------------------------------------------------------------------------------
   No.  Atomic       x           y          z         Charge      Occupancy
        Label      (Frac)      (Frac)     (Frac)        (e)         (Frac)  
--------------------------------------------------------------------------------
      1 Cl    c    0.000000    0.000000    0.000000     1.48500    1.000000    
      2 O     c    0.500000    0.500000    0.500000     0.18300    1.000000    
      3 Li    c    0.500000    0.500000    0.000000     1.00000    1.000000    
      4 Cl    s    0.000000    0.000000    0.000000    -2.48500    1.000000    
      5 O     s    0.500000    0.500000    0.500000    -2.18300    1.000000    
--------------------------------------------------------------------------------


  Constraints : 

--------------------------------------------------------------------------------
  Constraint no.      Unconstrained     Constrained    Coefficient    Offset
                         Variable         Variable
--------------------------------------------------------------------------------
           1              Strain 1        Strain 2       1.00000      0.0000
           2              Strain 1        Strain 3       1.00000      0.0000
--------------------------------------------------------------------------------


********************************************************************************
*  General input information                                                   *
********************************************************************************

  Species output for all configurations : 

--------------------------------------------------------------------------------
  Species    Type    Atomic    Atomic    Charge       Radii (Angs)     Library
                     Number     Mass       (e)     Cova   Ionic  VDW   Symbol
--------------------------------------------------------------------------------
    Li       Core        3       6.94   1.000000   0.680  0.000  1.800          
    O        Core        8      16.00   0.183000   0.730  0.000  1.360          
    O        Shell       8       0.00  -2.183000   0.730  0.000  1.360          
    Cl       Core       17      35.45   1.485000   0.990  0.000  1.650          
    Cl       Shell      17       0.00  -2.485000   0.990  0.000  1.650          
--------------------------------------------------------------------------------


  Lattice summation method               =    Ewald          (3-D)
                                         =    Parry          (2-D)
                                         =    Saunders et al (1-D)
  Accuracy factor for lattice sums       =   12.000


  Analytic derivatives to be used

  Time limit = Infinity

  Maximum range for interatomic potentials =    100000.000000 Angstroms

  General interatomic potentials :

--------------------------------------------------------------------------------
Atom  Types   Potential      Parameter       Value         Units   Cutoffs(Ang)
  1     2                                                            Min /  Max 
--------------------------------------------------------------------------------
O    c O    s Spring (c-s)  Spring k 2       593.72000    eV*Ang^-2 0.000  0.800
                            Spring k 4       0.0000000    eV*Ang^-4 
--------------------------------------------------------------------------------
Cl   c Cl   s Spring (c-s)  Spring k 2       29.380000    eV*Ang^-2 0.000  0.800
                            Spring k 4       0.0000000    eV*Ang^-4 
--------------------------------------------------------------------------------
Li   c Li   c Buckingham    Buckingham A     360.53000    eV        0.000 12.000
                            Buckingham rho  0.16100000    Ang       
                            Buckingham C     0.0000000    eV*Ang^6  
--------------------------------------------------------------------------------
Li   c O    s Buckingham    Buckingham A     292.30000    eV        0.000 12.000
                            Buckingham rho  0.34720000    Ang       
                            Buckingham C     0.0000000    eV*Ang^6  
--------------------------------------------------------------------------------
Li   c Cl   s Buckingham    Buckingham A     421.04000    eV        0.000 12.000
                            Buckingham rho  0.33400000    Ang       
                            Buckingham C     0.0000000    eV*Ang^6  
--------------------------------------------------------------------------------
O    s O    s Buckingham    Buckingham A     22764.300    eV        0.000 12.000
                            Buckingham rho  0.14900000    Ang       
                            Buckingham C     13.190000    eV*Ang^6  
--------------------------------------------------------------------------------
O    s Cl   s Buckingham    Buckingham A     8286.9100    eV        0.000 12.000
                            Buckingham rho  0.25900000    Ang       
                            Buckingham C     62.200000    eV*Ang^6  
--------------------------------------------------------------------------------
Cl   s Cl   s Buckingham    Buckingham A     1227.2000    eV        0.000 12.000
                            Buckingham rho  0.32100000    Ang       
                            Buckingham C     14.530000    eV*Ang^6  
--------------------------------------------------------------------------------

********************************************************************************
*  Output for configuration   1                                                *
********************************************************************************


  Components of energy : 

--------------------------------------------------------------------------------
  Interatomic potentials     =           7.26836263 eV    
  Monopole - monopole (real) =         -11.53475722 eV    
  Monopole - monopole (recip)=         -33.94580548 eV    
  Monopole - monopole (total)=         -45.48056271 eV    
--------------------------------------------------------------------------------
  Total lattice energy       =         -38.21220008 eV    
--------------------------------------------------------------------------------
  Total lattice energy       =           -3686.8932 kJ/(mole unit cells)
--------------------------------------------------------------------------------


  Number of variables =        1

  Maximum number of calculations  =          1000
  Maximum Hessian update interval =            10
  Maximum step size               =   1.000000000
  Maximum parameter tolerance     =   0.000010000
  Maximum function  tolerance     =   0.000010000
  Maximum gradient  tolerance     =   0.001000000
  Maximum gradient  component     =   0.010000000

  Symmetry constrained optimisation

  Symmetry used for second derivatives

  Cell parameters to be optimised using strains

  Newton-Raphson optimiser to be used

  BFGS hessian update to be used

  Lower half triangular hessian to be used

  Start of bulk optimisation :

  Cycle:      0 Energy:       -38.212200  Gnorm:      0.095699  CPU:    0.006
  ** Hessian calculated **
  Cycle:      1 Energy:       -38.212222  Gnorm:      0.000105  CPU:    0.007


  **** Optimisation achieved ****


  Final energy =     -38.21222207 eV
  Final Gnorm  =       0.00000016

  Components of energy : 

--------------------------------------------------------------------------------
  Interatomic potentials     =           7.24743141 eV    
  Monopole - monopole (real) =         -11.52945423 eV    
  Monopole - monopole (recip)=         -33.93019924 eV    
  Monopole - monopole (total)=         -45.45965348 eV    
--------------------------------------------------------------------------------
  Total lattice energy       =         -38.21222207 eV    
--------------------------------------------------------------------------------
  Total lattice energy       =           -3686.8953 kJ/(mole unit cells)
--------------------------------------------------------------------------------

  Final asymmetric unit coordinates :

--------------------------------------------------------------------------------
   No.  Atomic        x           y           z         Radius
        Label       (Frac)      (Frac)      (Frac)       (Angs) 
--------------------------------------------------------------------------------
     1  Cl    c     0.000000    0.000000    0.000000    0.000000
     2  O     c     0.500000    0.500000    0.500000    0.000000
     3  Li    c     0.500000    0.500000    0.000000    0.000000
     4  Cl    s     0.000000    0.000000    0.000000    0.000000
     5  O     s     0.500000    0.500000    0.500000    0.000000
--------------------------------------------------------------------------------

  Final Cartesian lattice vectors (Angstroms) :

        3.920675    0.000000    0.000000
        0.000000    3.920675    0.000000
        0.000000    0.000000    3.920675


  Final cell parameters and derivatives :

--------------------------------------------------------------------------------
       a            3.920675 Angstrom     dE/de1(xx)    -0.000000 eV/strain
       b            3.920675 Angstrom     dE/de2(yy)     0.000000 eV/strain
       c            3.920675 Angstrom     dE/de3(zz)     0.000000 eV/strain
       alpha       90.000000 Degrees      dE/de4(yz)     0.000000 eV/strain
       beta        90.000000 Degrees      dE/de5(xz)     0.000000 eV/strain
       gamma       90.000000 Degrees      dE/de6(xy)     0.000000 eV/strain
--------------------------------------------------------------------------------

  Primitive cell volume =            60.267433 Angs**3

  Density of cell =      1.991276 g/cm**3

  Non-primitive cell volume =            60.267433 Angs**3


  Final internal derivatives :

--------------------------------------------------------------------------------
   No.  Atomic          a             b             c           Radius
        Label          (eV)          (eV)          (eV)        (eV/Angs)
--------------------------------------------------------------------------------
      1 Cl    c       0.000000      0.000000      0.000000      0.000000
      2 O     c       0.000000      0.000000      0.000000      0.000000
      3 Li    c       0.000000      0.000000      0.000000      0.000000
      4 Cl    s       0.000000      0.000000      0.000000      0.000000
      5 O     s       0.000000      0.000000      0.000000      0.000000
--------------------------------------------------------------------------------
  Maximum abs         0.000000      0.000000      0.000000      0.000000
--------------------------------------------------------------------------------

  Comparison of initial and final structures : 

--------------------------------------------------------------------------------
  Parameter   Initial value   Final value   Difference    Units      Percent
--------------------------------------------------------------------------------
    Volume        60.184349     60.267433     0.083084    Angs**3      0.14
    a              3.918873      3.920675     0.001802    Angstroms    0.05
    b              3.918873      3.920675     0.001802    Angstroms    0.05
    c              3.918873      3.920675     0.001802    Angstroms    0.05
    alpha         90.000000     90.000000     0.000000    Degrees      0.00
    beta          90.000000     90.000000     0.000000    Degrees      0.00
    gamma         90.000000     90.000000     0.000000    Degrees      0.00
      1 x          0.000000      0.000000     0.000000    Fractional   0.00
      1 y          0.000000      0.000000     0.000000    Fractional   0.00
      1 z          0.000000      0.000000     0.000000    Fractional   0.00
      2 x          0.500000      0.500000     0.000000    Fractional   0.00
      2 y          0.500000      0.500000     0.000000    Fractional   0.00
      2 z          0.500000      0.500000     0.000000    Fractional   0.00
      3 x          0.500000      0.500000     0.000000    Fractional   0.00
      3 y          0.500000      0.500000     0.000000    Fractional   0.00
      3 z          0.000000      0.000000     0.000000    Fractional   0.00
      4 x          0.000000      0.000000     0.000000    Fractional   0.00
      4 y          0.000000      0.000000     0.000000    Fractional   0.00
      4 z          0.000000      0.000000     0.000000    Fractional   0.00
      5 x          0.500000      0.500000     0.000000    Fractional   0.00
      5 y          0.500000      0.500000     0.000000    Fractional   0.00
      5 z          0.500000      0.500000     0.000000    Fractional   0.00
--------------------------------------------------------------------------------


  Born effective charge tensors : 

-------------------------------------------------------------------------------
  Atom             x           y             z
-------------------------------------------------------------------------------
    1 Cl    x      -0.9489     -0.0000     -0.0000
            y      -0.0000     -0.9489     -0.0000
            z      -0.0000     -0.0000     -0.9489
-------------------------------------------------------------------------------
    2 O     x      -2.4688      0.0000      0.0000
            y       0.0000     -2.4688      0.0000
            z       0.0000      0.0000     -2.4688
-------------------------------------------------------------------------------
    3 Li    x       1.3129      0.0000     -0.0000
            y       0.0000      1.3129      0.0000
            z      -0.0000      0.0000      0.7919
-------------------------------------------------------------------------------




  Elastic Constant Matrix: (Units=GPa)

-------------------------------------------------------------------------------
  Indices      1         2         3         4         5         6    
-------------------------------------------------------------------------------
       1     94.3368   44.9178   44.9178    0.0000   -0.0000    0.0000
       2     44.9178   94.3368   44.9178   -0.0000    0.0000   -0.0000
       3     44.9178   44.9178   94.3368    0.0000   -0.0000    0.0000
       4      0.0000   -0.0000    0.0000   44.9178   -0.0000    0.0000
       5     -0.0000    0.0000   -0.0000   -0.0000   44.9178    0.0000
       6      0.0000   -0.0000    0.0000    0.0000    0.0000   44.9178
-------------------------------------------------------------------------------


  Elastic Compliance Matrix: (Units=1/GPa)

-------------------------------------------------------------------------------
  Indices      1         2         3         4         5         6    
-------------------------------------------------------------------------------
       1    0.015300 -0.004935 -0.004935 -0.000000  0.000000 -0.000000
       2   -0.004935  0.015300 -0.004935  0.000000 -0.000000  0.000000
       3   -0.004935 -0.004935  0.015300 -0.000000  0.000000 -0.000000
       4   -0.000000  0.000000 -0.000000  0.022263  0.000000 -0.000000
       5    0.000000 -0.000000  0.000000  0.000000  0.022263 -0.000000
       6   -0.000000  0.000000 -0.000000 -0.000000 -0.000000  0.022263
-------------------------------------------------------------------------------

  Mechanical properties :

-------------------------------------------------------------------------------
  Convention :                    Reuss         Voigt         Hill
-------------------------------------------------------------------------------
  Bulk  Modulus (GPa)     =      61.39080      61.39080      61.39080
  Shear Modulus (GPa)     =      33.84570      36.83448      35.34009
-------------------------------------------------------------------------------
  Velocity S-wave (km/s)  =       4.12274       4.30092       4.21277
  Velocity P-wave (km/s)  =       7.31386       7.44942       7.38195
-------------------------------------------------------------------------------
  Compressibility (1/GPa) =    0.01628909
-------------------------------------------------------------------------------
  Stress axis :                     x             y             z
-------------------------------------------------------------------------------
  Youngs Moduli (GPa)     =      65.35947      65.35947      65.35947
-------------------------------------------------------------------------------
  Poissons Ratio (x)      =                     0.32256       0.32256
  Poissons Ratio (y)      =       0.32256                     0.32256
  Poissons Ratio (z)      =       0.32256       0.32256
-------------------------------------------------------------------------------


  Piezoelectric Strain Matrix: (Units=C/m**2)

-------------------------------------------------------------------------------
  Indices      1         2         3         4         5         6    
-------------------------------------------------------------------------------
       x    -0.00000   0.00000   0.00000  -0.00000  -0.00000   0.00000
       y    -0.00000   0.00000   0.00000  -0.00000  -0.00000  -0.00000
       z     0.00000   0.00000   0.00000   0.00000  -0.00000  -0.00000
-------------------------------------------------------------------------------


  Piezoelectric Stress Matrix: (Units=10**-11 C/N)

-------------------------------------------------------------------------------
  Indices      1         2         3         4         5         6    
-------------------------------------------------------------------------------
       x    -0.00000   0.00000   0.00000  -0.00000  -0.00000   0.00000
       y    -0.00000   0.00000   0.00000  -0.00000  -0.00000  -0.00000
       z    -0.00000  -0.00000   0.00000   0.00000  -0.00000  -0.00000
-------------------------------------------------------------------------------


  Static dielectric constant tensor : 

-------------------------------------------------------------------------------
              x         y         z
-------------------------------------------------------------------------------
       x    12.11703   0.00000  -0.00000
       y     0.00000  12.11703  -0.00000
       z    -0.00000  -0.00000  12.11703
--------------------------------------------------------------------------------

  High frequency dielectric constant tensor : 

-------------------------------------------------------------------------------
              x         y         z
-------------------------------------------------------------------------------
       x     1.74104   0.00000   0.00000
       y     0.00000   1.74104   0.00000
       z     0.00000   0.00000   1.74104
-------------------------------------------------------------------------------

  Static refractive indices : 

-------------------------------------------------------------------------------
    1 =    3.48095      2 =    3.48095      3 =    3.48095
-------------------------------------------------------------------------------

  High frequency refractive indices : 

-------------------------------------------------------------------------------
    1 =    1.31948      2 =    1.31948      3 =    1.31948
-------------------------------------------------------------------------------


  Time to end of optimisation =       0.0105 seconds

********************************************************************************
*  Defect calculation for configuration   1 :                                  *
********************************************************************************

  Total number of defects =      3

  Total charge on defect  =   1.00

  Defect centre is at   2.9392   0.0000   0.0000  Angs

  Region 1 radius =  20.0000      Number of ions =   3862

  Number of symmetry inequivalent region 1 ions  =    620

  Region 2 radius =  24.0000      Number of ions =   2864

  Number of symmetry inequivalent region 2a ions =    419

  Region 2a mode = 4 : screened electrostatics due to region 1 
                       neglect correction to region 1 forces from 2a
                       region 2a displacements based on defects only

  Region 2a ions will only interact with defects in region 1

  Vacancies:

--------------------------------------------------------------------------------
    Specification type     Symbol/Number         x          y          z
--------------------------------------------------------------------------------
    Cartesian                                0.000000   0.000000   0.000000
    Cartesian                                3.918873   0.000000   0.000000
--------------------------------------------------------------------------------

  Interstitials:

--------------------------------------------------------------------------------
    Specification type     Symbol/Number         x          y          z
--------------------------------------------------------------------------------
    Atom/Fractional         Cl               2.939155   0.000000   0.000000
--------------------------------------------------------------------------------


  Symmetry reduced region 1 (Relative to defect centre) :

--------------------------------------------------------------------------------
   No.   Atomic       x            y             z       Radius  Multiplicity   
         Label      (Angs)       (Angs)        (Angs)    (Angs)     
--------------------------------------------------------------------------------
     1  Li    c     -0.9788 *    -1.9603 *     0.0000    0.0000     4          
     2  O     c     -0.9788 *    -1.9603 *    -1.9603    0.0000     4          
     3  Li    c      0.9815 *     1.9603 *     1.9603    0.0000     4          
     4  Li    c      2.9419 *    -1.9603 *     0.0000    0.0000     4          
     5  Li    c     -2.9392 *     1.9603 *     1.9603    0.0000     4          
     6  Cl    c      0.9815 *     0.0000       3.9207 *  0.0000     4          
     7  O     c      2.9419 *    -1.9603 *    -1.9603    0.0000     4          
     8  Li    c     -0.9788 *    -1.9603 *     3.9207 *  0.0000     8          
     9  Cl    c      4.6636       0.0000       0.0000    0.0000     1    Defect
    10  Cl    c     -2.9392 *     0.0000       3.9207 *  0.0000     4          
    11  Cl    c      4.9022 *     0.0000       0.0000    0.0000     1          
    12  Li    c     -4.8995 *    -1.9603 *     0.0000    0.0000     4          
    13  Li    c      2.9419 *    -1.9603 *     3.9207 *  0.0000     8          
    14  O     c     -4.8995 *    -1.9603 *    -1.9603    0.0000     4          
    15  Cl    c      0.9815 *     3.9207 *     3.9207    0.0000     4          
    16  Li    c      4.9022 *     1.9603 *     1.9603    0.0000     4          
    17  Li    c     -0.9788 *     5.8810 *     0.0000    0.0000     4          
    18  Cl    c     -2.9392 *     3.9207 *     3.9207    0.0000     4          
    19  O     c     -0.9788 *    -1.9603 *     5.8810 *  0.0000     8          
    20  Li    c      0.9815 *     5.8810 *     1.9603 *  0.0000     8          
    21  Cl    c      4.9022 *     0.0000       3.9207 *  0.0000     4          
    22  Li    c     -4.8995 *    -1.9603 *     3.9207 *  0.0000     8          
    23  Li    c      2.9419 *     5.8810 *     0.0000    0.0000     4          
    24  Cl    c     -6.8598 *     0.0000       0.0000    0.0000     1          
    25  Li    c     -2.9392 *     5.8810 *     1.9603 *  0.0000     8          
    26  O     c      2.9419 *    -1.9603 *     5.8810 *  0.0000     8          
    27  Li    c     -0.9788 *     5.8810 *     3.9207 *  0.0000     8          
    28  Li    c      6.8625 *    -1.9603 *     0.0000    0.0000     4          
    29  Li    c     -6.8598 *     1.9603 *     1.9603    0.0000     4          
    30  Cl    c      4.9022 *     3.9207 *     3.9207    0.0000     4          
    31  O     c      6.8625 *    -1.9603 *    -1.9603    0.0000     4          
    32  Li    c     -4.8995 *     5.8810 *     0.0000    0.0000     4          
    33  Li    c      2.9419 *     5.8810 *     3.9207 *  0.0000     8          
    34  Cl    c     -6.8598 *     0.0000       3.9207 *  0.0000     4          
    35  O     c     -4.8995 *    -1.9603 *     5.8810 *  0.0000     8          
    36  Cl    c      0.9815 *     0.0000       7.8414 *  0.0000     4          
    37  Li    c      4.9022 *     5.8810 *     1.9603 *  0.0000     8          
    38  Li    c     -0.9788 *    -1.9603 *     7.8414 *  0.0000     8          
    39  Li    c      6.8625 *    -1.9603 *     3.9207 *  0.0000     8          
    40  Cl    c     -2.9392 *     0.0000       7.8414 *  0.0000     4          
    41  O     c     -0.9788 *     5.8810 *     5.8810    0.0000     4          
    42  Li    c      0.9815 *     5.8810 *     5.8810    0.0000     4          
    43  Li    c     -4.8995 *     3.9207 *     5.8810 *  0.0000     8          
    44  Li    c      2.9419 *    -1.9603 *     7.8414 *  0.0000     8          
    45  Cl    c     -6.8598 *     3.9207 *     3.9207    0.0000     4          
    46  Li    c     -2.9392 *     5.8810 *     5.8810    0.0000     4          
    47  Cl    c      0.9815 *     3.9207 *     7.8414 *  0.0000     8          
    48  O     c      2.9419 *     5.8810 *     5.8810    0.0000     4          
    49  Cl    c      8.8229 *     0.0000       0.0000    0.0000     1          
    50  Li    c     -8.8202 *    -1.9603 *     0.0000    0.0000     4          
    51  Li    c      6.8625 *     5.8810 *     0.0000    0.0000     4          
    52  O     c     -8.8202 *    -1.9603 *    -1.9603    0.0000     4          
    53  Li    c     -6.8598 *     1.9603 *     5.8810 *  0.0000     8          
    54  Cl    c     -2.9392 *     3.9207 *     7.8414 *  0.0000     8          
    55  Cl    c      4.9022 *     0.0000       7.8414 *  0.0000     4          
    56  O     c      6.8625 *    -1.9603 *     5.8810 *  0.0000     8          
    57  Li    c      8.8229 *     1.9603 *     1.9603    0.0000     4          
    58  Li    c     -4.8995 *    -1.9603 *     7.8414 *  0.0000     8          
    59  O     c     -4.8995 *     5.8810 *     5.8810    0.0000     4          
    60  Li    c      4.9022 *     5.8810 *     5.8810    0.0000     4          
    61  Cl    c      8.8229 *     0.0000       3.9207 *  0.0000     4          
    62  Li    c     -8.8202 *    -1.9603 *     3.9207 *  0.0000     8          
    63  Li    c     -0.9788 *     5.8810 *     7.8414 *  0.0000     8          
    64  Li    c     -0.9788 *     9.8017 *     0.0000    0.0000     4          
    65  Li    c      6.8625 *     5.8810 *     3.9207 *  0.0000     8          
    66  O     c     -0.9788 *    -1.9603 *     9.8017 *  0.0000     8          
    67  Li    c      0.9815 *     1.9603 *     9.8017 *  0.0000     8          
    68  Cl    c      4.9022 *     3.9207 *     7.8414 *  0.0000     8          
    69  Li    c      2.9419 *     5.8810 *     7.8414 *  0.0000     8          
    70  Li    c      2.9419 *     9.8017 *     0.0000    0.0000     4          
    71  Cl    c     -6.8598 *     0.0000       7.8414 *  0.0000     4          
    72  Li    c     -2.9392 *     1.9603 *     9.8017 *  0.0000     8          
    73  O     c      2.9419 *    -1.9603 *     9.8017 *  0.0000     8          
    74  Cl    c      8.8229 *     3.9207 *     3.9207    0.0000     4          
    75  Li    c     -8.8202 *     5.8810 *     0.0000    0.0000     4          
    76  Li    c     -0.9788 *     9.8017 *     3.9207 *  0.0000     8          
    77  Li    c      6.8625 *    -1.9603 *     7.8414 *  0.0000     8          
    78  Cl    c    -10.7805 *     0.0000       0.0000    0.0000     1          
    79  O     c     -8.8202 *    -1.9603 *     5.8810 *  0.0000     8          
    80  Li    c     -6.8598 *     5.8810 *     5.8810    0.0000     4          
    81  O     c      6.8625 *     5.8810 *     5.8810    0.0000     4          
    82  Li    c      8.8229 *     1.9603 *     5.8810 *  0.0000     8          
    83  Li    c     -4.8995 *     5.8810 *     7.8414 *  0.0000     8          
    84  Li    c     -4.8995 *     9.8017 *     0.0000    0.0000     4          
    85  Li    c      2.9419 *     3.9207 *     9.8017 *  0.0000     8          
    86  Li    c     10.7832 *    -1.9603 *     0.0000    0.0000     4          
    87  Li    c    -10.7805 *     1.9603 *     1.9603    0.0000     4          
    88  Cl    c     -6.8598 *     3.9207 *     7.8414 *  0.0000     8          
    89  O     c     -4.8995 *    -1.9603 *     9.8017 *  0.0000     8          
    90  Cl    c      0.9815 *     7.8414 *     7.8414    0.0000     4          
    91  Li    c      4.9022 *     1.9603 *     9.8017 *  0.0000     8          
    92  O     c     10.7832 *    -1.9603 *    -1.9603    0.0000     4          
    93  Li    c     -8.8202 *     5.8810 *     3.9207 *  0.0000     8          
    94  Cl    c    -10.7805 *     0.0000       3.9207 *  0.0000     4          
    95  Cl    c     -2.9392 *     7.8414 *     7.8414    0.0000     4          
    96  O     c     -0.9788 *     5.8810 *     9.8017 *  0.0000     8          
    97  Li    c      0.9815 *     5.8810 *     9.8017 *  0.0000     8          
    98  Li    c     -4.8995 *     9.8017 *     3.9207 *  0.0000     8          
    99  Li    c     10.7832 *    -1.9603 *     3.9207 *  0.0000     8          
   100  Li    c     -2.9392 *     5.8810 *     9.8017 *  0.0000     8          
   101  Cl    c      0.9815 *     0.0000      11.7620 *  0.0000     4          
   102  O     c      2.9419 *     5.8810 *     9.8017 *  0.0000     8          
   103  Cl    c      8.8229 *     0.0000       7.8414 *  0.0000     4          
   104  Li    c     -8.8202 *     7.8414 *    -1.9603 *  0.0000     8          
   105  Li    c     -0.9788 *    -1.9603 *    11.7620 *  0.0000     8          
   106  Li    c      6.8625 *     5.8810 *     7.8414 *  0.0000     8          
   107  Li    c      6.8625 *     9.8017 *     0.0000    0.0000     4          
   108  Cl    c    -10.7805 *     3.9207 *     3.9207    0.0000     4          
   109  O     c     -8.8202 *     5.8810 *     5.8810    0.0000     4          
   110  Li    c     -6.8598 *     1.9603 *     9.8017 *  0.0000     8          
   111  Cl    c     -2.9392 *     0.0000      11.7620 *  0.0000     4          
   112  Cl    c      4.9022 *     7.8414 *     7.8414    0.0000     4          
   113  O     c      6.8625 *     9.8017 *    -1.9603 *  0.0000     8          
   114  Li    c      8.8229 *     5.8810 *     5.8810    0.0000     4          
   115  Li    c      2.9419 *    -1.9603 *    11.7620 *  0.0000     8          
   116  Li    c     10.7832 *     5.8810 *     0.0000    0.0000     4          
   117  Li    c    -10.7805 *     5.8810 *     1.9603 *  0.0000     8          
   118  O     c     -4.8995 *     5.8810 *     9.8017 *  0.0000     8          
   119  Cl    c      0.9815 *     3.9207 *    11.7620 *  0.0000     8          
   120  Li    c      4.9022 *     5.8810 *     9.8017 *  0.0000     8          
   121  Cl    c      8.8229 *     7.8414 *     3.9207 *  0.0000     8          
   122  O     c     10.7832 *     5.8810 *    -1.9603 *  0.0000     8          
   123  Li    c     -0.9788 *     9.8017 *     7.8414 *  0.0000     8          
   124  Li    c      6.8625 *     9.8017 *     3.9207 *  0.0000     8          
   125  Cl    c     -2.9392 *     3.9207 *    11.7620 *  0.0000     8          
   126  Cl    c      4.9022 *     0.0000      11.7620 *  0.0000     4          
   127  Cl    c     12.7435 *     0.0000       0.0000    0.0000     1          
   128  Li    c    -12.7408 *    -1.9603 *     0.0000    0.0000     4          
   129  Li    c     -4.8995 *    -1.9603 *    11.7620 *  0.0000     8          
   130  Li    c      2.9419 *     9.8017 *     7.8414 *  0.0000     8          
   131  Li    c     10.7832 *     5.8810 *     3.9207 *  0.0000     8          
   132  O     c    -12.7408 *    -1.9603 *    -1.9603    0.0000     4          
   133  Cl    c     -6.8598 *     7.8414 *     7.8414    0.0000     4          
   134  Li    c     12.7435 *     1.9603 *     1.9603    0.0000     4          
   135  Li    c     -8.8202 *     5.8810 *     7.8414 *  0.0000     8          
   136  Li    c     -8.8202 *     9.8017 *     0.0000    0.0000     4          
   137  Li    c     -0.9788 *     5.8810 *    11.7620 *  0.0000     8          
   138  Cl    c    -10.7805 *     0.0000       7.8414 *  0.0000     4          
   139  O     c     -8.8202 *    -1.9603 *     9.8017 *  0.0000     8          
   140  Li    c     -6.8598 *     5.8810 *     9.8017 *  0.0000     8          
   141  Cl    c      4.9022 *     3.9207 *    11.7620 *  0.0000     8          
   142  O     c      6.8625 *     9.8017 *     5.8810 *  0.0000     8          
   143  Li    c      8.8229 *     9.8017 *     1.9603 *  0.0000     8          
   144  Cl    c     12.7435 *     0.0000       3.9207 *  0.0000     4          
   145  Li    c    -12.7408 *    -1.9603 *     3.9207 *  0.0000     8          
   146  Li    c     -4.8995 *     9.8017 *     7.8414 *  0.0000     8          
   147  Li    c      2.9419 *     5.8810 *    11.7620 *  0.0000     8          
   148  Li    c     10.7832 *    -1.9603 *     7.8414 *  0.0000     8          
   149  Li    c    -10.7805 *     5.8810 *     5.8810    0.0000     4          
   150  Cl    c     -6.8598 *     0.0000      11.7620 *  0.0000     4          
   151  O     c     10.7832 *     5.8810 *     5.8810    0.0000     4          
   152  Li    c     -8.8202 *     9.8017 *     3.9207 *  0.0000     8          
   153  Li    c     -0.9788 *    13.7224 *     0.0000    0.0000     4          
   154  Li    c      6.8625 *    -1.9603 *    11.7620 *  0.0000     8          
   155  Cl    c    -10.7805 *     3.9207 *     7.8414 *  0.0000     8          
   156  O     c     -0.9788 *    -1.9603 *    13.7224 *  0.0000     8          
   157  O     c     -0.9788 *     9.8017 *     9.8017    0.0000     4          
   158  Li    c      0.9815 *     1.9603 *    13.7224 *  0.0000     8          
   159  Li    c      0.9815 *     9.8017 *     9.8017    0.0000     4          
   160  Cl    c     12.7435 *     3.9207 *     3.9207    0.0000     4          
   161  Li    c    -12.7408 *     5.8810 *     0.0000    0.0000     4          
   162  Li    c     -4.8995 *     5.8810 *    11.7620 *  0.0000     8          
   163  Li    c      2.9419 *    13.7224 *     0.0000    0.0000     4          
   164  O     c    -12.7408 *    -1.9603 *     5.8810 *  0.0000     8          
   165  Cl    c     -6.8598 *     3.9207 *    11.7620 *  0.0000     8          
   166  Li    c     -2.9392 *     1.9603 *    13.7224 *  0.0000     8          
   167  Li    c     -2.9392 *     9.8017 *     9.8017    0.0000     4          
   168  Cl    c      0.9815 *     7.8414 *    11.7620 *  0.0000     8          
   169  O     c      2.9419 *    -1.9603 *    13.7224 *  0.0000     8          
   170  O     c      2.9419 *     9.8017 *     9.8017    0.0000     4          
   171  Cl    c      8.8229 *     7.8414 *     7.8414    0.0000     4          
   172  Li    c     12.7435 *     1.9603 *     5.8810 *  0.0000     8          
   173  Li    c     -0.9788 *    13.7224 *     3.9207 *  0.0000     8          
   174  Li    c      6.8625 *     9.8017 *     7.8414 *  0.0000     8          
   175  O     c     -8.8202 *     5.8810 *     9.8017 *  0.0000     8          
   176  Cl    c     -2.9392 *     7.8414 *    11.7620 *  0.0000     8          
   177  Li    c      8.8229 *     5.8810 *     9.8017 *  0.0000     8          
   178  Li    c    -12.7408 *     5.8810 *     3.9207 *  0.0000     8          
   179  Li    c     -4.8995 *    13.7224 *     0.0000    0.0000     4          
   180  Li    c      2.9419 *    13.7224 *     3.9207 *  0.0000     8          
   181  Li    c     10.7832 *     5.8810 *     7.8414 *  0.0000     8          
   182  Li    c     10.7832 *     9.8017 *     0.0000    0.0000     4          
   183  Cl    c    -14.7012 *     0.0000       0.0000    0.0000     1          
   184  Li    c    -10.7805 *     9.8017 *     1.9603 *  0.0000     8          
   185  O     c     -4.8995 *    -1.9603 *    13.7224 *  0.0000     8          
   186  O     c     -4.8995 *     9.8017 *     9.8017    0.0000     4          
   187  Li    c      4.9022 *     1.9603 *    13.7224 *  0.0000     8          
   188  Li    c      4.9022 *     9.8017 *     9.8017    0.0000     4          
   189  Cl    c      8.8229 *     0.0000      11.7620 *  0.0000     4          
   190  O     c     10.7832 *     9.8017 *    -1.9603 *  0.0000     8          
   191  Li    c     -8.8202 *    11.7620 *    -1.9603 *  0.0000     8          
   192  Li    c      6.8625 *     5.8810 *    11.7620 *  0.0000     8          
   193  Li    c     14.7039 *    -1.9603 *     0.0000    0.0000     4          
   194  Li    c    -14.7012 *     1.9603 *     1.9603    0.0000     4          
   195  O     c     -0.9788 *     5.8810 *    13.7224 *  0.0000     8          
   196  Li    c      0.9815 *     5.8810 *    13.7224 *  0.0000     8          
   197  Cl    c      4.9022 *     7.8414 *    11.7620 *  0.0000     8          
   198  Cl    c     12.7435 *     0.0000       7.8414 *  0.0000     4          
   199  O     c     14.7039 *    -1.9603 *    -1.9603    0.0000     4          
   200  Li    c    -12.7408 *    -1.9603 *     7.8414 *  0.0000     8          
   201  Li    c     -4.8995 *    13.7224 *     3.9207 *  0.0000     8          
   202  Li    c     10.7832 *     9.8017 *     3.9207 *  0.0000     8          
   203  Cl    c    -14.7012 *     0.0000       3.9207 *  0.0000     4          
   204  O     c    -12.7408 *     5.8810 *     5.8810    0.0000     4          
   205  Li    c     -2.9392 *     5.8810 *    13.7224 *  0.0000     8          
   206  O     c      2.9419 *     5.8810 *    13.7224 *  0.0000     8          
   207  Cl    c      8.8229 *    11.7620 *     3.9207 *  0.0000     8          
   208  Li    c     12.7435 *     5.8810 *     5.8810    0.0000     4          
   209  Li    c     -8.8202 *     9.8017 *     7.8414 *  0.0000     8          
   210  Li    c     -0.9788 *     9.8017 *    11.7620 *  0.0000     8          
   211  Li    c      6.8625 *    13.7224 *     0.0000    0.0000     4          
   212  Li    c     14.7039 *    -1.9603 *     3.9207 *  0.0000     8          
   213  Cl    c    -10.7805 *     7.8414 *     7.8414    0.0000     4          
   214  Li    c     -6.8598 *     1.9603 *    13.7224 *  0.0000     8          
   215  Li    c     -6.8598 *     9.8017 *     9.8017    0.0000     4          
   216  O     c      6.8625 *    13.7224 *    -1.9603 *  0.0000     8          
   217  O     c      6.8625 *     9.8017 *     9.8017    0.0000     4          
   218  Cl    c     12.7435 *     3.9207 *     7.8414 *  0.0000     8          
   219  Li    c      2.9419 *     9.8017 *    11.7620 *  0.0000     8          
   220  Cl    c    -14.7012 *     3.9207 *     3.9207    0.0000     4          
   221  Li    c    -10.7805 *     5.8810 *     9.8017 *  0.0000     8          
   222  Cl    c     -6.8598 *     7.8414 *    11.7620 *  0.0000     8          
   223  O     c     -4.8995 *     5.8810 *    13.7224 *  0.0000     8          
   224  Cl    c      0.9815 *     0.0000      15.6827 *  0.0000     4          
   225  Li    c      4.9022 *     5.8810 *    13.7224 *  0.0000     8          
   226  O     c     10.7832 *     5.8810 *     9.8017 *  0.0000     8          
   227  Li    c     -8.8202 *     5.8810 *    11.7620 *  0.0000     8          
   228  Li    c     -0.9788 *    -1.9603 *    15.6827 *  0.0000     8          
   229  Li    c     -0.9788 *    13.7224 *     7.8414 *  0.0000     8          
   230  Li    c      6.8625 *    13.7224 *     3.9207 *  0.0000     8          
   231  Li    c     14.7039 *     5.8810 *     0.0000    0.0000     4          
   232  Li    c    -14.7012 *     1.9603 *     5.8810 *  0.0000     8          
   233  Cl    c    -10.7805 *     0.0000      11.7620 *  0.0000     4          
   234  Cl    c     -2.9392 *     0.0000      15.6827 *  0.0000     4          
   235  O     c     14.7039 *    -1.9603 *     5.8810 *  0.0000     8          
   236  Li    c    -12.7408 *     5.8810 *     7.8414 *  0.0000     8          
   237  Li    c    -12.7408 *     9.8017 *     0.0000    0.0000     4          
   238  Li    c     -4.8995 *     9.8017 *    11.7620 *  0.0000     8          
   239  Li    c      2.9419 *    -1.9603 *    15.6827 *  0.0000     8          
   240  Li    c      2.9419 *    13.7224 *     7.8414 *  0.0000     8          
   241  Li    c     10.7832 *    -1.9603 *    11.7620 *  0.0000     8          
   242  O     c    -12.7408 *     9.8017 *    -1.9603 *  0.0000     8          
   243  Cl    c      0.9815 *     3.9207 *    15.6827 *  0.0000     8          
   244  Li    c     12.7435 *     1.9603 *     9.8017 *  0.0000     8          
   245  Li    c     -8.8202 *    13.7224 *     0.0000    0.0000     4          
   246  Li    c     14.7039 *     5.8810 *     3.9207 *  0.0000     8          
   247  Cl    c    -10.7805 *     3.9207 *    11.7620 *  0.0000     8          
   248  O     c     -8.8202 *    -1.9603 *    13.7224 *  0.0000     8          
   249  O     c     -8.8202 *     9.8017 *     9.8017    0.0000     4          
   250  Li    c     -6.8598 *     5.8810 *    13.7224 *  0.0000     8          
   251  Cl    c     -2.9392 *     3.9207 *    15.6827 *  0.0000     8          
   252  Cl    c      4.9022 *     0.0000      15.6827 *  0.0000     4          
   253  O     c      6.8625 *    13.7224 *     5.8810 *  0.0000     8          
   254  Li    c      8.8229 *     1.9603 *    13.7224 *  0.0000     8          
   255  Li    c      8.8229 *     9.8017 *     9.8017    0.0000     4          
   256  Li    c    -12.7408 *     9.8017 *     3.9207 *  0.0000     8          
   257  Li    c     -4.8995 *    -1.9603 *    15.6827 *  0.0000     8          
   258  Li    c     -4.8995 *    13.7224 *     7.8414 *  0.0000     8          
   259  Li    c     10.7832 *     9.8017 *     7.8414 *  0.0000     8          
   260  Cl    c    -14.7012 *     0.0000       7.8414 *  0.0000     4          
   261  Cl    c      0.9815 *    11.7620 *    11.7620    0.0000     4          
   262  Cl    c      8.8229 *     7.8414 *    11.7620 *  0.0000     8          
   263  Cl    c     16.6642 *     0.0000       0.0000    0.0000     1          
   264  Li    c    -16.6615 *    -1.9603 *     0.0000    0.0000     4          
   265  Li    c     -8.8202 *    13.7224 *     3.9207 *  0.0000     8          
   266  Li    c     -0.9788 *     5.8810 *    15.6827 *  0.0000     8          
   267  Li    c      6.8625 *     9.8017 *    11.7620 *  0.0000     8          
   268  Li    c     14.7039 *    -1.9603 *     7.8414 *  0.0000     8          
   269  O     c    -16.6615 *    -1.9603 *    -1.9603    0.0000     4          
   270  Li    c    -14.7012 *     5.8810 *     5.8810    0.0000     4          
   271  Cl    c     -2.9392 *    11.7620 *    11.7620    0.0000     4          
   272  O     c     -0.9788 *     9.8017 *    13.7224 *  0.0000     8          
   273  Li    c      0.9815 *     9.8017 *    13.7224 *  0.0000     8          
   274  Cl    c      4.9022 *     3.9207 *    15.6827 *  0.0000     8          
   275  Cl    c     12.7435 *     7.8414 *     7.8414    0.0000     4          
   276  O     c     14.7039 *     5.8810 *     5.8810    0.0000     4          
   277  Li    c     16.6642 *     1.9603 *     1.9603    0.0000     4          
   278  Li    c      2.9419 *     5.8810 *    15.6827 *  0.0000     8          
   279  Li    c     10.7832 *     5.8810 *    11.7620 *  0.0000     8          
   280  Cl    c    -14.7012 *     3.9207 *     7.8414 *  0.0000     8          
   281  O     c    -12.7408 *     9.8017 *     5.8810 *  0.0000     8          
   282  Cl    c     -6.8598 *     0.0000      15.6827 *  0.0000     4          
   283  Li    c     -2.9392 *     9.8017 *    13.7224 *  0.0000     8          
   284  O     c      2.9419 *     9.8017 *    13.7224 *  0.0000     8          
   285  Li    c     12.7435 *     5.8810 *     9.8017 *  0.0000     8          
   286  Cl    c     16.6642 *     0.0000       3.9207 *  0.0000     4          
   287  Li    c    -16.6615 *    -1.9603 *     3.9207 *  0.0000     8          
   288  Li    c      6.8625 *    -1.9603 *    15.6827 *  0.0000     8          
   289  Li    c      6.8625 *    13.7224 *     7.8414 *  0.0000     8          
   290  O     c     -8.8202 *     5.8810 *    13.7224 *  0.0000     8          
   291  Cl    c      4.9022 *    11.7620 *    11.7620    0.0000     4          
   292  Li    c      8.8229 *     5.8810 *    13.7224 *  0.0000     8          
   293  Cl    c     12.7435 *     0.0000      11.7620 *  0.0000     4          
   294  Li    c    -12.7408 *    -1.9603 *    11.7620 *  0.0000     8          
   295  Li    c     -4.8995 *     5.8810 *    15.6827 *  0.0000     8          
   296  Li    c     10.7832 *    13.7224 *     0.0000    0.0000     4          
   297  Li    c    -10.7805 *    13.7224 *     1.9603 *  0.0000     8          
   298  Li    c    -10.7805 *     9.8017 *     9.8017    0.0000     4          
   299  Cl    c     -6.8598 *     3.9207 *    15.6827 *  0.0000     8          
   300  O     c     -4.8995 *     9.8017 *    13.7224 *  0.0000     8          
   301  Cl    c      0.9815 *     7.8414 *    15.6827 *  0.0000     8          
   302  Li    c      4.9022 *     9.8017 *    13.7224 *  0.0000     8          
   303  O     c     10.7832 *    -1.9603 *    13.7224 *  0.0000     8          
   304  O     c     10.7832 *     9.8017 *     9.8017    0.0000     4          
   305  Cl    c     16.6642 *     3.9207 *     3.9207    0.0000     4          
   306  Li    c    -16.6615 *     5.8810 *     0.0000    0.0000     4          
   307  Li    c     -8.8202 *     9.8017 *    11.7620 *  0.0000     8          
   308  Li    c     -0.9788 *    17.6430 *     0.0000    0.0000     4          
   309  Li    c     14.7039 *     5.8810 *     7.8414 *  0.0000     8          
   310  Li    c     14.7039 *     9.8017 *     0.0000    0.0000     4          
   311  O     c    -16.6615 *    -1.9603 *     5.8810 *  0.0000     8          
   312  Li    c    -14.7012 *     9.8017 *     1.9603 *  0.0000     8          
   313  Cl    c    -10.7805 *     7.8414 *    11.7620 *  0.0000     8          
   314  Cl    c     -2.9392 *     7.8414 *    15.6827 *  0.0000     8          
   315  O     c     -0.9788 *    -1.9603 *    17.6430 *  0.0000     8          
   316  Li    c      0.9815 *     1.9603 *    17.6430 *  0.0000     8          
   317  Cl    c     12.7435 *     3.9207 *    11.7620 *  0.0000     8          
   318  O     c     14.7039 *     9.8017 *    -1.9603 *  0.0000     8          
   319  Li    c     16.6642 *     5.8810 *     1.9603 *  0.0000     8          
   320  Li    c    -12.7408 *     9.8017 *     7.8414 *  0.0000     8          
   321  Li    c      2.9419 *    17.6430 *     0.0000    0.0000     4          
   322  Li    c     10.7832 *    13.7224 *     3.9207 *  0.0000     8          
   323  Cl    c     -6.8598 *    11.7620 *    11.7620    0.0000     4          
   324  Li    c     -2.9392 *     1.9603 *    17.6430 *  0.0000     8          
   325  O     c      2.9419 *    -1.9603 *    17.6430 *  0.0000     8          
   326  Cl    c      8.8229 *     0.0000      15.6827 *  0.0000     4          
   327  Li    c    -16.6615 *     3.9207 *     5.8810 *  0.0000     8          
   328  Li    c     -8.8202 *    -1.9603 *    15.6827 *  0.0000     8          
   329  Li    c     -8.8202 *    13.7224 *     7.8414 *  0.0000     8          
   330  Li    c     -0.9788 *    13.7224 *    11.7620 *  0.0000     8          
   331  Li    c     -0.9788 *     3.9207 *    17.6430 *  0.0000     8          
   332  Li    c      6.8625 *     5.8810 *    15.6827 *  0.0000     8          
   333  Li    c     14.7039 *     9.8017 *     3.9207 *  0.0000     8          
   334  Li    c     -6.8598 *     9.8017 *    13.7224 *  0.0000     8          
   335  Cl    c      4.9022 *     7.8414 *    15.6827 *  0.0000     8          
   336  O     c      6.8625 *     9.8017 *    13.7224 *  0.0000     8          
   337  Li    c    -12.7408 *     5.8810 *    11.7620 *  0.0000     8          
   338  Li    c     -4.8995 *    17.6430 *     0.0000    0.0000     4          
   339  Li    c      2.9419 *    13.7224 *    11.7620 *  0.0000     8          
   340  Li    c      2.9419 *    17.6430 *     3.9207 *  0.0000     8          
   341  Cl    c    -14.7012 *     7.8414 *     7.8414    0.0000     4          
   342  Li    c    -10.7805 *    13.7224 *     5.8810 *  0.0000     8          
   343  O     c     -4.8995 *    17.6430 *    -1.9603 *  0.0000     8          
   344  Li    c      4.9022 *     1.9603 *    17.6430 *  0.0000     8          
   345  Cl    c      8.8229 *     3.9207 *    15.6827 *  0.0000     8          
   346  O     c     10.7832 *     5.8810 *    13.7224 *  0.0000     8          
   347  Cl    c     16.6642 *     0.0000       7.8414 *  0.0000     4          
   348  Li    c    -16.6615 *    -1.9603 *     7.8414 *  0.0000     8          
   349  Li    c     -0.9788 *     9.8017 *    15.6827 *  0.0000     8          
   350  Cl    c    -18.6219 *     0.0000       0.0000    0.0000     1          
   351  O     c    -16.6615 *     5.8810 *     5.8810    0.0000     4          
   352  Li    c    -14.7012 *     9.8017 *     5.8810 *  0.0000     8          
   353  O     c     -0.9788 *     5.8810 *    17.6430 *  0.0000     8          
   354  Li    c      0.9815 *     5.8810 *    17.6430 *  0.0000     8          
   355  O     c     14.7039 *     9.8017 *     5.8810 *  0.0000     8          
   356  Li    c     16.6642 *     5.8810 *     5.8810    0.0000     4          
   357  Li    c    -12.7408 *    13.7224 *     0.0000    0.0000     4          
   358  Li    c     -4.8995 *    13.7224 *    11.7620 *  0.0000     8          
   359  Li    c     -4.8995 *    17.6430 *     3.9207 *  0.0000     8          
   360  Li    c      2.9419 *     9.8017 *    15.6827 *  0.0000     8          
   361  Li    c     10.7832 *     9.8017 *    11.7620 *  0.0000     8          
   362  Li    c     18.6246 *    -1.9603 *     0.0000    0.0000     4          
   363  Li    c    -18.6219 *     1.9603 *     1.9603    0.0000     4          
   364  Cl    c    -14.7012 *     0.0000      11.7620 *  0.0000     4          
   365  O     c    -12.7408 *    13.7224 *    -1.9603 *  0.0000     8          
   366  O     c    -12.7408 *     9.8017 *     9.8017    0.0000     4          
   367  Cl    c     -6.8598 *     7.8414 *    15.6827 *  0.0000     8          
   368  Li    c     -2.9392 *     5.8810 *    17.6430 *  0.0000     8          
   369  O     c      2.9419 *     5.8810 *    17.6430 *  0.0000     8          
   370  Cl    c      8.8229 *    11.7620 *    11.7620    0.0000     4          
   371  Li    c     12.7435 *     1.9603 *    13.7224 *  0.0000     8          
   372  Li    c     12.7435 *     9.8017 *     9.8017    0.0000     4          
   373  Cl    c     16.6642 *     3.9207 *     7.8414 *  0.0000     8          
   374  O     c     18.6246 *    -1.9603 *    -1.9603    0.0000     4          
   375  Li    c     -8.8202 *     5.8810 *    15.6827 *  0.0000     8          
   376  Li    c      6.8625 *    17.6430 *     0.0000    0.0000     4          
   377  Li    c     14.7039 *    -1.9603 *    11.7620 *  0.0000     8          
   378  Cl    c    -18.6219 *     0.0000       3.9207 *  0.0000     4          
   379  Cl    c    -10.7805 *     0.0000      15.6827 *  0.0000     4          
   380  O     c     -8.8202 *     9.8017 *    13.7224 *  0.0000     8          
   381  Li    c     -6.8598 *     1.9603 *    17.6430 *  0.0000     8          
   382  O     c      6.8625 *    -1.9603 *    17.6430 *  0.0000     8          
   383  Li    c      8.8229 *     9.8017 *    13.7224 *  0.0000     8          
   384  Cl    c     12.7435 *     7.8414 *    11.7620 *  0.0000     8          
   385  Li    c    -12.7408 *    13.7224 *     3.9207 *  0.0000     8          
   386  Li    c     -4.8995 *     9.8017 *    15.6827 *  0.0000     8          
   387  Li    c     10.7832 *    15.6827 *    -1.9603 *  0.0000     8          
   388  Li    c     10.7832 *    13.7224 *     7.8414 *  0.0000     8          
   389  Li    c     18.6246 *    -1.9603 *     3.9207 *  0.0000     8          
   390  Cl    c    -14.7012 *     3.9207 *    11.7620 *  0.0000     8          
   391  O     c     -4.8995 *    17.6430 *     5.8810 *  0.0000     8          
   392  Li    c      4.9022 *     5.8810 *    17.6430 *  0.0000     8          
   393  Li    c    -16.6615 *     9.8017 *     0.0000    0.0000     4          
   394  Li    c    -16.6615 *     7.8414 *     5.8810 *  0.0000     8          
   395  Li    c     -0.9788 *     7.8414 *    17.6430 *  0.0000     8          
   396  Li    c      6.8625 *    13.7224 *    11.7620 *  0.0000     8          
   397  Li    c      6.8625 *     3.9207 *    17.6430 *  0.0000     8          
   398  Li    c     14.7039 *     9.8017 *     7.8414 *  0.0000     8          
   399  Cl    c    -18.6219 *     3.9207 *     3.9207    0.0000     4          
   400  O     c    -16.6615 *     9.8017 *    -1.9603 *  0.0000     8          
   401  Cl    c    -10.7805 *     3.9207 *    15.6827 *  0.0000     8          
   402  O     c     -0.9788 *    13.7224 *    13.7224    0.0000     4          
   403  Li    c      0.9815 *    13.7224 *    13.7224    0.0000     4          
   404  Li    c     16.6642 *     1.9603 *     9.8017 *  0.0000     8          
   405  Li    c      2.9419 *     7.8414 *    17.6430 *  0.0000     8          
   406  Li    c     18.6246 *     5.8810 *     0.0000    0.0000     4          
   407  Li    c    -18.6219 *     5.8810 *     1.9603 *  0.0000     8          
   408  O     c    -12.7408 *    13.7224 *     5.8810 *  0.0000     8          
   409  Li    c     -2.9392 *    13.7224 *    13.7224    0.0000     4          
   410  Cl    c      0.9815 *    11.7620 *    15.6827 *  0.0000     8          
   411  Cl    c      0.9815 *     0.0000      19.6034 *  0.0000     4          
   412  O     c      2.9419 *    13.7224 *    13.7224    0.0000     4          
   413  Cl    c      8.8229 *     7.8414 *    15.6827 *  0.0000     8          
   414  Li    c     12.7435 *     5.8810 *    13.7224 *  0.0000     8          
   415  O     c     18.6246 *    -1.9603 *     5.8810 *  0.0000     8          
   416  Li    c    -16.6615 *     9.8017 *     3.9207 *  0.0000     8          
   417  Li    c     -8.8202 *    17.6430 *     0.0000    0.0000     4          
   418  Li    c     -0.9788 *    -1.9603 *    19.6034 *  0.0000     8          
   419  Li    c      6.8625 *     9.8017 *    15.6827 *  0.0000     8          
   420  Li    c     14.7039 *     5.8810 *    11.7620 *  0.0000     8          
   421  Cl    c    -10.7805 *    11.7620 *    11.7620    0.0000     4          
   422  O     c     -8.8202 *    17.6430 *    -1.9603 *  0.0000     8          
   423  Li    c     -6.8598 *     5.8810 *    17.6430 *  0.0000     8          
   424  Cl    c     -2.9392 *    11.7620 *    15.6827 *  0.0000     8          
   425  Cl    c     -2.9392 *     0.0000      19.6034 *  0.0000     4          
   426  O     c      6.8625 *     5.8810 *    17.6430 *  0.0000     8          
   427  Li    c      8.8229 *     1.9603 *    17.6430 *  0.0000     8          
   428  Li    c    -12.7408 *     9.8017 *    11.7620 *  0.0000     8          
   429  Li    c     -4.8995 *    17.6430 *     7.8414 *  0.0000     8          
   430  Li    c      2.9419 *    -1.9603 *    19.6034 *  0.0000     8          
   431  Li    c     10.7832 *     5.8810 *    15.6827 *  0.0000     8          
   432  Li    c     18.6246 *     3.9207 *     5.8810 *  0.0000     8          
   433  O     s     -0.9788 *    -1.9603 *    -1.9603    0.0000     4          
   434  Cl    s      0.9815 *     0.0000       3.9207 *  0.0000     4          
   435  O     s      2.9419 *    -1.9603 *    -1.9603    0.0000     4          
   436  Cl    s      4.6636       0.0000       0.0000    0.0000     1    Defect
   437  Cl    s     -2.9392 *     0.0000       3.9207 *  0.0000     4          
   438  Cl    s      4.9022 *     0.0000       0.0000    0.0000     1          
   439  O     s     -4.8995 *    -1.9603 *    -1.9603    0.0000     4          
   440  Cl    s      0.9815 *     3.9207 *     3.9207    0.0000     4          
   441  Cl    s     -2.9392 *     3.9207 *     3.9207    0.0000     4          
   442  O     s     -0.9788 *    -1.9603 *     5.8810 *  0.0000     8          
   443  Cl    s      4.9022 *     0.0000       3.9207 *  0.0000     4          
   444  Cl    s     -6.8598 *     0.0000       0.0000    0.0000     1          
   445  O     s      2.9419 *    -1.9603 *     5.8810 *  0.0000     8          
   446  Cl    s      4.9022 *     3.9207 *     3.9207    0.0000     4          
   447  O     s      6.8625 *    -1.9603 *    -1.9603    0.0000     4          
   448  Cl    s     -6.8598 *     0.0000       3.9207 *  0.0000     4          
   449  O     s     -4.8995 *    -1.9603 *     5.8810 *  0.0000     8          
   450  Cl    s      0.9815 *     0.0000       7.8414 *  0.0000     4          
   451  Cl    s     -2.9392 *     0.0000       7.8414 *  0.0000     4          
   452  O     s     -0.9788 *     5.8810 *     5.8810    0.0000     4          
   453  Cl    s     -6.8598 *     3.9207 *     3.9207    0.0000     4          
   454  Cl    s      0.9815 *     3.9207 *     7.8414 *  0.0000     8          
   455  O     s      2.9419 *     5.8810 *     5.8810    0.0000     4          
   456  Cl    s      8.8229 *     0.0000       0.0000    0.0000     1          
   457  O     s     -8.8202 *    -1.9603 *    -1.9603    0.0000     4          
   458  Cl    s     -2.9392 *     3.9207 *     7.8414 *  0.0000     8          
   459  Cl    s      4.9022 *     0.0000       7.8414 *  0.0000     4          
   460  O     s      6.8625 *    -1.9603 *     5.8810 *  0.0000     8          
   461  O     s     -4.8995 *     5.8810 *     5.8810    0.0000     4          
   462  Cl    s      8.8229 *     0.0000       3.9207 *  0.0000     4          
   463  O     s     -0.9788 *    -1.9603 *     9.8017 *  0.0000     8          
   464  Cl    s      4.9022 *     3.9207 *     7.8414 *  0.0000     8          
   465  Cl    s     -6.8598 *     0.0000       7.8414 *  0.0000     4          
   466  O     s      2.9419 *    -1.9603 *     9.8017 *  0.0000     8          
   467  Cl    s      8.8229 *     3.9207 *     3.9207    0.0000     4          
   468  Cl    s    -10.7805 *     0.0000       0.0000    0.0000     1          
   469  O     s     -8.8202 *    -1.9603 *     5.8810 *  0.0000     8          
   470  O     s      6.8625 *     5.8810 *     5.8810    0.0000     4          
   471  Cl    s     -6.8598 *     3.9207 *     7.8414 *  0.0000     8          
   472  O     s     -4.8995 *    -1.9603 *     9.8017 *  0.0000     8          
   473  Cl    s      0.9815 *     7.8414 *     7.8414    0.0000     4          
   474  O     s     10.7832 *    -1.9603 *    -1.9603    0.0000     4          
   475  Cl    s    -10.7805 *     0.0000       3.9207 *  0.0000     4          
   476  Cl    s     -2.9392 *     7.8414 *     7.8414    0.0000     4          
   477  O     s     -0.9788 *     5.8810 *     9.8017 *  0.0000     8          
   478  Cl    s      0.9815 *     0.0000      11.7620 *  0.0000     4          
   479  O     s      2.9419 *     5.8810 *     9.8017 *  0.0000     8          
   480  Cl    s      8.8229 *     0.0000       7.8414 *  0.0000     4          
   481  Cl    s    -10.7805 *     3.9207 *     3.9207    0.0000     4          
   482  O     s     -8.8202 *     5.8810 *     5.8810    0.0000     4          
   483  Cl    s     -2.9392 *     0.0000      11.7620 *  0.0000     4          
   484  Cl    s      4.9022 *     7.8414 *     7.8414    0.0000     4          
   485  O     s      6.8625 *     9.8017 *    -1.9603 *  0.0000     8          
   486  O     s     -4.8995 *     5.8810 *     9.8017 *  0.0000     8          
   487  Cl    s      0.9815 *     3.9207 *    11.7620 *  0.0000     8          
   488  Cl    s      8.8229 *     7.8414 *     3.9207 *  0.0000     8          
   489  O     s     10.7832 *     5.8810 *    -1.9603 *  0.0000     8          
   490  Cl    s     -2.9392 *     3.9207 *    11.7620 *  0.0000     8          
   491  Cl    s      4.9022 *     0.0000      11.7620 *  0.0000     4          
   492  Cl    s     12.7435 *     0.0000       0.0000    0.0000     1          
   493  O     s    -12.7408 *    -1.9603 *    -1.9603    0.0000     4          
   494  Cl    s     -6.8598 *     7.8414 *     7.8414    0.0000     4          
   495  Cl    s    -10.7805 *     0.0000       7.8414 *  0.0000     4          
   496  O     s     -8.8202 *    -1.9603 *     9.8017 *  0.0000     8          
   497  Cl    s      4.9022 *     3.9207 *    11.7620 *  0.0000     8          
   498  O     s      6.8625 *     9.8017 *     5.8810 *  0.0000     8          
   499  Cl    s     12.7435 *     0.0000       3.9207 *  0.0000     4          
   500  Cl    s     -6.8598 *     0.0000      11.7620 *  0.0000     4          
   501  O     s     10.7832 *     5.8810 *     5.8810    0.0000     4          
   502  Cl    s    -10.7805 *     3.9207 *     7.8414 *  0.0000     8          
   503  O     s     -0.9788 *    -1.9603 *    13.7224 *  0.0000     8          
   504  O     s     -0.9788 *     9.8017 *     9.8017    0.0000     4          
   505  Cl    s     12.7435 *     3.9207 *     3.9207    0.0000     4          
   506  O     s    -12.7408 *    -1.9603 *     5.8810 *  0.0000     8          
   507  Cl    s     -6.8598 *     3.9207 *    11.7620 *  0.0000     8          
   508  Cl    s      0.9815 *     7.8414 *    11.7620 *  0.0000     8          
   509  O     s      2.9419 *    -1.9603 *    13.7224 *  0.0000     8          
   510  O     s      2.9419 *     9.8017 *     9.8017    0.0000     4          
   511  Cl    s      8.8229 *     7.8414 *     7.8414    0.0000     4          
   512  O     s     -8.8202 *     5.8810 *     9.8017 *  0.0000     8          
   513  Cl    s     -2.9392 *     7.8414 *    11.7620 *  0.0000     8          
   514  Cl    s    -14.7012 *     0.0000       0.0000    0.0000     1          
   515  O     s     -4.8995 *    -1.9603 *    13.7224 *  0.0000     8          
   516  O     s     -4.8995 *     9.8017 *     9.8017    0.0000     4          
   517  Cl    s      8.8229 *     0.0000      11.7620 *  0.0000     4          
   518  O     s     10.7832 *     9.8017 *    -1.9603 *  0.0000     8          
   519  O     s     -0.9788 *     5.8810 *    13.7224 *  0.0000     8          
   520  Cl    s      4.9022 *     7.8414 *    11.7620 *  0.0000     8          
   521  Cl    s     12.7435 *     0.0000       7.8414 *  0.0000     4          
   522  O     s     14.7039 *    -1.9603 *    -1.9603    0.0000     4          
   523  Cl    s    -14.7012 *     0.0000       3.9207 *  0.0000     4          
   524  O     s    -12.7408 *     5.8810 *     5.8810    0.0000     4          
   525  O     s      2.9419 *     5.8810 *    13.7224 *  0.0000     8          
   526  Cl    s      8.8229 *    11.7620 *     3.9207 *  0.0000     8          
   527  Cl    s    -10.7805 *     7.8414 *     7.8414    0.0000     4          
   528  O     s      6.8625 *    13.7224 *    -1.9603 *  0.0000     8          
   529  O     s      6.8625 *     9.8017 *     9.8017    0.0000     4          
   530  Cl    s     12.7435 *     3.9207 *     7.8414 *  0.0000     8          
   531  Cl    s    -14.7012 *     3.9207 *     3.9207    0.0000     4          
   532  Cl    s     -6.8598 *     7.8414 *    11.7620 *  0.0000     8          
   533  O     s     -4.8995 *     5.8810 *    13.7224 *  0.0000     8          
   534  Cl    s      0.9815 *     0.0000      15.6827 *  0.0000     4          
   535  O     s     10.7832 *     5.8810 *     9.8017 *  0.0000     8          
   536  Cl    s    -10.7805 *     0.0000      11.7620 *  0.0000     4          
   537  Cl    s     -2.9392 *     0.0000      15.6827 *  0.0000     4          
   538  O     s     14.7039 *    -1.9603 *     5.8810 *  0.0000     8          
   539  O     s    -12.7408 *     9.8017 *    -1.9603 *  0.0000     8          
   540  Cl    s      0.9815 *     3.9207 *    15.6827 *  0.0000     8          
   541  Cl    s    -10.7805 *     3.9207 *    11.7620 *  0.0000     8          
   542  O     s     -8.8202 *    -1.9603 *    13.7224 *  0.0000     8          
   543  O     s     -8.8202 *     9.8017 *     9.8017    0.0000     4          
   544  Cl    s     -2.9392 *     3.9207 *    15.6827 *  0.0000     8          
   545  Cl    s      4.9022 *     0.0000      15.6827 *  0.0000     4          
   546  O     s      6.8625 *    13.7224 *     5.8810 *  0.0000     8          
   547  Cl    s    -14.7012 *     0.0000       7.8414 *  0.0000     4          
   548  Cl    s      0.9815 *    11.7620 *    11.7620    0.0000     4          
   549  Cl    s      8.8229 *     7.8414 *    11.7620 *  0.0000     8          
   550  Cl    s     16.6642 *     0.0000       0.0000    0.0000     1          
   551  O     s    -16.6615 *    -1.9603 *    -1.9603    0.0000     4          
   552  Cl    s     -2.9392 *    11.7620 *    11.7620    0.0000     4          
   553  O     s     -0.9788 *     9.8017 *    13.7224 *  0.0000     8          
   554  Cl    s      4.9022 *     3.9207 *    15.6827 *  0.0000     8          
   555  Cl    s     12.7435 *     7.8414 *     7.8414    0.0000     4          
   556  O     s     14.7039 *     5.8810 *     5.8810    0.0000     4          
   557  Cl    s    -14.7012 *     3.9207 *     7.8414 *  0.0000     8          
   558  O     s    -12.7408 *     9.8017 *     5.8810 *  0.0000     8          
   559  Cl    s     -6.8598 *     0.0000      15.6827 *  0.0000     4          
   560  O     s      2.9419 *     9.8017 *    13.7224 *  0.0000     8          
   561  Cl    s     16.6642 *     0.0000       3.9207 *  0.0000     4          
   562  O     s     -8.8202 *     5.8810 *    13.7224 *  0.0000     8          
   563  Cl    s      4.9022 *    11.7620 *    11.7620    0.0000     4          
   564  Cl    s     12.7435 *     0.0000      11.7620 *  0.0000     4          
   565  Cl    s     -6.8598 *     3.9207 *    15.6827 *  0.0000     8          
   566  O     s     -4.8995 *     9.8017 *    13.7224 *  0.0000     8          
   567  Cl    s      0.9815 *     7.8414 *    15.6827 *  0.0000     8          
   568  O     s     10.7832 *    -1.9603 *    13.7224 *  0.0000     8          
   569  O     s     10.7832 *     9.8017 *     9.8017    0.0000     4          
   570  Cl    s     16.6642 *     3.9207 *     3.9207    0.0000     4          
   571  O     s    -16.6615 *    -1.9603 *     5.8810 *  0.0000     8          
   572  Cl    s    -10.7805 *     7.8414 *    11.7620 *  0.0000     8          
   573  Cl    s     -2.9392 *     7.8414 *    15.6827 *  0.0000     8          
   574  O     s     -0.9788 *    -1.9603 *    17.6430 *  0.0000     8          
   575  Cl    s     12.7435 *     3.9207 *    11.7620 *  0.0000     8          
   576  O     s     14.7039 *     9.8017 *    -1.9603 *  0.0000     8          
   577  Cl    s     -6.8598 *    11.7620 *    11.7620    0.0000     4          
   578  O     s      2.9419 *    -1.9603 *    17.6430 *  0.0000     8          
   579  Cl    s      8.8229 *     0.0000      15.6827 *  0.0000     4          
   580  Cl    s      4.9022 *     7.8414 *    15.6827 *  0.0000     8          
   581  O     s      6.8625 *     9.8017 *    13.7224 *  0.0000     8          
   582  Cl    s    -14.7012 *     7.8414 *     7.8414    0.0000     4          
   583  O     s     -4.8995 *    17.6430 *    -1.9603 *  0.0000     8          
   584  Cl    s      8.8229 *     3.9207 *    15.6827 *  0.0000     8          
   585  O     s     10.7832 *     5.8810 *    13.7224 *  0.0000     8          
   586  Cl    s     16.6642 *     0.0000       7.8414 *  0.0000     4          
   587  Cl    s    -18.6219 *     0.0000       0.0000    0.0000     1          
   588  O     s    -16.6615 *     5.8810 *     5.8810    0.0000     4          
   589  O     s     -0.9788 *     5.8810 *    17.6430 *  0.0000     8          
   590  O     s     14.7039 *     9.8017 *     5.8810 *  0.0000     8          
   591  Cl    s    -14.7012 *     0.0000      11.7620 *  0.0000     4          
   592  O     s    -12.7408 *    13.7224 *    -1.9603 *  0.0000     8          
   593  O     s    -12.7408 *     9.8017 *     9.8017    0.0000     4          
   594  Cl    s     -6.8598 *     7.8414 *    15.6827 *  0.0000     8          
   595  O     s      2.9419 *     5.8810 *    17.6430 *  0.0000     8          
   596  Cl    s      8.8229 *    11.7620 *    11.7620    0.0000     4          
   597  Cl    s     16.6642 *     3.9207 *     7.8414 *  0.0000     8          
   598  O     s     18.6246 *    -1.9603 *    -1.9603    0.0000     4          
   599  Cl    s    -18.6219 *     0.0000       3.9207 *  0.0000     4          
   600  Cl    s    -10.7805 *     0.0000      15.6827 *  0.0000     4          
   601  O     s     -8.8202 *     9.8017 *    13.7224 *  0.0000     8          
   602  O     s      6.8625 *    -1.9603 *    17.6430 *  0.0000     8          
   603  Cl    s     12.7435 *     7.8414 *    11.7620 *  0.0000     8          
   604  Cl    s    -14.7012 *     3.9207 *    11.7620 *  0.0000     8          
   605  O     s     -4.8995 *    17.6430 *     5.8810 *  0.0000     8          
   606  Cl    s    -18.6219 *     3.9207 *     3.9207    0.0000     4          
   607  O     s    -16.6615 *     9.8017 *    -1.9603 *  0.0000     8          
   608  Cl    s    -10.7805 *     3.9207 *    15.6827 *  0.0000     8          
   609  O     s     -0.9788 *    13.7224 *    13.7224    0.0000     4          
   610  O     s    -12.7408 *    13.7224 *     5.8810 *  0.0000     8          
   611  Cl    s      0.9815 *    11.7620 *    15.6827 *  0.0000     8          
   612  Cl    s      0.9815 *     0.0000      19.6034 *  0.0000     4          
   613  O     s      2.9419 *    13.7224 *    13.7224    0.0000     4          
   614  Cl    s      8.8229 *     7.8414 *    15.6827 *  0.0000     8          
   615  O     s     18.6246 *    -1.9603 *     5.8810 *  0.0000     8          
   616  Cl    s    -10.7805 *    11.7620 *    11.7620    0.0000     4          
   617  O     s     -8.8202 *    17.6430 *    -1.9603 *  0.0000     8          
   618  Cl    s     -2.9392 *    11.7620 *    15.6827 *  0.0000     8          
   619  Cl    s     -2.9392 *     0.0000      19.6034 *  0.0000     4          
   620  O     s      6.8625 *     5.8810 *    17.6430 *  0.0000     8          
--------------------------------------------------------------------------------


  Constraints on symmetry reduced coordinates :

--------------------------------------------------------------------------------
  Constraint no.      Unconstrained     Constrained    Coefficient    
                         Variable         Variable
--------------------------------------------------------------------------------
           1                 2 y             2 z         1.00000
           2                 3 y             3 z         1.00000
           3                 5 y             5 z         1.00000
           4                 7 y             7 z         1.00000
           5                14 y            14 z         1.00000
           6                15 y            15 z         1.00000
           7                16 y            16 z         1.00000
           8                18 y            18 z         1.00000
           9                29 y            29 z         1.00000
          10                30 y            30 z         1.00000
          11                31 y            31 z         1.00000
          12                41 y            41 z         1.00000
          13                42 y            42 z         1.00000
          14                45 y            45 z         1.00000
          15                46 y            46 z         1.00000
          16                48 y            48 z         1.00000
          17                52 y            52 z         1.00000
          18                57 y            57 z         1.00000
          19                59 y            59 z         1.00000
          20                60 y            60 z         1.00000
          21                74 y            74 z         1.00000
          22                80 y            80 z         1.00000
          23                81 y            81 z         1.00000
          24                87 y            87 z         1.00000
          25                90 y            90 z         1.00000
          26                92 y            92 z         1.00000
          27                95 y            95 z         1.00000
          28               108 y           108 z         1.00000
          29               109 y           109 z         1.00000
          30               112 y           112 z         1.00000
          31               114 y           114 z         1.00000
          32               132 y           132 z         1.00000
          33               133 y           133 z         1.00000
          34               134 y           134 z         1.00000
          35               149 y           149 z         1.00000
          36               151 y           151 z         1.00000
          37               157 y           157 z         1.00000
          38               159 y           159 z         1.00000
          39               160 y           160 z         1.00000
          40               167 y           167 z         1.00000
          41               170 y           170 z         1.00000
          42               171 y           171 z         1.00000
          43               186 y           186 z         1.00000
          44               188 y           188 z         1.00000
          45               194 y           194 z         1.00000
          46               199 y           199 z         1.00000
          47               204 y           204 z         1.00000
          48               208 y           208 z         1.00000
          49               213 y           213 z         1.00000
          50               215 y           215 z         1.00000
          51               217 y           217 z         1.00000
          52               220 y           220 z         1.00000
          53               249 y           249 z         1.00000
          54               255 y           255 z         1.00000
          55               261 y           261 z         1.00000
          56               269 y           269 z         1.00000
          57               270 y           270 z         1.00000
          58               271 y           271 z         1.00000
          59               275 y           275 z         1.00000
          60               276 y           276 z         1.00000
          61               277 y           277 z         1.00000
          62               291 y           291 z         1.00000
          63               298 y           298 z         1.00000
          64               304 y           304 z         1.00000
          65               305 y           305 z         1.00000
          66               323 y           323 z         1.00000
          67               341 y           341 z         1.00000
          68               351 y           351 z         1.00000
          69               356 y           356 z         1.00000
          70               363 y           363 z         1.00000
          71               366 y           366 z         1.00000
          72               370 y           370 z         1.00000
          73               372 y           372 z         1.00000
          74               374 y           374 z         1.00000
          75               399 y           399 z         1.00000
          76               402 y           402 z         1.00000
          77               403 y           403 z         1.00000
          78               409 y           409 z         1.00000
          79               412 y           412 z         1.00000
          80               421 y           421 z         1.00000
          81               433 y           433 z         1.00000
          82               435 y           435 z         1.00000
          83               439 y           439 z         1.00000
          84               440 y           440 z         1.00000
          85               441 y           441 z         1.00000
          86               446 y           446 z         1.00000
          87               447 y           447 z         1.00000
          88               452 y           452 z         1.00000
          89               453 y           453 z         1.00000
          90               455 y           455 z         1.00000
          91               457 y           457 z         1.00000
[...]
    540 y          3.920675     -0.001505    -3.922180    Cartesian -100.04
    540 z         15.682702     -0.005469   -15.688171    Cartesian -100.03
    541 x         -7.841351      0.004630     7.845981    Cartesian -100.06
    541 y          3.920675     -0.002064    -3.922739    Cartesian -100.05
    541 z         11.762026     -0.005969   -11.767996    Cartesian -100.05
    542 x         -5.881013      0.000211     5.881224    Cartesian -100.00
    542 y         -1.960338      0.000053     1.960391    Cartesian -100.00
    542 z         13.722364     -0.000420   -13.722784    Cartesian -100.00
    543 x         -5.881013      0.000191     5.881205    Cartesian -100.00
    543 y          9.801689     -0.000267    -9.801955    Cartesian -100.00
    543 z          9.801689     -0.000267    -9.801955    Cartesian -100.00
    544 x          0.000000      0.000552     0.000552    Cartesian    0.00
    544 y          3.920675     -0.001600    -3.922276    Cartesian -100.04
    544 z         15.682702     -0.005916   -15.688618    Cartesian -100.04
    545 x          7.841351     -0.001966    -7.843317    Cartesian -100.03
    545 y          0.000000      0.000000     0.000000    Cartesian    0.00
    545 z         15.682702     -0.004604   -15.687306    Cartesian -100.03
    546 x          9.801689     -0.000139    -9.801828    Cartesian -100.00
    546 y         13.722364     -0.000208   -13.722572    Cartesian -100.00
    546 z          5.881013     -0.000092    -5.881105    Cartesian -100.00
    547 x        -11.762026      0.007073    11.769099    Cartesian -100.06
    547 y          0.000000      0.000000     0.000000    Cartesian    0.00
    547 z          7.841351     -0.004193    -7.845544    Cartesian -100.05
    548 x          3.920675     -0.001075    -3.921751    Cartesian -100.03
    548 y         11.762026     -0.003873   -11.765899    Cartesian -100.03
    548 z         11.762026     -0.003873   -11.765899    Cartesian -100.03
    549 x         11.762026     11.867198     0.105172    Cartesian    0.89
    549 y          7.841351     -0.001640    -7.842991    Cartesian -100.02
    549 z         11.762026     -0.002365   -11.764392    Cartesian -100.02
    550 x         19.603377     -0.001113   -19.604491    Cartesian -100.01
    550 y          0.000000      0.000000     0.000000    Cartesian    0.00
    550 z          0.000000      0.000000     0.000000    Cartesian    0.00
    551 x        -13.722364      0.000517    13.722881    Cartesian -100.00
    551 y         -1.960338      0.000079     1.960417    Cartesian -100.00
    551 z         -1.960338      0.000079     1.960417    Cartesian -100.00
    552 x          0.000000      0.000720     0.000720    Cartesian    0.00
    552 y         11.762026     -0.004195   -11.766222    Cartesian -100.04
    552 z         11.762026     -0.004195   -11.766222    Cartesian -100.04
    553 x          1.960338     -0.000012    -1.960350    Cartesian -100.00
    553 y          9.801689     -0.000184    -9.801872    Cartesian -100.00
    553 z         13.722364     -0.000281   -13.722645    Cartesian -100.00
    554 x          7.841351     -0.001696    -7.843047    Cartesian -100.02
    554 y          3.920675     -0.001091    -3.921766    Cartesian -100.03
    554 z         15.682702     -0.004114   -15.686816    Cartesian -100.03
    555 x         15.682702     -0.002409   -15.685111    Cartesian -100.02
    555 y          7.841351     -0.000937    -7.842288    Cartesian -100.01
    555 z          7.841351     -0.000937    -7.842288    Cartesian -100.01
    556 x         17.643040     -0.000105   -17.643145    Cartesian -100.00
    556 y          5.881013     -0.000022    -5.881035    Cartesian -100.00
    556 z          5.881013     -0.000022    -5.881035    Cartesian -100.00
    557 x        -11.762026      0.006348    11.768374    Cartesian -100.05
    557 y          3.920675     -0.001957    -3.922632    Cartesian -100.05
    557 z          7.841351     -0.003828    -7.845179    Cartesian -100.05
    558 x         -9.801689      0.000310     9.801999    Cartesian -100.00
    558 y          9.801689     -0.000288    -9.801977    Cartesian -100.00
    558 z          5.881013     -0.000194    -5.881207    Cartesian -100.00
    559 x         -3.920675     -4.008781    -0.088105    Cartesian    2.25
    559 y          0.000000      0.000000     0.000000    Cartesian    0.00
    559 z         15.682702     -0.005874   -15.688576    Cartesian -100.04
    560 x          5.881013     -0.000080    -5.881093    Cartesian -100.00
    560 y          9.801689     -0.000162    -9.801851    Cartesian -100.00
    560 z         13.722364     -0.000228   -13.722592    Cartesian -100.00
    561 x         19.603377     -0.001063   -19.604441    Cartesian -100.01
    561 y          0.000000      0.000000     0.000000    Cartesian    0.00
    561 z          3.920675     -0.000131    -3.920806    Cartesian -100.00
    562 x         -5.881013      0.000182     5.881195    Cartesian -100.00
    562 y          5.881013     -0.000155    -5.881169    Cartesian -100.00
    562 z         13.722364     -0.000330   -13.722694    Cartesian -100.00
    563 x          7.841351     -0.001481    -7.842832    Cartesian -100.02
    563 y         11.762026     -0.003219   -11.765246    Cartesian -100.03
    563 z         11.762026     -0.003219   -11.765246    Cartesian -100.03
    564 x         15.682702     -0.002257   -15.684959    Cartesian -100.01
    564 y          0.000000      0.000000     0.000000    Cartesian    0.00
    564 z         11.762026     -0.001682   -11.763708    Cartesian -100.01
    565 x         -3.920675      0.002344     3.923019    Cartesian -100.06
    565 y          3.920675     -0.001350    -3.922026    Cartesian -100.03
    565 z         15.682702     -0.005431   -15.688133    Cartesian -100.03
    566 x         -1.960338      0.000087     1.960425    Cartesian -100.00
    566 y          9.801689     -0.000187    -9.801876    Cartesian -100.00
    566 z         13.722364     -0.000265   -13.722629    Cartesian -100.00
    567 x          3.920675     -0.000590    -3.921265    Cartesian -100.02
    567 y          7.841351     -0.002307    -7.843658    Cartesian -100.03
    567 z         15.682702     -0.004272   -15.686974    Cartesian -100.03
    568 x         13.722364     -0.000139   -13.722503    Cartesian -100.00
    568 y         -1.960338     -1.960796    -0.000458    Cartesian    0.02
    568 z         13.722364     -0.000130   -13.722495    Cartesian -100.00
    569 x         13.722364     -0.000123   -13.722488    Cartesian -100.00
    569 y          9.801689     -0.000090    -9.801778    Cartesian -100.00
    569 z          9.801689     -0.000090    -9.801778    Cartesian -100.00
    570 x         19.603377     -0.001171   -19.604549    Cartesian -100.01
    570 y          3.920675     -0.000128    -3.920803    Cartesian -100.00
    570 z          3.920675     -0.000128    -3.920803    Cartesian -100.00
    571 x        -13.722364      0.000408    13.722772    Cartesian -100.00
    571 y         -1.960338      0.000043     1.960380    Cartesian -100.00
    571 z          5.881013     -0.000192    -5.881205    Cartesian -100.00
    572 x         -7.841351      0.003600     7.844951    Cartesian -100.05
    572 y          7.841351     -0.003137    -7.844488    Cartesian -100.04
    572 z         11.762026     -0.004622   -11.766649    Cartesian -100.04
    573 x          0.000000      0.000437     0.000437    Cartesian    0.00
    573 y          7.841351     -0.002477    -7.843828    Cartesian -100.03
    573 z         15.682702     -0.004565   -15.687267    Cartesian -100.03
    574 x          1.960338     -0.000004    -1.960342    Cartesian -100.00
    574 y         -1.960338      0.000052     1.960390    Cartesian -100.00
    574 z         17.643040     -0.000306   -17.643346    Cartesian -100.00
    575 x         15.682702     -0.002023   -15.684725    Cartesian -100.01
    575 y          3.920675     -0.000383    -3.921059    Cartesian -100.01
    575 z         11.762026     -0.001566   -11.763592    Cartesian -100.01
    576 x         17.643040     -0.000103   -17.643143    Cartesian -100.00
    576 y          9.801689     -0.000046    -9.801735    Cartesian -100.00
    576 z         -1.960338      0.000008     1.960346    Cartesian -100.00
    577 x         -3.920675     -4.012131    -0.091456    Cartesian    2.33
    577 y         11.762026     -0.004102   -11.766129    Cartesian -100.03
    577 z         11.762026     -0.004102   -11.766129    Cartesian -100.03
    578 x          5.881013     -0.000061    -5.881074    Cartesian -100.00
    578 y         -1.960338      0.000030     1.960368    Cartesian -100.00
    578 z         17.643040     -0.000249   -17.643288    Cartesian -100.00
    579 x         11.762026     -0.001985   -11.764011    Cartesian -100.02
    579 y          0.000000      0.000000     0.000000    Cartesian    0.00
    579 z         15.682702     -0.002768   -15.685470    Cartesian -100.02
    580 x          7.841351     -0.001211    -7.842562    Cartesian -100.02
    580 y          7.841351     -0.001730    -7.843081    Cartesian -100.02
    580 z         15.682702     -0.003167   -15.685869    Cartesian -100.02
    581 x          9.801689     -0.000073    -9.801762    Cartesian -100.00
    581 y          9.801689     -0.000105    -9.801793    Cartesian -100.00
    581 z         13.722364     -0.000147   -13.722511    Cartesian -100.00
    582 x        -11.762026      0.004530    11.766557    Cartesian -100.04
    582 y          7.841351     -0.003497    -7.844848    Cartesian -100.04
    582 z          7.841351     -0.003497    -7.844848    Cartesian -100.04
    583 x         -1.960338      0.000057     1.960395    Cartesian -100.00
    583 y         17.643040     -0.000284   -17.643323    Cartesian -100.00
    583 z         -1.960338      0.000033     1.960371    Cartesian -100.00
    584 x         11.762026     -0.001654   -11.763680    Cartesian -100.01
    584 y          3.920675     -0.000692    -3.921368    Cartesian -100.02
    584 z         15.682702     -0.002530   -15.685232    Cartesian -100.02
    585 x         13.722364     -0.000105   -13.722469    Cartesian -100.00
    585 y          5.881013     -0.000041    -5.881054    Cartesian -100.00
    585 z         13.722364     -0.000113   -13.722477    Cartesian -100.00
    586 x         19.603377     19.641665     0.038288    Cartesian    0.20
    586 y          0.000000      0.000000     0.000000    Cartesian    0.00
    586 z          7.841351     -0.000482    -7.841833    Cartesian -100.01
    587 x        -15.682702      0.007825    15.690527    Cartesian -100.05
    587 y          0.000000      0.000000     0.000000    Cartesian    0.00
    587 z          0.000000      0.000000     0.000000    Cartesian    0.00
    588 x        -13.722364      0.000301    13.722665    Cartesian -100.00
    588 y          5.881013     -0.000114    -5.881127    Cartesian -100.00
    588 z          5.881013     -0.000114    -5.881127    Cartesian -100.00
    589 x          1.960338     -0.000003    -1.960341    Cartesian -100.00
    589 y          5.881013     -0.000065    -5.881078    Cartesian -100.00
    589 z         17.643040     -0.000232   -17.643272    Cartesian -100.00
    590 x         17.643040     -0.000089   -17.643129    Cartesian -100.00
    590 y          9.801689     -0.000042    -9.801731    Cartesian -100.00
    590 z          5.881013     -0.000025    -5.881038    Cartesian -100.00
    591 x        -11.762026      0.003786    11.765812    Cartesian -100.03
    591 y          0.000000      0.000000     0.000000    Cartesian    0.00
    591 z         11.762026     -0.003668   -11.765694    Cartesian -100.03
    592 x         -9.801689      0.000177     9.801866    Cartesian -100.00
    592 y         13.722364     -0.000210   -13.722574    Cartesian -100.00
    592 z         -1.960338      0.000017     1.960355    Cartesian -100.00
    593 x         -9.801689      0.000160     9.801849    Cartesian -100.00
    593 y          9.801689     -0.000128    -9.801817    Cartesian -100.00
    593 z          9.801689     -0.000128    -9.801817    Cartesian -100.00
    594 x         -3.920675      0.001773     3.922448    Cartesian -100.05
    594 y          7.841351     -0.002104    -7.843455    Cartesian -100.03
    594 z         15.682702     -0.003431   -15.686133    Cartesian -100.02
    595 x          5.881013     -0.000034    -5.881047    Cartesian -100.00
    595 y          5.881013     -0.000055    -5.881068    Cartesian -100.00
    595 z         17.643040     -0.000184   -17.643224    Cartesian -100.00
    596 x         11.762026     11.829668     0.067642    Cartesian    0.58
    596 y         11.762026     -0.001782   -11.763809    Cartesian -100.02
    596 z         11.762026     -0.001782   -11.763809    Cartesian -100.02
    597 x         19.603377     -0.001075   -19.604452    Cartesian -100.01
    597 y          3.920675     -0.000197    -3.920872    Cartesian -100.01
    597 z          7.841351     -0.000500    -7.841851    Cartesian -100.01
    598 x         21.563715     -0.000039   -21.563754    Cartesian -100.00
    598 y         -1.960338      0.000004     1.960342    Cartesian -100.00
    598 z         -1.960338      0.000004     1.960342    Cartesian -100.00
    599 x        -15.682702      0.005822    15.688524    Cartesian -100.04
    599 y          0.000000      0.000000     0.000000    Cartesian    0.00
    599 z          3.920675     -0.001637    -3.922313    Cartesian -100.04
    600 x         -7.841351      0.002564     7.843915    Cartesian -100.03
    600 y          0.000000      0.000000     0.000000    Cartesian    0.00
    600 z         15.682702     -0.003634   -15.686336    Cartesian -100.02
    601 x         -5.881013      0.000082     5.881095    Cartesian -100.00
    601 y          9.801689     -0.000100    -9.801788    Cartesian -100.00
    601 z         13.722364     -0.000152   -13.722517    Cartesian -100.00
    602 x          9.801689     -0.000057    -9.801746    Cartesian -100.00
    602 y         -1.960338      0.000012     1.960350    Cartesian -100.00
    602 z         17.643040     -0.000146   -17.643185    Cartesian -100.00
    603 x         15.682702     -0.001388   -15.684090    Cartesian -100.01
    603 y          7.841351     -0.000831    -7.842182    Cartesian -100.01
    603 z         11.762026     -0.001233   -11.763259    Cartesian -100.01
    604 x        -11.762026      0.003254    11.765280    Cartesian -100.03
    604 y          3.920675     -0.000922    -3.921598    Cartesian -100.02
    604 z         11.762026     -0.003122   -11.765149    Cartesian -100.03
    605 x         -1.960338      0.000035     1.960373    Cartesian -100.00
    605 y         17.643040     17.652019     0.008980    Cartesian    0.05
    605 z          5.881013     -0.000057    -5.881070    Cartesian -100.00
    606 x        -15.682702      0.004683    15.687385    Cartesian -100.03
    606 y          3.920675     -0.001437    -3.922112    Cartesian -100.04
    606 z          3.920675     -0.001437    -3.922112    Cartesian -100.04
    607 x        -13.722364      0.000197    13.722561    Cartesian -100.00
    607 y          9.801689     -0.000133    -9.801822    Cartesian -100.00
    607 z         -1.960338      0.000015     1.960353    Cartesian -100.00
    608 x         -7.841351      0.001762     7.843113    Cartesian -100.02
    608 y          3.920675     -0.000794    -3.921469    Cartesian -100.02
    608 z         15.682702     -0.003019   -15.685721    Cartesian -100.02
    609 x          1.960338     -0.000002    -1.960339    Cartesian -100.00
    609 y         13.722364     -0.000119   -13.722484    Cartesian -100.00
    609 z         13.722364     -0.000119   -13.722484    Cartesian -100.00
    610 x         -9.801689      0.000100     9.801789    Cartesian -100.00
    610 y         13.722364     -0.000127   -13.722491    Cartesian -100.00
    610 z          5.881013     -0.000066    -5.881079    Cartesian -100.00
    611 x          3.920675     -0.000308    -3.920984    Cartesian -100.01
    611 y         11.762026     -0.001287   -11.763313    Cartesian -100.01
    611 z         15.682702     -0.001971   -15.684673    Cartesian -100.01
    612 x          3.920675     -0.000316    -3.920991    Cartesian -100.01
    612 y          0.000000      0.000000     0.000000    Cartesian    0.00
    612 z         19.603377     -0.002543   -19.605920    Cartesian -100.01
    613 x          5.881013     -0.000031    -5.881044    Cartesian -100.00
    613 y         13.722364     -0.000079   -13.722443    Cartesian -100.00
    613 z         13.722364     -0.000079   -13.722443    Cartesian -100.00
    614 x         11.762026     -0.000806   -11.762832    Cartesian -100.01
    614 y          7.841351     -0.000745    -7.842096    Cartesian -100.01
    614 z         15.682702     15.747348     0.064646    Cartesian    0.41
    615 x         21.563715     -0.000037   -21.563752    Cartesian -100.00
    615 y         -1.960338      0.000003     1.960341    Cartesian -100.00
    615 z          5.881013     -0.000011    -5.881024    Cartesian -100.00
    616 x         -7.841351      0.001040     7.842391    Cartesian -100.01
    616 y         11.762026     -0.001530   -11.763556    Cartesian -100.01
    616 z         11.762026     -0.001530   -11.763556    Cartesian -100.01
    617 x         -5.881013      0.000057     5.881071    Cartesian -100.00
    617 y         17.643040     -0.000140   -17.643180    Cartesian -100.00
    617 z         -1.960338      0.000017     1.960355    Cartesian -100.00
    618 x          0.000000      0.000277     0.000277    Cartesian    0.00
    618 y         11.762026     -0.001334   -11.763361    Cartesian -100.01
    618 z         15.682702     -0.002059   -15.684761    Cartesian -100.01
    619 x          0.000000      0.000385     0.000385    Cartesian    0.00
    619 y          0.000000      0.000000     0.000000    Cartesian    0.00
    619 z         19.603377     -0.002413   -19.605791    Cartesian -100.01
    620 x          9.801689     -0.000037    -9.801726    Cartesian -100.00
    620 y          5.881013     -0.000032    -5.881045    Cartesian -100.00
    620 z         17.643040     -0.000089   -17.643129    Cartesian -100.00
--------------------------------------------------------------------------------


  Time to end of optimisation  =      716.4897 seconds


  Peak dynamic memory used =    1718.30 MB 


  Timing analysis for GULP :

--------------------------------------------------------------------------------
  Task / Subroutine                                          Time (Seconds)
--------------------------------------------------------------------------------
  Calculation of reciprocal space energy and derivatives          0.0002
  Calculation of reciprocal space energy using symmetry           0.0003
  Calculation of real space energy and derivatives                0.0016
  Calculation of real space energy using symmetry                 0.0034
  Calculation for region 1 energy and derivatives (2-b)         372.6384
  Calculation for region 2a energy                              100.0517
  Calculation for region 2b energy                                0.0222
  Calculation and manipulation of Hessian matrix                223.9581
  Calculation of matrix inversion                                18.3056
  Symmetry generation of equivalent positions                     0.0017
--------------------------------------------------------------------------------
  Total CPU time                                                716.4897
--------------------------------------------------------------------------------


  Dump file written as Li3OCl.grs


  Job Finished at 18:09.57 20th October    2020                               

