********************************************************************************
*                       GENERAL UTILITY LATTICE PROGRAM                        *
*                                 Julian Gale                                  *
*                       Curtin Institute for Computation                       *
*                    School of Molecular and Life Sciences                     *
*                    Curtin University, Western Australia                      *
********************************************************************************
* Version = 5.2.0 * Last modified =  10th September 2020                       *
********************************************************************************
*  optimise     - perform optimisation run                                     *
*  conp         - constant pressure calculation                                *
*  property     - calculate properties for final geometry                      *
*  defect       - perform defect calculation after bulk run                    *
*  compare      - compare initial and final structures                         *
********************************************************************************

  Job Started  at 18:09.57 20th October    2020                               

  Number of CPUs =     1


  Total number of configurations input =      1

********************************************************************************
*  Input for Configuration =   1                                               *
********************************************************************************

  Formula = ClOLi3                                                      

  Number of irreducible atoms/shells =       5


  Total number atoms/shells =       7

  Dimensionality = 3               :  Bulk   


  Symmetry :

  Crystal family                   :  Cubic       
  Crystal class  (Groth - 1921)    :  Cubic Hexakisoctahedral              

  Space group (centrosymmetric)    :  P M 3 M         

  Patterson group                  :  P m -3 m 

  Cartesian lattice vectors (Angstroms) :

        3.918873    0.000000    0.000000
        0.000000    3.918873    0.000000
        0.000000    0.000000    3.918873

  Cell parameters (Angstroms/Degrees):

  a =       3.9189    alpha =  90.0000
  b =       3.9189    beta  =  90.0000
  c =       3.9189    gamma =  90.0000

  Initial cell volume =          60.184349 Angs**3

  Temperature of configuration =   0.00     K 

  Pressure of configuration =         0.000 GPa 

  Fractional coordinates of asymmetric unit :

--------------------------------------------------------------------------------
   No.  Atomic       x           y          z         Charge      Occupancy
        Label      (Frac)      (Frac)     (Frac)        (e)         (Frac)  
--------------------------------------------------------------------------------
      1 Cl    c    0.000000    0.000000    0.000000     1.48500    1.000000    
      2 O     c    0.500000    0.500000    0.500000     0.18300    1.000000    
      3 Li    c    0.500000    0.500000    0.000000     1.00000    1.000000    
      4 Cl    s    0.000000    0.000000    0.000000    -2.48500    1.000000    
      5 O     s    0.500000    0.500000    0.500000    -2.18300    1.000000    
--------------------------------------------------------------------------------


  Constraints : 

--------------------------------------------------------------------------------
  Constraint no.      Unconstrained     Constrained    Coefficient    Offset
                         Variable         Variable
--------------------------------------------------------------------------------
           1              Strain 1        Strain 2       1.00000      0.0000
           2              Strain 1        Strain 3       1.00000      0.0000
--------------------------------------------------------------------------------


********************************************************************************
*  General input information                                                   *
********************************************************************************

  Species output for all configurations : 

--------------------------------------------------------------------------------
  Species    Type    Atomic    Atomic    Charge       Radii (Angs)     Library
                     Number     Mass       (e)     Cova   Ionic  VDW   Symbol
--------------------------------------------------------------------------------
    Li       Core        3       6.94   1.000000   0.680  0.000  1.800          
    O        Core        8      16.00   0.183000   0.730  0.000  1.360          
    O        Shell       8       0.00  -2.183000   0.730  0.000  1.360          
    Cl       Core       17      35.45   1.485000   0.990  0.000  1.650          
    Cl       Shell      17       0.00  -2.485000   0.990  0.000  1.650          
--------------------------------------------------------------------------------


  Lattice summation method               =    Ewald          (3-D)
                                         =    Parry          (2-D)
                                         =    Saunders et al (1-D)
  Accuracy factor for lattice sums       =   12.000


  Analytic derivatives to be used

  Time limit = Infinity

  Maximum range for interatomic potentials =    100000.000000 Angstroms

  General interatomic potentials :

--------------------------------------------------------------------------------
Atom  Types   Potential      Parameter       Value         Units   Cutoffs(Ang)
  1     2                                                            Min /  Max 
--------------------------------------------------------------------------------
O    c O    s Spring (c-s)  Spring k 2       593.72000    eV*Ang^-2 0.000  0.800
                            Spring k 4       0.0000000    eV*Ang^-4 
--------------------------------------------------------------------------------
Cl   c Cl   s Spring (c-s)  Spring k 2       29.380000    eV*Ang^-2 0.000  0.800
                            Spring k 4       0.0000000    eV*Ang^-4 
--------------------------------------------------------------------------------
Li   c Li   c Buckingham    Buckingham A     360.53000    eV        0.000 12.000
                            Buckingham rho  0.16100000    Ang       
                            Buckingham C     0.0000000    eV*Ang^6  
--------------------------------------------------------------------------------
Li   c O    s Buckingham    Buckingham A     292.30000    eV        0.000 12.000
                            Buckingham rho  0.34720000    Ang       
                            Buckingham C     0.0000000    eV*Ang^6  
--------------------------------------------------------------------------------
Li   c Cl   s Buckingham    Buckingham A     421.04000    eV        0.000 12.000
                            Buckingham rho  0.33400000    Ang       
                            Buckingham C     0.0000000    eV*Ang^6  
--------------------------------------------------------------------------------
O    s O    s Buckingham    Buckingham A     22764.300    eV        0.000 12.000
                            Buckingham rho  0.14900000    Ang       
                            Buckingham C     13.190000    eV*Ang^6  
--------------------------------------------------------------------------------
O    s Cl   s Buckingham    Buckingham A     8286.9100    eV        0.000 12.000
                            Buckingham rho  0.25900000    Ang       
                            Buckingham C     62.200000    eV*Ang^6  
--------------------------------------------------------------------------------
Cl   s Cl   s Buckingham    Buckingham A     1227.2000    eV        0.000 12.000
                            Buckingham rho  0.32100000    Ang       
                            Buckingham C     14.530000    eV*Ang^6  
--------------------------------------------------------------------------------

********************************************************************************
*  Output for configuration   1                                                *
********************************************************************************


  Components of energy : 

--------------------------------------------------------------------------------
  Interatomic potentials     =           7.26836263 eV    
  Monopole - monopole (real) =         -11.53475722 eV    
  Monopole - monopole (recip)=         -33.94580548 eV    
  Monopole - monopole (total)=         -45.48056271 eV    
--------------------------------------------------------------------------------
  Total lattice energy       =         -38.21220008 eV    
--------------------------------------------------------------------------------
  Total lattice energy       =           -3686.8932 kJ/(mole unit cells)
--------------------------------------------------------------------------------


  Number of variables =        1

  Maximum number of calculations  =          1000
  Maximum Hessian update interval =            10
  Maximum step size               =   1.000000000
  Maximum parameter tolerance     =   0.000010000
  Maximum function  tolerance     =   0.000010000
  Maximum gradient  tolerance     =   0.001000000
  Maximum gradient  component     =   0.010000000

  Symmetry constrained optimisation

  Symmetry used for second derivatives

  Cell parameters to be optimised using strains

  Newton-Raphson optimiser to be used

  BFGS hessian update to be used

  Lower half triangular hessian to be used

  Start of bulk optimisation :

  Cycle:      0 Energy:       -38.212200  Gnorm:      0.095699  CPU:    0.006
  ** Hessian calculated **
  Cycle:      1 Energy:       -38.212222  Gnorm:      0.000105  CPU:    0.007


  **** Optimisation achieved ****


  Final energy =     -38.21222207 eV
  Final Gnorm  =       0.00000016

  Components of energy : 

--------------------------------------------------------------------------------
  Interatomic potentials     =           7.24743141 eV    
  Monopole - monopole (real) =         -11.52945423 eV    
  Monopole - monopole (recip)=         -33.93019924 eV    
  Monopole - monopole (total)=         -45.45965348 eV    
--------------------------------------------------------------------------------
  Total lattice energy       =         -38.21222207 eV    
--------------------------------------------------------------------------------
  Total lattice energy       =           -3686.8953 kJ/(mole unit cells)
--------------------------------------------------------------------------------

  Final asymmetric unit coordinates :

--------------------------------------------------------------------------------
   No.  Atomic        x           y           z         Radius
        Label       (Frac)      (Frac)      (Frac)       (Angs) 
--------------------------------------------------------------------------------
     1  Cl    c     0.000000    0.000000    0.000000    0.000000
     2  O     c     0.500000    0.500000    0.500000    0.000000
     3  Li    c     0.500000    0.500000    0.000000    0.000000
     4  Cl    s     0.000000    0.000000    0.000000    0.000000
     5  O     s     0.500000    0.500000    0.500000    0.000000
--------------------------------------------------------------------------------

  Final Cartesian lattice vectors (Angstroms) :

        3.920675    0.000000    0.000000
        0.000000    3.920675    0.000000
        0.000000    0.000000    3.920675


  Final cell parameters and derivatives :

--------------------------------------------------------------------------------
       a            3.920675 Angstrom     dE/de1(xx)    -0.000000 eV/strain
       b            3.920675 Angstrom     dE/de2(yy)     0.000000 eV/strain
       c            3.920675 Angstrom     dE/de3(zz)     0.000000 eV/strain
       alpha       90.000000 Degrees      dE/de4(yz)     0.000000 eV/strain
       beta        90.000000 Degrees      dE/de5(xz)     0.000000 eV/strain
       gamma       90.000000 Degrees      dE/de6(xy)     0.000000 eV/strain
--------------------------------------------------------------------------------

  Primitive cell volume =            60.267433 Angs**3

  Density of cell =      1.991276 g/cm**3

  Non-primitive cell volume =            60.267433 Angs**3


  Final internal derivatives :

--------------------------------------------------------------------------------
   No.  Atomic          a             b             c           Radius
        Label          (eV)          (eV)          (eV)        (eV/Angs)
--------------------------------------------------------------------------------
      1 Cl    c       0.000000      0.000000      0.000000      0.000000
      2 O     c       0.000000      0.000000      0.000000      0.000000
      3 Li    c       0.000000      0.000000      0.000000      0.000000
      4 Cl    s       0.000000      0.000000      0.000000      0.000000
      5 O     s       0.000000      0.000000      0.000000      0.000000
--------------------------------------------------------------------------------
  Maximum abs         0.000000      0.000000      0.000000      0.000000
--------------------------------------------------------------------------------

  Comparison of initial and final structures : 

--------------------------------------------------------------------------------
  Parameter   Initial value   Final value   Difference    Units      Percent
--------------------------------------------------------------------------------
    Volume        60.184349     60.267433     0.083084    Angs**3      0.14
    a              3.918873      3.920675     0.001802    Angstroms    0.05
    b              3.918873      3.920675     0.001802    Angstroms    0.05
    c              3.918873      3.920675     0.001802    Angstroms    0.05
    alpha         90.000000     90.000000     0.000000    Degrees      0.00
    beta          90.000000     90.000000     0.000000    Degrees      0.00
    gamma         90.000000     90.000000     0.000000    Degrees      0.00
      1 x          0.000000      0.000000     0.000000    Fractional   0.00
      1 y          0.000000      0.000000     0.000000    Fractional   0.00
      1 z          0.000000      0.000000     0.000000    Fractional   0.00
      2 x          0.500000      0.500000     0.000000    Fractional   0.00
      2 y          0.500000      0.500000     0.000000    Fractional   0.00
      2 z          0.500000      0.500000     0.000000    Fractional   0.00
      3 x          0.500000      0.500000     0.000000    Fractional   0.00
      3 y          0.500000      0.500000     0.000000    Fractional   0.00
      3 z          0.000000      0.000000     0.000000    Fractional   0.00
      4 x          0.000000      0.000000     0.000000    Fractional   0.00
      4 y          0.000000      0.000000     0.000000    Fractional   0.00
      4 z          0.000000      0.000000     0.000000    Fractional   0.00
      5 x          0.500000      0.500000     0.000000    Fractional   0.00
      5 y          0.500000      0.500000     0.000000    Fractional   0.00
      5 z          0.500000      0.500000     0.000000    Fractional   0.00
--------------------------------------------------------------------------------


  Born effective charge tensors : 

-------------------------------------------------------------------------------
  Atom             x           y             z
-------------------------------------------------------------------------------
    1 Cl    x      -0.9489     -0.0000     -0.0000
            y      -0.0000     -0.9489     -0.0000
            z      -0.0000     -0.0000     -0.9489
-------------------------------------------------------------------------------
    2 O     x      -2.4688      0.0000      0.0000
            y       0.0000     -2.4688      0.0000
            z       0.0000      0.0000     -2.4688
-------------------------------------------------------------------------------
    3 Li    x       1.3129      0.0000     -0.0000
            y       0.0000      1.3129      0.0000
            z      -0.0000      0.0000      0.7919
-------------------------------------------------------------------------------




  Elastic Constant Matrix: (Units=GPa)

-------------------------------------------------------------------------------
  Indices      1         2         3         4         5         6    
-------------------------------------------------------------------------------
       1     94.3368   44.9178   44.9178    0.0000   -0.0000    0.0000
       2     44.9178   94.3368   44.9178   -0.0000    0.0000   -0.0000
       3     44.9178   44.9178   94.3368    0.0000   -0.0000    0.0000
       4      0.0000   -0.0000    0.0000   44.9178   -0.0000    0.0000
       5     -0.0000    0.0000   -0.0000   -0.0000   44.9178    0.0000
       6      0.0000   -0.0000    0.0000    0.0000    0.0000   44.9178
-------------------------------------------------------------------------------


  Elastic Compliance Matrix: (Units=1/GPa)

-------------------------------------------------------------------------------
  Indices      1         2         3         4         5         6    
-------------------------------------------------------------------------------
       1    0.015300 -0.004935 -0.004935 -0.000000  0.000000 -0.000000
       2   -0.004935  0.015300 -0.004935  0.000000 -0.000000  0.000000
       3   -0.004935 -0.004935  0.015300 -0.000000  0.000000 -0.000000
       4   -0.000000  0.000000 -0.000000  0.022263  0.000000 -0.000000
       5    0.000000 -0.000000  0.000000  0.000000  0.022263 -0.000000
       6   -0.000000  0.000000 -0.000000 -0.000000 -0.000000  0.022263
-------------------------------------------------------------------------------

  Mechanical properties :

-------------------------------------------------------------------------------
  Convention :                    Reuss         Voigt         Hill
-------------------------------------------------------------------------------
  Bulk  Modulus (GPa)     =      61.39080      61.39080      61.39080
  Shear Modulus (GPa)     =      33.84570      36.83448      35.34009
-------------------------------------------------------------------------------
  Velocity S-wave (km/s)  =       4.12274       4.30092       4.21277
  Velocity P-wave (km/s)  =       7.31386       7.44942       7.38195
-------------------------------------------------------------------------------
  Compressibility (1/GPa) =    0.01628909
-------------------------------------------------------------------------------
  Stress axis :                     x             y             z
-------------------------------------------------------------------------------
  Youngs Moduli (GPa)     =      65.35947      65.35947      65.35947
-------------------------------------------------------------------------------
  Poissons Ratio (x)      =                     0.32256       0.32256
  Poissons Ratio (y)      =       0.32256                     0.32256
  Poissons Ratio (z)      =       0.32256       0.32256
-------------------------------------------------------------------------------


  Piezoelectric Strain Matrix: (Units=C/m**2)

-------------------------------------------------------------------------------
  Indices      1         2         3         4         5         6    
-------------------------------------------------------------------------------
       x    -0.00000   0.00000   0.00000  -0.00000  -0.00000   0.00000
       y    -0.00000   0.00000   0.00000  -0.00000  -0.00000  -0.00000
       z     0.00000   0.00000   0.00000   0.00000  -0.00000  -0.00000
-------------------------------------------------------------------------------


  Piezoelectric Stress Matrix: (Units=10**-11 C/N)

-------------------------------------------------------------------------------
  Indices      1         2         3         4         5         6    
-------------------------------------------------------------------------------
       x    -0.00000   0.00000   0.00000  -0.00000  -0.00000   0.00000
       y    -0.00000   0.00000   0.00000  -0.00000  -0.00000  -0.00000
       z    -0.00000  -0.00000   0.00000   0.00000  -0.00000  -0.00000
-------------------------------------------------------------------------------


  Static dielectric constant tensor : 

-------------------------------------------------------------------------------
              x         y         z
-------------------------------------------------------------------------------
       x    12.11703   0.00000  -0.00000
       y     0.00000  12.11703  -0.00000
       z    -0.00000  -0.00000  12.11703
--------------------------------------------------------------------------------

  High frequency dielectric constant tensor : 

-------------------------------------------------------------------------------
              x         y         z
-------------------------------------------------------------------------------
       x     1.74104   0.00000   0.00000
       y     0.00000   1.74104   0.00000
       z     0.00000   0.00000   1.74104
-------------------------------------------------------------------------------

  Static refractive indices : 

-------------------------------------------------------------------------------
    1 =    3.48095      2 =    3.48095      3 =    3.48095
-------------------------------------------------------------------------------

  High frequency refractive indices : 

-------------------------------------------------------------------------------
    1 =    1.31948      2 =    1.31948      3 =    1.31948
-------------------------------------------------------------------------------


  Time to end of optimisation =       0.0123 seconds

********************************************************************************
*  Defect calculation for configuration   1 :                                  *
********************************************************************************

  Total number of defects =      3

  Total charge on defect  =   1.00

  Defect centre is at   3.1351   0.0000   0.0000  Angs

  Region 1 radius =  20.0000      Number of ions =   3886

  Number of symmetry inequivalent region 1 ions  =    625

  Region 2 radius =  24.0000      Number of ions =   2880

  Number of symmetry inequivalent region 2a ions =    420

  Region 2a mode = 4 : screened electrostatics due to region 1 
                       neglect correction to region 1 forces from 2a
                       region 2a displacements based on defects only

  Region 2a ions will only interact with defects in region 1

  Vacancies:

--------------------------------------------------------------------------------
    Specification type     Symbol/Number         x          y          z
--------------------------------------------------------------------------------
    Cartesian                                0.000000   0.000000   0.000000
    Cartesian                                3.918873   0.000000   0.000000
--------------------------------------------------------------------------------

  Interstitials:

--------------------------------------------------------------------------------
    Specification type     Symbol/Number         x          y          z
--------------------------------------------------------------------------------
    Atom/Fractional         Cl               3.135098   0.000000   0.000000
--------------------------------------------------------------------------------


  Symmetry reduced region 1 (Relative to defect centre) :

--------------------------------------------------------------------------------
   No.   Atomic       x            y             z       Radius  Multiplicity   
         Label      (Angs)       (Angs)        (Angs)    (Angs)     
--------------------------------------------------------------------------------
     1  Li    c     -1.1748 *    -1.9603 *     0.0000    0.0000     4          
     2  Li    c      0.7856 *     1.9603 *     1.9603    0.0000     4          
     3  O     c     -1.1748 *    -1.9603 *    -1.9603    0.0000     4          
     4  Li    c      2.7459 *    -1.9603 *     0.0000    0.0000     4          
     5  O     c      2.7459 *    -1.9603 *    -1.9603    0.0000     4          
     6  Cl    c      0.7856 *     0.0000       3.9207 *  0.0000     4          
     7  Li    c     -3.1351 *     1.9603 *     1.9603    0.0000     4          
     8  Li    c     -1.1748 *    -1.9603 *     3.9207 *  0.0000     8          
     9  Cl    c      4.7063 *     0.0000       0.0000    0.0000     1          
    10  Cl    c     -3.1351 *     0.0000       3.9207 *  0.0000     4          
    11  Li    c      2.7459 *    -1.9603 *     3.9207 *  0.0000     8          
    12  Cl    c      5.2359       0.0000       0.0000    0.0000     1    Defect
    13  Li    c     -5.0954 *    -1.9603 *     0.0000    0.0000     4          
    14  Li    c      4.7063 *     1.9603 *     1.9603    0.0000     4          
    15  Cl    c      0.7856 *     3.9207 *     3.9207    0.0000     4          
    16  O     c     -5.0954 *    -1.9603 *    -1.9603    0.0000     4          
    17  Li    c     -1.1748 *     5.8810 *     0.0000    0.0000     4          
    18  Cl    c      4.7063 *     0.0000       3.9207 *  0.0000     4          
    19  Li    c      0.7856 *     1.9603 *     5.8810 *  0.0000     8          
    20  O     c     -1.1748 *     5.8810 *    -1.9603 *  0.0000     8          
    21  Cl    c     -3.1351 *     3.9207 *     3.9207    0.0000     4          
    22  Li    c      2.7459 *     5.8810 *     0.0000    0.0000     4          
    23  Li    c     -5.0954 *    -1.9603 *     3.9207 *  0.0000     8          
    24  O     c      2.7459 *    -1.9603 *     5.8810 *  0.0000     8          
    25  Li    c     -3.1351 *     5.8810 *     1.9603 *  0.0000     8          
    26  Li    c      6.6666 *    -1.9603 *     0.0000    0.0000     4          
    27  Cl    c     -7.0558 *     0.0000       0.0000    0.0000     1          
    28  Li    c     -1.1748 *     5.8810 *     3.9207 *  0.0000     8          
    29  O     c      6.6666 *    -1.9603 *    -1.9603    0.0000     4          
    30  Cl    c      4.7063 *     3.9207 *     3.9207    0.0000     4          
    31  Li    c     -7.0558 *     1.9603 *     1.9603    0.0000     4          
    32  Li    c      2.7459 *     5.8810 *     3.9207 *  0.0000     8          
    33  Li    c     -5.0954 *     5.8810 *     0.0000    0.0000     4          
    34  Li    c      4.7063 *     5.8810 *     1.9603 *  0.0000     8          
    35  Cl    c      0.7856 *     0.0000       7.8414 *  0.0000     4          
    36  Li    c      6.6666 *    -1.9603 *     3.9207 *  0.0000     8          
    37  O     c     -5.0954 *    -1.9603 *     5.8810 *  0.0000     8          
    38  Cl    c     -7.0558 *     0.0000       3.9207 *  0.0000     4          
    39  Li    c     -1.1748 *    -1.9603 *     7.8414 *  0.0000     8          
    40  Li    c      0.7856 *     5.8810 *     5.8810    0.0000     4          
    41  O     c     -1.1748 *     5.8810 *     5.8810    0.0000     4          
    42  Cl    c     -3.1351 *     0.0000       7.8414 *  0.0000     4          
    43  Li    c      2.7459 *    -1.9603 *     7.8414 *  0.0000     8          
    44  Cl    c      8.6269 *     0.0000       0.0000    0.0000     1          
    45  Li    c     -5.0954 *     3.9207 *     5.8810 *  0.0000     8          
    46  O     c      2.7459 *     5.8810 *     5.8810    0.0000     4          
    47  Cl    c      0.7856 *     3.9207 *     7.8414 *  0.0000     8          
    48  Li    c     -3.1351 *     5.8810 *     5.8810    0.0000     4          
    49  Li    c      6.6666 *     5.8810 *     0.0000    0.0000     4          
    50  Cl    c     -7.0558 *     3.9207 *     3.9207    0.0000     4          
    51  Li    c      8.6269 *     1.9603 *     1.9603    0.0000     4          
    52  O     c      6.6666 *    -1.9603 *     5.8810 *  0.0000     8          
    53  Cl    c      4.7063 *     0.0000       7.8414 *  0.0000     4          
    54  Li    c     -9.0161 *    -1.9603 *     0.0000    0.0000     4          
    55  Cl    c     -3.1351 *     3.9207 *     7.8414 *  0.0000     8          
    56  Li    c     -7.0558 *     1.9603 *     5.8810 *  0.0000     8          
    57  O     c     -9.0161 *    -1.9603 *    -1.9603    0.0000     4          
    58  Cl    c      8.6269 *     0.0000       3.9207 *  0.0000     4          
    59  Li    c     -5.0954 *    -1.9603 *     7.8414 *  0.0000     8          
    60  Li    c      4.7063 *     5.8810 *     5.8810    0.0000     4          
    61  Li    c      6.6666 *     3.9207 *     5.8810 *  0.0000     8          
    62  O     c     -5.0954 *     5.8810 *     5.8810    0.0000     4          
    63  Li    c     -1.1748 *     5.8810 *     7.8414 *  0.0000     8          
    64  Li    c     -1.1748 *     9.8017 *     0.0000    0.0000     4          
    65  Cl    c      4.7063 *     3.9207 *     7.8414 *  0.0000     8          
    66  Li    c     -9.0161 *    -1.9603 *     3.9207 *  0.0000     8          
    67  Li    c      0.7856 *     1.9603 *     9.8017 *  0.0000     8          
    68  O     c     -1.1748 *    -1.9603 *     9.8017 *  0.0000     8          
    69  Li    c      2.7459 *     5.8810 *     7.8414 *  0.0000     8          
    70  Li    c      2.7459 *     9.8017 *     0.0000    0.0000     4          
    71  Cl    c      8.6269 *     3.9207 *     3.9207    0.0000     4          
    72  O     c      2.7459 *    -1.9603 *     9.8017 *  0.0000     8          
    73  Li    c     -3.1351 *     1.9603 *     9.8017 *  0.0000     8          
    74  Li    c      6.6666 *    -1.9603 *     7.8414 *  0.0000     8          
    75  Cl    c     -7.0558 *     0.0000       7.8414 *  0.0000     4          
    76  Li    c     -1.1748 *     9.8017 *     3.9207 *  0.0000     8          
    77  Li    c      8.6269 *     1.9603 *     5.8810 *  0.0000     8          
    78  O     c      6.6666 *     5.8810 *     5.8810    0.0000     4          
    79  Li    c     -9.0161 *     5.8810 *     0.0000    0.0000     4          
    80  Li    c     10.5873 *    -1.9603 *     0.0000    0.0000     4          
    81  Li    c     -7.0558 *     5.8810 *     5.8810    0.0000     4          
    82  Li    c      2.7459 *     3.9207 *     9.8017 *  0.0000     8          
    83  O     c     -9.0161 *    -1.9603 *     5.8810 *  0.0000     8          
    84  O     c     10.5873 *    -1.9603 *    -1.9603    0.0000     4          
    85  Cl    c    -10.9764 *     0.0000       0.0000    0.0000     1          
    86  Li    c     -5.0954 *     5.8810 *     7.8414 *  0.0000     8          
    87  Li    c     -5.0954 *     9.8017 *     0.0000    0.0000     4          
    88  Li    c      4.7063 *     1.9603 *     9.8017 *  0.0000     8          
    89  Cl    c      0.7856 *     7.8414 *     7.8414    0.0000     4          
    90  O     c     -5.0954 *    -1.9603 *     9.8017 *  0.0000     8          
    91  Cl    c     -7.0558 *     3.9207 *     7.8414 *  0.0000     8          
    92  Li    c    -10.9764 *     1.9603 *     1.9603    0.0000     4          
    93  Li    c     -9.0161 *     5.8810 *     3.9207 *  0.0000     8          
    94  Li    c      0.7856 *     5.8810 *     9.8017 *  0.0000     8          
    95  Li    c     10.5873 *    -1.9603 *     3.9207 *  0.0000     8          
    96  O     c     -1.1748 *     5.8810 *     9.8017 *  0.0000     8          
    97  Cl    c     -3.1351 *     7.8414 *     7.8414    0.0000     4          
    98  Cl    c    -10.9764 *     0.0000       3.9207 *  0.0000     4          
    99  Cl    c      8.6269 *     0.0000       7.8414 *  0.0000     4          
   100  Li    c     -5.0954 *     9.8017 *     3.9207 *  0.0000     8          
   101  O     c      2.7459 *     5.8810 *     9.8017 *  0.0000     8          
   102  Cl    c      0.7856 *     0.0000      11.7620 *  0.0000     4          
   103  Li    c     -3.1351 *     5.8810 *     9.8017 *  0.0000     8          
   104  Li    c      6.6666 *     5.8810 *     7.8414 *  0.0000     8          
   105  Li    c      6.6666 *     9.8017 *     0.0000    0.0000     4          
   106  Li    c     -1.1748 *    -1.9603 *    11.7620 *  0.0000     8          
   107  Li    c      8.6269 *     5.8810 *     5.8810    0.0000     4          
   108  O     c      6.6666 *    -1.9603 *     9.8017 *  0.0000     8          
   109  Cl    c      4.7063 *     7.8414 *     7.8414    0.0000     4          
   110  Li    c     -9.0161 *     7.8414 *    -1.9603 *  0.0000     8          
   111  Li    c     10.5873 *     5.8810 *     0.0000    0.0000     4          
   112  Cl    c     -3.1351 *     0.0000      11.7620 *  0.0000     4          
   113  Li    c     -7.0558 *     9.8017 *     1.9603 *  0.0000     8          
   114  Li    c      2.7459 *    -1.9603 *    11.7620 *  0.0000     8          
   115  O     c     -9.0161 *     5.8810 *     5.8810    0.0000     4          
   116  O     c     10.5873 *    -1.9603 *     5.8810 *  0.0000     8          
   117  Cl    c    -10.9764 *     3.9207 *     3.9207    0.0000     4          
   118  Cl    c      8.6269 *     3.9207 *     7.8414 *  0.0000     8          
   119  Li    c      4.7063 *     5.8810 *     9.8017 *  0.0000     8          
   120  Cl    c      0.7856 *    11.7620 *     3.9207 *  0.0000     8          
   121  Li    c      6.6666 *     9.8017 *     3.9207 *  0.0000     8          
   122  O     c     -5.0954 *     5.8810 *     9.8017 *  0.0000     8          
   123  Cl    c     12.5476 *     0.0000       0.0000    0.0000     1          
   124  Li    c    -10.9764 *     1.9603 *     5.8810 *  0.0000     8          
   125  Li    c     -1.1748 *     9.8017 *     7.8414 *  0.0000     8          
   126  Cl    c      4.7063 *     0.0000      11.7620 *  0.0000     4          
   127  Li    c     10.5873 *     5.8810 *     3.9207 *  0.0000     8          
   128  Cl    c     -3.1351 *     3.9207 *    11.7620 *  0.0000     8          
   129  Li    c      2.7459 *     9.8017 *     7.8414 *  0.0000     8          
   130  Li    c     12.5476 *     1.9603 *     1.9603    0.0000     4          
   131  Li    c     -5.0954 *    -1.9603 *    11.7620 *  0.0000     8          
   132  Li    c    -12.9368 *    -1.9603 *     0.0000    0.0000     4          
   133  Cl    c     -7.0558 *     7.8414 *     7.8414    0.0000     4          
   134  Cl    c     12.5476 *     0.0000       3.9207 *  0.0000     4          
   135  Li    c     -1.1748 *     5.8810 *    11.7620 *  0.0000     8          
   136  Li    c      8.6269 *     9.8017 *     1.9603 *  0.0000     8          
   137  O     c    -12.9368 *    -1.9603 *    -1.9603    0.0000     4          
   138  O     c      6.6666 *     5.8810 *     9.8017 *  0.0000     8          
   139  Cl    c      4.7063 *     3.9207 *    11.7620 *  0.0000     8          
   140  Li    c     -9.0161 *     5.8810 *     7.8414 *  0.0000     8          
   141  Li    c     -9.0161 *     9.8017 *     0.0000    0.0000     4          
   142  Li    c     10.5873 *     7.8414 *    -1.9603 *  0.0000     8          
   143  Li    c     -7.0558 *     9.8017 *     5.8810 *  0.0000     8          
   144  Li    c      2.7459 *     5.8810 *    11.7620 *  0.0000     8          
   145  O     c     -9.0161 *     9.8017 *    -1.9603 *  0.0000     8          
   146  O     c     10.5873 *     5.8810 *     5.8810    0.0000     4          
   147  Cl    c    -10.9764 *     0.0000       7.8414 *  0.0000     4          
   148  Li    c     -5.0954 *     9.8017 *     7.8414 *  0.0000     8          
   149  Li    c    -12.9368 *    -1.9603 *     3.9207 *  0.0000     8          
   150  Li    c      6.6666 *    -1.9603 *    11.7620 *  0.0000     8          
   151  Cl    c     -7.0558 *     0.0000      11.7620 *  0.0000     4          
   152  Cl    c     12.5476 *     3.9207 *     3.9207    0.0000     4          
   153  Li    c    -10.9764 *     5.8810 *     5.8810    0.0000     4          
   154  Li    c     -1.1748 *    13.7224 *     0.0000    0.0000     4          
   155  Li    c     -9.0161 *     9.8017 *     3.9207 *  0.0000     8          
   156  Li    c      0.7856 *    13.7224 *     1.9603 *  0.0000     8          
   157  Li    c      0.7856 *     9.8017 *     9.8017    0.0000     4          
   158  O     c     -1.1748 *    -1.9603 *    13.7224 *  0.0000     8          
   159  O     c     -1.1748 *     9.8017 *     9.8017    0.0000     4          
   160  Li    c      2.7459 *    13.7224 *     0.0000    0.0000     4          
   161  Li    c     12.5476 *     1.9603 *     5.8810 *  0.0000     8          
   162  Cl    c    -10.9764 *     3.9207 *     7.8414 *  0.0000     8          
   163  Cl    c      8.6269 *     7.8414 *     7.8414    0.0000     4          
   164  Li    c     -5.0954 *     5.8810 *    11.7620 *  0.0000     8          
   165  O     c      2.7459 *    -1.9603 *    13.7224 *  0.0000     8          
   166  O     c      2.7459 *     9.8017 *     9.8017    0.0000     4          
   167  Cl    c      0.7856 *    11.7620 *     7.8414 *  0.0000     8          
   168  Li    c    -12.9368 *     5.8810 *     0.0000    0.0000     4          
   169  Li    c     -3.1351 *     1.9603 *    13.7224 *  0.0000     8          
   170  Li    c     -3.1351 *     9.8017 *     9.8017    0.0000     4          
   171  Li    c      6.6666 *     9.8017 *     7.8414 *  0.0000     8          
   172  Cl    c     -7.0558 *     3.9207 *    11.7620 *  0.0000     8          
   173  Li    c     -1.1748 *    13.7224 *     3.9207 *  0.0000     8          
   174  Li    c      8.6269 *     9.8017 *     5.8810 *  0.0000     8          
   175  O     c    -12.9368 *    -1.9603 *     5.8810 *  0.0000     8          
   176  Li    c     10.5873 *     5.8810 *     7.8414 *  0.0000     8          
   177  Li    c     10.5873 *     9.8017 *     0.0000    0.0000     4          
   178  Cl    c     -3.1351 *     7.8414 *    11.7620 *  0.0000     8          
   179  Li    c      2.7459 *    13.7224 *     3.9207 *  0.0000     8          
   180  O     c     -9.0161 *     5.8810 *     9.8017 *  0.0000     8          
   181  O     c     10.5873 *    -1.9603 *     9.8017 *  0.0000     8          
   182  Cl    c      8.6269 *     0.0000      11.7620 *  0.0000     4          
   183  Li    c     -5.0954 *    13.7224 *     0.0000    0.0000     4          
   184  Li    c      4.7063 *     1.9603 *    13.7224 *  0.0000     8          
   185  Li    c      4.7063 *     9.8017 *     9.8017    0.0000     4          
   186  Li    c     14.5079 *    -1.9603 *     0.0000    0.0000     4          
   187  Li    c    -12.9368 *     5.8810 *     3.9207 *  0.0000     8          
   188  Li    c      6.6666 *     5.8810 *    11.7620 *  0.0000     8          
   189  O     c     -5.0954 *    -1.9603 *    13.7224 *  0.0000     8          
   190  O     c     -5.0954 *     9.8017 *     9.8017    0.0000     4          
   191  O     c     14.5079 *    -1.9603 *    -1.9603    0.0000     4          
   192  Cl    c     12.5476 *     0.0000       7.8414 *  0.0000     4          
   193  Li    c    -10.9764 *     1.9603 *     9.8017 *  0.0000     8          
   194  Cl    c    -14.8971 *     0.0000       0.0000    0.0000     1          
   195  Cl    c      4.7063 *     7.8414 *    11.7620 *  0.0000     8          
   196  Li    c     -9.0161 *    -1.9603 *    11.7620 *  0.0000     8          
   197  Li    c      0.7856 *     5.8810 *    13.7224 *  0.0000     8          
   198  Li    c     10.5873 *     9.8017 *     3.9207 *  0.0000     8          
   199  O     c     -1.1748 *     5.8810 *    13.7224 *  0.0000     8          
   200  Li    c     12.5476 *     5.8810 *     5.8810    0.0000     4          
   201  Cl    c      8.6269 *     3.9207 *    11.7620 *  0.0000     8          
   202  Li    c    -14.8971 *     1.9603 *     1.9603    0.0000     4          
   203  Li    c     -5.0954 *    13.7224 *     3.9207 *  0.0000     8          
   204  Li    c     14.5079 *    -1.9603 *     3.9207 *  0.0000     8          
   205  O     c      2.7459 *     5.8810 *    13.7224 *  0.0000     8          
   206  Li    c    -12.9368 *    -1.9603 *     7.8414 *  0.0000     8          
   207  Li    c     -3.1351 *     5.8810 *    13.7224 *  0.0000     8          
   208  Li    c      6.6666 *    13.7224 *     0.0000    0.0000     4          
   209  Cl    c     12.5476 *     3.9207 *     7.8414 *  0.0000     8          
   210  Li    c     -1.1748 *     9.8017 *    11.7620 *  0.0000     8          
   211  O     c    -12.9368 *     5.8810 *     5.8810    0.0000     4          
   212  O     c      6.6666 *    -1.9603 *    13.7224 *  0.0000     8          
   213  O     c      6.6666 *     9.8017 *     9.8017    0.0000     4          
   214  Cl    c    -14.8971 *     0.0000       3.9207 *  0.0000     4          
   215  Li    c     -9.0161 *     9.8017 *     7.8414 *  0.0000     8          
   216  Li    c     -7.0558 *    13.7224 *     1.9603 *  0.0000     8          
   217  Li    c     -7.0558 *     9.8017 *     9.8017    0.0000     4          
   218  Li    c      2.7459 *     9.8017 *    11.7620 *  0.0000     8          
   219  O     c     10.5873 *     5.8810 *     9.8017 *  0.0000     8          
   220  Cl    c    -10.9764 *     7.8414 *     7.8414    0.0000     4          
   221  Li    c      4.7063 *     5.8810 *    13.7224 *  0.0000     8          
   222  Li    c     14.5079 *     5.8810 *     0.0000    0.0000     4          
   223  Cl    c      0.7856 *     0.0000      15.6827 *  0.0000     4          
   224  Li    c      6.6666 *    13.7224 *     3.9207 *  0.0000     8          
   225  O     c     -5.0954 *     5.8810 *    13.7224 *  0.0000     8          
   226  O     c     14.5079 *    -1.9603 *     5.8810 *  0.0000     8          
   227  Cl    c     -7.0558 *     7.8414 *    11.7620 *  0.0000     8          
   228  Li    c    -10.9764 *     5.8810 *     9.8017 *  0.0000     8          
   229  Li    c     -1.1748 *    -1.9603 *    15.6827 *  0.0000     8          
   230  Li    c     -1.1748 *    13.7224 *     7.8414 *  0.0000     8          
   231  Cl    c    -14.8971 *     3.9207 *     3.9207    0.0000     4          
   232  Li    c     -9.0161 *     5.8810 *    11.7620 *  0.0000     8          
   233  Li    c     10.5873 *    11.7620 *    -1.9603 *  0.0000     8          
   234  Cl    c     -3.1351 *     0.0000      15.6827 *  0.0000     4          
   235  Li    c      2.7459 *    -1.9603 *    15.6827 *  0.0000     8          
   236  Li    c      2.7459 *    13.7224 *     7.8414 *  0.0000     8          
   237  Li    c     12.5476 *     1.9603 *     9.8017 *  0.0000     8          
   238  Cl    c    -10.9764 *     0.0000      11.7620 *  0.0000     4          
   239  Li    c    -14.8971 *     1.9603 *     5.8810 *  0.0000     8          
   240  Li    c     -5.0954 *     9.8017 *    11.7620 *  0.0000     8          
   241  Li    c     14.5079 *     3.9207 *     5.8810 *  0.0000     8          
   242  Cl    c      0.7856 *     3.9207 *    15.6827 *  0.0000     8          
   243  Li    c    -12.9368 *     7.8414 *     5.8810 *  0.0000     8          
   244  Li    c    -12.9368 *     9.8017 *     0.0000    0.0000     4          
   245  Li    c      8.6269 *    13.7224 *     1.9603 *  0.0000     8          
   246  Li    c      8.6269 *     9.8017 *     9.8017    0.0000     4          
   247  O     c    -12.9368 *    -1.9603 *     9.8017 *  0.0000     8          
   248  O     c      6.6666 *     5.8810 *    13.7224 *  0.0000     8          
   249  Cl    c      4.7063 *     0.0000      15.6827 *  0.0000     4          
   250  Li    c     -9.0161 *    13.7224 *     0.0000    0.0000     4          
   251  Li    c     10.5873 *     7.8414 *     9.8017 *  0.0000     8          
   252  Cl    c     -3.1351 *     3.9207 *    15.6827 *  0.0000     8          
   253  Cl    c     16.4683 *     0.0000       0.0000    0.0000     1          
   254  Li    c     -7.0558 *    13.7224 *     5.8810 *  0.0000     8          
   255  O     c     -9.0161 *    -1.9603 *    13.7224 *  0.0000     8          
   256  O     c     -9.0161 *     9.8017 *     9.8017    0.0000     4          
   257  Cl    c    -10.9764 *     3.9207 *    11.7620 *  0.0000     8          
   258  Cl    c      8.6269 *     7.8414 *    11.7620 *  0.0000     8          
   259  Li    c     -5.0954 *    15.6827 *    -1.9603 *  0.0000     8          
   260  Li    c     -5.0954 *    13.7224 *     7.8414 *  0.0000     8          
   261  Li    c     14.5079 *    -1.9603 *     7.8414 *  0.0000     8          
   262  Cl    c      0.7856 *    11.7620 *    11.7620    0.0000     4          
   263  Li    c    -12.9368 *     9.8017 *     3.9207 *  0.0000     8          
   264  Li    c      6.6666 *     9.8017 *    11.7620 *  0.0000     8          
   265  Li    c     16.4683 *     1.9603 *     1.9603    0.0000     4          
   266  O     c     14.5079 *     5.8810 *     5.8810    0.0000     4          
   267  Cl    c     12.5476 *     7.8414 *     7.8414    0.0000     4          
   268  Li    c     -1.1748 *     5.8810 *    15.6827 *  0.0000     8          
   269  Cl    c    -14.8971 *     0.0000       7.8414 *  0.0000     4          
   270  Cl    c      4.7063 *     3.9207 *    15.6827 *  0.0000     8          
   271  Li    c     -9.0161 *     3.9207 *    13.7224 *  0.0000     8          
   272  Li    c      0.7856 *     9.8017 *    13.7224 *  0.0000     8          
   273  Li    c     10.5873 *     5.8810 *    11.7620 *  0.0000     8          
   274  O     c     -1.1748 *     9.8017 *    13.7224 *  0.0000     8          
   275  Cl    c     -3.1351 *    11.7620 *    11.7620    0.0000     4          
   276  Cl    c     16.4683 *     0.0000       3.9207 *  0.0000     4          
   277  Li    c    -16.8575 *    -1.9603 *     0.0000    0.0000     4          
   278  Li    c      2.7459 *     5.8810 *    15.6827 *  0.0000     8          
   279  Li    c     12.5476 *     5.8810 *     9.8017 *  0.0000     8          
   280  Li    c    -14.8971 *     5.8810 *     5.8810    0.0000     4          
   281  O     c    -16.8575 *    -1.9603 *    -1.9603    0.0000     4          
   282  O     c      2.7459 *     9.8017 *    13.7224 *  0.0000     8          
   283  Li    c     -3.1351 *     9.8017 *    13.7224 *  0.0000     8          
   284  Li    c      6.6666 *    -1.9603 *    15.6827 *  0.0000     8          
   285  Li    c      6.6666 *    13.7224 *     7.8414 *  0.0000     8          
   286  Cl    c     -7.0558 *     0.0000      15.6827 *  0.0000     4          
   287  Cl    c     12.5476 *     0.0000      11.7620 *  0.0000     4          
   288  Li    c      8.6269 *    13.7224 *     5.8810 *  0.0000     8          
   289  O     c    -12.9368 *     5.8810 *     9.8017 *  0.0000     8          
   290  Cl    c    -14.8971 *     3.9207 *     7.8414 *  0.0000     8          
   291  Cl    c      4.7063 *    11.7620 *    11.7620    0.0000     4          
   292  Li    c     10.5873 *    13.7224 *     0.0000    0.0000     4          
   293  Cl    c     16.4683 *     3.9207 *     3.9207    0.0000     4          
   294  Li    c    -16.8575 *    -1.9603 *     3.9207 *  0.0000     8          
   295  O     c     -9.0161 *     5.8810 *    13.7224 *  0.0000     8          
   296  O     c     10.5873 *    -1.9603 *    13.7224 *  0.0000     8          
   297  O     c     10.5873 *     9.8017 *     9.8017    0.0000     4          
   298  Li    c     -5.0954 *    15.6827 *     5.8810 *  0.0000     8          
   299  Li    c      4.7063 *     9.8017 *    13.7224 *  0.0000     8          
   300  Li    c     14.5079 *     7.8414 *     5.8810 *  0.0000     8          
   301  Li    c     14.5079 *     9.8017 *     0.0000    0.0000     4          
   302  Cl    c      0.7856 *     7.8414 *    15.6827 *  0.0000     8          
   303  Li    c    -12.9368 *    -1.9603 *    11.7620 *  0.0000     8          
   304  Li    c     16.4683 *     5.8810 *     1.9603 *  0.0000     8          
   305  O     c     -5.0954 *     9.8017 *    13.7224 *  0.0000     8          
   306  O     c     14.5079 *    -1.9603 *     9.8017 *  0.0000     8          
   307  Cl    c     -7.0558 *     3.9207 *    15.6827 *  0.0000     8          
   308  Cl    c     12.5476 *     3.9207 *    11.7620 *  0.0000     8          
   309  Li    c    -10.9764 *     1.9603 *    13.7224 *  0.0000     8          
   310  Li    c    -10.9764 *     9.8017 *     9.8017    0.0000     4          
   311  Li    c     -1.1748 *    17.6430 *     0.0000    0.0000     4          
   312  Li    c     -9.0161 *     9.8017 *    11.7620 *  0.0000     8          
   313  Li    c      0.7856 *     1.9603 *    17.6430 *  0.0000     8          
   314  Li    c     10.5873 *    13.7224 *     3.9207 *  0.0000     8          
   315  O     c     -1.1748 *    -1.9603 *    17.6430 *  0.0000     8          
   316  Cl    c     -3.1351 *     7.8414 *    15.6827 *  0.0000     8          
   317  Li    c    -16.8575 *     5.8810 *     0.0000    0.0000     4          
   318  Li    c      2.7459 *    17.6430 *     0.0000    0.0000     4          
   319  Cl    c    -10.9764 *     7.8414 *    11.7620 *  0.0000     8          
   320  Cl    c      8.6269 *     0.0000      15.6827 *  0.0000     4          
   321  Li    c    -14.8971 *     1.9603 *     9.8017 *  0.0000     8          
   322  Li    c     14.5079 *     9.8017 *     3.9207 *  0.0000     8          
   323  O     c    -16.8575 *     5.8810 *    -1.9603 *  0.0000     8          
   324  O     c      2.7459 *    17.6430 *    -1.9603 *  0.0000     8          
   325  Li    c    -12.9368 *     9.8017 *     7.8414 *  0.0000     8          
   326  Li    c     -3.1351 *     1.9603 *    17.6430 *  0.0000     8          
   327  Li    c      6.6666 *     5.8810 *    15.6827 *  0.0000     8          
   328  Cl    c     -7.0558 *    11.7620 *    11.7620    0.0000     4          
   329  Li    c     -1.1748 *    13.7224 *    11.7620 *  0.0000     8          
   330  Li    c     -1.1748 *    17.6430 *     3.9207 *  0.0000     8          
   331  O     c      6.6666 *     9.8017 *    13.7224 *  0.0000     8          
   332  Cl    c      4.7063 *     7.8414 *    15.6827 *  0.0000     8          
   333  Li    c     -9.0161 *    15.6827 *    -1.9603 *  0.0000     8          
   334  Li    c     -9.0161 *     7.8414 *    13.7224 *  0.0000     8          
   335  Cl    c     16.4683 *     0.0000       7.8414 *  0.0000     4          
   336  Li    c    -16.8575 *     5.8810 *     3.9207 *  0.0000     8          
   337  Li    c     -7.0558 *     9.8017 *    13.7224 *  0.0000     8          
   338  Li    c      2.7459 *    13.7224 *    11.7620 *  0.0000     8          
   339  Li    c      2.7459 *    17.6430 *     3.9207 *  0.0000     8          
   340  O     c     10.5873 *     5.8810 *    13.7224 *  0.0000     8          
   341  Cl    c      8.6269 *     3.9207 *    15.6827 *  0.0000     8          
   342  Li    c     -5.0954 *    17.6430 *     0.0000    0.0000     4          
   343  Li    c      4.7063 *     1.9603 *    17.6430 *  0.0000     8          
   344  Li    c    -12.9368 *     5.8810 *    11.7620 *  0.0000     8          
   345  Li    c     16.4683 *     5.8810 *     5.8810    0.0000     4          
   346  O     c     -5.0954 *    -1.9603 *    17.6430 *  0.0000     8          
   347  O     c     14.5079 *     5.8810 *     9.8017 *  0.0000     8          
   348  Li    c    -10.9764 *     5.8810 *    13.7224 *  0.0000     8          
   349  Li    c     -1.1748 *     9.8017 *    15.6827 *  0.0000     8          
   350  Li    c     18.4286 *    -1.9603 *     0.0000    0.0000     4          
   351  Cl    c    -14.8971 *     7.8414 *     7.8414    0.0000     4          
   352  Li    c      0.7856 *    17.6430 *     5.8810 *  0.0000     8          
   353  Li    c     10.5873 *     9.8017 *    11.7620 *  0.0000     8          
   354  O     c     -1.1748 *     5.8810 *    17.6430 *  0.0000     8          
   355  O     c     18.4286 *    -1.9603 *    -1.9603    0.0000     4          
   356  Cl    c     16.4683 *     3.9207 *     7.8414 *  0.0000     8          
   357  Li    c    -16.8575 *    -1.9603 *     7.8414 *  0.0000     8          
   358  Li    c      2.7459 *     9.8017 *    15.6827 *  0.0000     8          
   359  Li    c     12.5476 *     1.9603 *    13.7224 *  0.0000     8          
   360  Li    c     12.5476 *     9.8017 *     9.8017    0.0000     4          
   361  Cl    c      8.6269 *    11.7620 *    11.7620    0.0000     4          
   362  Li    c    -14.8971 *     5.8810 *     9.8017 *  0.0000     8          
   363  Li    c     -5.0954 *    13.7224 *    11.7620 *  0.0000     8          
   364  Li    c     -5.0954 *    17.6430 *     3.9207 *  0.0000     8          
   365  Li    c     14.5079 *    -1.9603 *    11.7620 *  0.0000     8          
   366  O     c    -16.8575 *     5.8810 *     5.8810    0.0000     4          
   367  O     c      2.7459 *    17.6430 *     5.8810 *  0.0000     8          
   368  Cl    c    -18.8178 *     0.0000       0.0000    0.0000     1          
   369  Li    c    -12.9368 *    13.7224 *     0.0000    0.0000     4          
   370  Li    c     -3.1351 *    17.6430 *     5.8810 *  0.0000     8          
   371  Li    c      6.6666 *    17.6430 *     0.0000    0.0000     4          
   372  Cl    c     -7.0558 *     7.8414 *    15.6827 *  0.0000     8          
   373  Cl    c     12.5476 *     7.8414 *    11.7620 *  0.0000     8          
   374  Li    c      8.6269 *     9.8017 *    13.7224 *  0.0000     8          
   375  Li    c     18.4286 *    -1.9603 *     3.9207 *  0.0000     8          
   376  O     c    -12.9368 *    -1.9603 *    13.7224 *  0.0000     8          
   377  O     c    -12.9368 *     9.8017 *     9.8017    0.0000     4          
   378  O     c      6.6666 *    17.6430 *    -1.9603 *  0.0000     8          
   379  Cl    c    -14.8971 *     0.0000      11.7620 *  0.0000     4          
   380  Li    c    -18.8178 *     1.9603 *     1.9603    0.0000     4          
   381  Li    c     -9.0161 *    15.6827 *     5.8810 *  0.0000     8          
   382  Li    c     10.5873 *    -1.9603 *    15.6827 *  0.0000     8          
   383  Li    c     10.5873 *     7.8414 *    13.7224 *  0.0000     8          
   384  Li    c     -7.0558 *     1.9603 *    17.6430 *  0.0000     8          
   385  O     c     -9.0161 *     9.8017 *    13.7224 *  0.0000     8          
   386  Cl    c    -10.9764 *     0.0000      15.6827 *  0.0000     4          
   387  Li    c     -5.0954 *     9.8017 *    15.6827 *  0.0000     8          
   388  Li    c      4.7063 *     5.8810 *    17.6430 *  0.0000     8          
   389  Li    c     14.5079 *     9.8017 *     7.8414 *  0.0000     8          
   390  Cl    c    -18.8178 *     0.0000       3.9207 *  0.0000     4          
   391  Li    c    -12.9368 *    13.7224 *     3.9207 *  0.0000     8          
   392  Li    c      6.6666 *    13.7224 *    11.7620 *  0.0000     8          
   393  Li    c      6.6666 *    17.6430 *     3.9207 *  0.0000     8          
   394  Li    c     16.4683 *     1.9603 *     9.8017 *  0.0000     8          
   395  O     c     -5.0954 *     5.8810 *    17.6430 *  0.0000     8          
   396  Li    c     -1.1748 *    17.6430 *     7.8414 *  0.0000     8          
   397  Li    c     18.4286 *     5.8810 *     0.0000    0.0000     4          
   398  Cl    c    -14.8971 *     3.9207 *    11.7620 *  0.0000     8          
   399  Li    c      0.7856 *    13.7224 *    13.7224    0.0000     4          
   400  O     c     -1.1748 *    13.7224 *    13.7224    0.0000     4          
   401  O     c     18.4286 *    -1.9603 *     5.8810 *  0.0000     8          
   402  Li    c    -16.8575 *     5.8810 *     7.8414 *  0.0000     8          
   403  Li    c    -16.8575 *     9.8017 *     0.0000    0.0000     4          
   404  Li    c      2.7459 *    17.6430 *     7.8414 *  0.0000     8          
   405  Li    c     12.5476 *     5.8810 *    13.7224 *  0.0000     8          
   406  Cl    c    -10.9764 *     3.9207 *    15.6827 *  0.0000     8          
   407  Cl    c      8.6269 *     7.8414 *    15.6827 *  0.0000     8          
   408  Li    c     14.5079 *     5.8810 *    11.7620 *  0.0000     8          
   409  O     c    -16.8575 *    -1.9603 *     9.8017 *  0.0000     8          
   410  O     c      2.7459 *    13.7224 *    13.7224    0.0000     4          
   411  Cl    c    -18.8178 *     3.9207 *     3.9207    0.0000     4          
   412  Cl    c      0.7856 *    11.7620 *    15.6827 *  0.0000     8          
   413  Cl    c      0.7856 *     0.0000      19.6034 *  0.0000     4          
   414  Li    c     -3.1351 *    13.7224 *    13.7224    0.0000     4          
   415  Li    c      6.6666 *     9.8017 *    15.6827 *  0.0000     8          
   416  Li    c     -1.1748 *    -1.9603 *    19.6034 *  0.0000     8          
   417  Li    c      8.6269 *     1.9603 *    17.6430 *  0.0000     8          
   418  Li    c     18.4286 *     3.9207 *     5.8810 *  0.0000     8          
   419  O     c    -12.9368 *     5.8810 *    13.7224 *  0.0000     8          
   420  O     c      6.6666 *    17.6430 *     5.8810 *  0.0000     8          
   421  Li    c    -18.8178 *     1.9603 *     5.8810 *  0.0000     8          
   422  Li    c     -9.0161 *    17.6430 *     0.0000    0.0000     4          
   423  Li    c     10.5873 *     5.8810 *    15.6827 *  0.0000     8          
   424  Cl    c     -3.1351 *    11.7620 *    15.6827 *  0.0000     8          
   425  Cl    c     -3.1351 *     0.0000      19.6034 *  0.0000     4          
   426  Cl    c     16.4683 *     7.8414 *     7.8414    0.0000     4          
   427  Li    c    -16.8575 *     3.9207 *     9.8017 *  0.0000     8          
   428  Li    c     -7.0558 *     5.8810 *    17.6430 *  0.0000     8          
   429  Li    c      2.7459 *    19.6034 *    -1.9603 *  0.0000     8          
   430  O     c     -9.0161 *    -1.9603 *    17.6430 *  0.0000     8          
   431  O     c     10.5873 *     9.8017 *    13.7224 *  0.0000     8          
   432  Cl    c    -10.9764 *    11.7620 *    11.7620    0.0000     4          
   433  Li    c     -5.0954 *    17.6430 *     7.8414 *  0.0000     8          
   434  Li    c      4.7063 *    13.7224 *    13.7224    0.0000     4          
   435  Li    c     14.5079 *    13.7224 *     0.0000    0.0000     4          
   436  O     s     -1.1748 *    -1.9603 *    -1.9603    0.0000     4          
   437  O     s      2.7459 *    -1.9603 *    -1.9603    0.0000     4          
   438  Cl    s      0.7856 *     0.0000       3.9207 *  0.0000     4          
   439  Cl    s      4.7063 *     0.0000       0.0000    0.0000     1          
   440  Cl    s     -3.1351 *     0.0000       3.9207 *  0.0000     4          
   441  Cl    s      5.2359       0.0000       0.0000    0.0000     1    Defect
   442  Cl    s      0.7856 *     3.9207 *     3.9207    0.0000     4          
   443  O     s     -5.0954 *    -1.9603 *    -1.9603    0.0000     4          
   444  Cl    s      4.7063 *     0.0000       3.9207 *  0.0000     4          
   445  O     s     -1.1748 *     5.8810 *    -1.9603 *  0.0000     8          
   446  Cl    s     -3.1351 *     3.9207 *     3.9207    0.0000     4          
   447  O     s      2.7459 *    -1.9603 *     5.8810 *  0.0000     8          
   448  Cl    s     -7.0558 *     0.0000       0.0000    0.0000     1          
   449  O     s      6.6666 *    -1.9603 *    -1.9603    0.0000     4          
   450  Cl    s      4.7063 *     3.9207 *     3.9207    0.0000     4          
   451  Cl    s      0.7856 *     0.0000       7.8414 *  0.0000     4          
   452  O     s     -5.0954 *    -1.9603 *     5.8810 *  0.0000     8          
   453  Cl    s     -7.0558 *     0.0000       3.9207 *  0.0000     4          
   454  O     s     -1.1748 *     5.8810 *     5.8810    0.0000     4          
   455  Cl    s     -3.1351 *     0.0000       7.8414 *  0.0000     4          
   456  Cl    s      8.6269 *     0.0000       0.0000    0.0000     1          
   457  O     s      2.7459 *     5.8810 *     5.8810    0.0000     4          
   458  Cl    s      0.7856 *     3.9207 *     7.8414 *  0.0000     8          
   459  Cl    s     -7.0558 *     3.9207 *     3.9207    0.0000     4          
   460  O     s      6.6666 *    -1.9603 *     5.8810 *  0.0000     8          
   461  Cl    s      4.7063 *     0.0000       7.8414 *  0.0000     4          
   462  Cl    s     -3.1351 *     3.9207 *     7.8414 *  0.0000     8          
   463  O     s     -9.0161 *    -1.9603 *    -1.9603    0.0000     4          
   464  Cl    s      8.6269 *     0.0000       3.9207 *  0.0000     4          
   465  O     s     -5.0954 *     5.8810 *     5.8810    0.0000     4          
   466  Cl    s      4.7063 *     3.9207 *     7.8414 *  0.0000     8          
   467  O     s     -1.1748 *    -1.9603 *     9.8017 *  0.0000     8          
   468  Cl    s      8.6269 *     3.9207 *     3.9207    0.0000     4          
   469  O     s      2.7459 *    -1.9603 *     9.8017 *  0.0000     8          
   470  Cl    s     -7.0558 *     0.0000       7.8414 *  0.0000     4          
   471  O     s      6.6666 *     5.8810 *     5.8810    0.0000     4          
   472  O     s     -9.0161 *    -1.9603 *     5.8810 *  0.0000     8          
   473  O     s     10.5873 *    -1.9603 *    -1.9603    0.0000     4          
   474  Cl    s    -10.9764 *     0.0000       0.0000    0.0000     1          
   475  Cl    s      0.7856 *     7.8414 *     7.8414    0.0000     4          
   476  O     s     -5.0954 *    -1.9603 *     9.8017 *  0.0000     8          
   477  Cl    s     -7.0558 *     3.9207 *     7.8414 *  0.0000     8          
   478  O     s     -1.1748 *     5.8810 *     9.8017 *  0.0000     8          
   479  Cl    s     -3.1351 *     7.8414 *     7.8414    0.0000     4          
   480  Cl    s    -10.9764 *     0.0000       3.9207 *  0.0000     4          
   481  Cl    s      8.6269 *     0.0000       7.8414 *  0.0000     4          
   482  O     s      2.7459 *     5.8810 *     9.8017 *  0.0000     8          
   483  Cl    s      0.7856 *     0.0000      11.7620 *  0.0000     4          
   484  O     s      6.6666 *    -1.9603 *     9.8017 *  0.0000     8          
   485  Cl    s      4.7063 *     7.8414 *     7.8414    0.0000     4          
   486  Cl    s     -3.1351 *     0.0000      11.7620 *  0.0000     4          
   487  O     s     -9.0161 *     5.8810 *     5.8810    0.0000     4          
   488  O     s     10.5873 *    -1.9603 *     5.8810 *  0.0000     8          
   489  Cl    s    -10.9764 *     3.9207 *     3.9207    0.0000     4          
   490  Cl    s      8.6269 *     3.9207 *     7.8414 *  0.0000     8          
   491  Cl    s      0.7856 *    11.7620 *     3.9207 *  0.0000     8          
   492  O     s     -5.0954 *     5.8810 *     9.8017 *  0.0000     8          
   493  Cl    s     12.5476 *     0.0000       0.0000    0.0000     1          
   494  Cl    s      4.7063 *     0.0000      11.7620 *  0.0000     4          
   495  Cl    s     -3.1351 *     3.9207 *    11.7620 *  0.0000     8          
   496  Cl    s     -7.0558 *     7.8414 *     7.8414    0.0000     4          
   497  Cl    s     12.5476 *     0.0000       3.9207 *  0.0000     4          
   498  O     s    -12.9368 *    -1.9603 *    -1.9603    0.0000     4          
   499  O     s      6.6666 *     5.8810 *     9.8017 *  0.0000     8          
   500  Cl    s      4.7063 *     3.9207 *    11.7620 *  0.0000     8          
   501  O     s     -9.0161 *     9.8017 *    -1.9603 *  0.0000     8          
   502  O     s     10.5873 *     5.8810 *     5.8810    0.0000     4          
   503  Cl    s    -10.9764 *     0.0000       7.8414 *  0.0000     4          
   504  Cl    s     -7.0558 *     0.0000      11.7620 *  0.0000     4          
   505  Cl    s     12.5476 *     3.9207 *     3.9207    0.0000     4          
   506  O     s     -1.1748 *    -1.9603 *    13.7224 *  0.0000     8          
   507  O     s     -1.1748 *     9.8017 *     9.8017    0.0000     4          
   508  Cl    s    -10.9764 *     3.9207 *     7.8414 *  0.0000     8          
   509  Cl    s      8.6269 *     7.8414 *     7.8414    0.0000     4          
   510  O     s      2.7459 *    -1.9603 *    13.7224 *  0.0000     8          
   511  O     s      2.7459 *     9.8017 *     9.8017    0.0000     4          
   512  Cl    s      0.7856 *    11.7620 *     7.8414 *  0.0000     8          
   513  Cl    s     -7.0558 *     3.9207 *    11.7620 *  0.0000     8          
   514  O     s    -12.9368 *    -1.9603 *     5.8810 *  0.0000     8          
   515  Cl    s     -3.1351 *     7.8414 *    11.7620 *  0.0000     8          
   516  O     s     -9.0161 *     5.8810 *     9.8017 *  0.0000     8          
   517  O     s     10.5873 *    -1.9603 *     9.8017 *  0.0000     8          
   518  Cl    s      8.6269 *     0.0000      11.7620 *  0.0000     4          
   519  O     s     -5.0954 *    -1.9603 *    13.7224 *  0.0000     8          
   520  O     s     -5.0954 *     9.8017 *     9.8017    0.0000     4          
   521  O     s     14.5079 *    -1.9603 *    -1.9603    0.0000     4          
   522  Cl    s     12.5476 *     0.0000       7.8414 *  0.0000     4          
   523  Cl    s    -14.8971 *     0.0000       0.0000    0.0000     1          
   524  Cl    s      4.7063 *     7.8414 *    11.7620 *  0.0000     8          
   525  O     s     -1.1748 *     5.8810 *    13.7224 *  0.0000     8          
   526  Cl    s      8.6269 *     3.9207 *    11.7620 *  0.0000     8          
   527  O     s      2.7459 *     5.8810 *    13.7224 *  0.0000     8          
   528  Cl    s     12.5476 *     3.9207 *     7.8414 *  0.0000     8          
   529  O     s    -12.9368 *     5.8810 *     5.8810    0.0000     4          
   530  O     s      6.6666 *    -1.9603 *    13.7224 *  0.0000     8          
   531  O     s      6.6666 *     9.8017 *     9.8017    0.0000     4          
   532  Cl    s    -14.8971 *     0.0000       3.9207 *  0.0000     4          
   533  O     s     10.5873 *     5.8810 *     9.8017 *  0.0000     8          
   534  Cl    s    -10.9764 *     7.8414 *     7.8414    0.0000     4          
   535  Cl    s      0.7856 *     0.0000      15.6827 *  0.0000     4          
   536  O     s     -5.0954 *     5.8810 *    13.7224 *  0.0000     8          
   537  O     s     14.5079 *    -1.9603 *     5.8810 *  0.0000     8          
   538  Cl    s     -7.0558 *     7.8414 *    11.7620 *  0.0000     8          
   539  Cl    s    -14.8971 *     3.9207 *     3.9207    0.0000     4          
   540  Cl    s     -3.1351 *     0.0000      15.6827 *  0.0000     4          
   541  Cl    s    -10.9764 *     0.0000      11.7620 *  0.0000     4          
   542  Cl    s      0.7856 *     3.9207 *    15.6827 *  0.0000     8          
   543  O     s    -12.9368 *    -1.9603 *     9.8017 *  0.0000     8          
   544  O     s      6.6666 *     5.8810 *    13.7224 *  0.0000     8          
   545  Cl    s      4.7063 *     0.0000      15.6827 *  0.0000     4          
   546  Cl    s     -3.1351 *     3.9207 *    15.6827 *  0.0000     8          
   547  Cl    s     16.4683 *     0.0000       0.0000    0.0000     1          
   548  O     s     -9.0161 *    -1.9603 *    13.7224 *  0.0000     8          
   549  O     s     -9.0161 *     9.8017 *     9.8017    0.0000     4          
   550  Cl    s    -10.9764 *     3.9207 *    11.7620 *  0.0000     8          
   551  Cl    s      8.6269 *     7.8414 *    11.7620 *  0.0000     8          
   552  Cl    s      0.7856 *    11.7620 *    11.7620    0.0000     4          
   553  O     s     14.5079 *     5.8810 *     5.8810    0.0000     4          
   554  Cl    s     12.5476 *     7.8414 *     7.8414    0.0000     4          
   555  Cl    s    -14.8971 *     0.0000       7.8414 *  0.0000     4          
   556  Cl    s      4.7063 *     3.9207 *    15.6827 *  0.0000     8          
   557  O     s     -1.1748 *     9.8017 *    13.7224 *  0.0000     8          
   558  Cl    s     -3.1351 *    11.7620 *    11.7620    0.0000     4          
   559  Cl    s     16.4683 *     0.0000       3.9207 *  0.0000     4          
   560  O     s    -16.8575 *    -1.9603 *    -1.9603    0.0000     4          
   561  O     s      2.7459 *     9.8017 *    13.7224 *  0.0000     8          
   562  Cl    s     -7.0558 *     0.0000      15.6827 *  0.0000     4          
   563  Cl    s     12.5476 *     0.0000      11.7620 *  0.0000     4          
   564  O     s    -12.9368 *     5.8810 *     9.8017 *  0.0000     8          
   565  Cl    s    -14.8971 *     3.9207 *     7.8414 *  0.0000     8          
   566  Cl    s      4.7063 *    11.7620 *    11.7620    0.0000     4          
   567  Cl    s     16.4683 *     3.9207 *     3.9207    0.0000     4          
   568  O     s     -9.0161 *     5.8810 *    13.7224 *  0.0000     8          
   569  O     s     10.5873 *    -1.9603 *    13.7224 *  0.0000     8          
   570  O     s     10.5873 *     9.8017 *     9.8017    0.0000     4          
   571  Cl    s      0.7856 *     7.8414 *    15.6827 *  0.0000     8          
   572  O     s     -5.0954 *     9.8017 *    13.7224 *  0.0000     8          
   573  O     s     14.5079 *    -1.9603 *     9.8017 *  0.0000     8          
   574  Cl    s     -7.0558 *     3.9207 *    15.6827 *  0.0000     8          
   575  Cl    s     12.5476 *     3.9207 *    11.7620 *  0.0000     8          
   576  O     s     -1.1748 *    -1.9603 *    17.6430 *  0.0000     8          
   577  Cl    s     -3.1351 *     7.8414 *    15.6827 *  0.0000     8          
   578  Cl    s    -10.9764 *     7.8414 *    11.7620 *  0.0000     8          
   579  Cl    s      8.6269 *     0.0000      15.6827 *  0.0000     4          
   580  O     s    -16.8575 *     5.8810 *    -1.9603 *  0.0000     8          
   581  O     s      2.7459 *    17.6430 *    -1.9603 *  0.0000     8          
   582  Cl    s     -7.0558 *    11.7620 *    11.7620    0.0000     4          
   583  O     s      6.6666 *     9.8017 *    13.7224 *  0.0000     8          
   584  Cl    s      4.7063 *     7.8414 *    15.6827 *  0.0000     8          
   585  Cl    s     16.4683 *     0.0000       7.8414 *  0.0000     4          
   586  O     s     10.5873 *     5.8810 *    13.7224 *  0.0000     8          
   587  Cl    s      8.6269 *     3.9207 *    15.6827 *  0.0000     8          
   588  O     s     -5.0954 *    -1.9603 *    17.6430 *  0.0000     8          
   589  O     s     14.5079 *     5.8810 *     9.8017 *  0.0000     8          
   590  Cl    s    -14.8971 *     7.8414 *     7.8414    0.0000     4          
   591  O     s     -1.1748 *     5.8810 *    17.6430 *  0.0000     8          
   592  O     s     18.4286 *    -1.9603 *    -1.9603    0.0000     4          
   593  Cl    s     16.4683 *     3.9207 *     7.8414 *  0.0000     8          
   594  Cl    s      8.6269 *    11.7620 *    11.7620    0.0000     4          
   595  O     s    -16.8575 *     5.8810 *     5.8810    0.0000     4          
   596  O     s      2.7459 *    17.6430 *     5.8810 *  0.0000     8          
   597  Cl    s    -18.8178 *     0.0000       0.0000    0.0000     1          
   598  Cl    s     -7.0558 *     7.8414 *    15.6827 *  0.0000     8          
   599  Cl    s     12.5476 *     7.8414 *    11.7620 *  0.0000     8          
   600  O     s    -12.9368 *    -1.9603 *    13.7224 *  0.0000     8          
   601  O     s    -12.9368 *     9.8017 *     9.8017    0.0000     4          
   602  O     s      6.6666 *    17.6430 *    -1.9603 *  0.0000     8          
   603  Cl    s    -14.8971 *     0.0000      11.7620 *  0.0000     4          
   604  O     s     -9.0161 *     9.8017 *    13.7224 *  0.0000     8          
   605  Cl    s    -10.9764 *     0.0000      15.6827 *  0.0000     4          
   606  Cl    s    -18.8178 *     0.0000       3.9207 *  0.0000     4          
   607  O     s     -5.0954 *     5.8810 *    17.6430 *  0.0000     8          
   608  Cl    s    -14.8971 *     3.9207 *    11.7620 *  0.0000     8          
   609  O     s     -1.1748 *    13.7224 *    13.7224    0.0000     4          
   610  O     s     18.4286 *    -1.9603 *     5.8810 *  0.0000     8          
   611  Cl    s    -10.9764 *     3.9207 *    15.6827 *  0.0000     8          
   612  Cl    s      8.6269 *     7.8414 *    15.6827 *  0.0000     8          
   613  O     s    -16.8575 *    -1.9603 *     9.8017 *  0.0000     8          
   614  O     s      2.7459 *    13.7224 *    13.7224    0.0000     4          
   615  Cl    s    -18.8178 *     3.9207 *     3.9207    0.0000     4          
   616  Cl    s      0.7856 *    11.7620 *    15.6827 *  0.0000     8          
   617  Cl    s      0.7856 *     0.0000      19.6034 *  0.0000     4          
   618  O     s    -12.9368 *     5.8810 *    13.7224 *  0.0000     8          
   619  O     s      6.6666 *    17.6430 *     5.8810 *  0.0000     8          
   620  Cl    s     -3.1351 *    11.7620 *    15.6827 *  0.0000     8          
   621  Cl    s     -3.1351 *     0.0000      19.6034 *  0.0000     4          
   622  Cl    s     16.4683 *     7.8414 *     7.8414    0.0000     4          
   623  O     s     -9.0161 *    -1.9603 *    17.6430 *  0.0000     8          
   624  O     s     10.5873 *     9.8017 *    13.7224 *  0.0000     8          
   625  Cl    s    -10.9764 *    11.7620 *    11.7620    0.0000     4          
--------------------------------------------------------------------------------


  Constraints on symmetry reduced coordinates :

--------------------------------------------------------------------------------
  Constraint no.      Unconstrained     Constrained    Coefficient    
                         Variable         Variable
--------------------------------------------------------------------------------
           1                 2 y             2 z         1.00000
           2                 3 y             3 z         1.00000
           3                 5 y             5 z         1.00000
           4                 7 y             7 z         1.00000
           5                14 y            14 z         1.00000
           6                15 y            15 z         1.00000
           7                16 y            16 z         1.00000
           8                21 y            21 z         1.00000
           9                29 y            29 z         1.00000
          10                30 y            30 z         1.00000
          11                31 y            31 z         1.00000
          12                40 y            40 z         1.00000
          13                41 y            41 z         1.00000
          14                46 y            46 z         1.00000
          15                48 y            48 z         1.00000
          16                50 y            50 z         1.00000
          17                51 y            51 z         1.00000
          18                57 y            57 z         1.00000
          19                60 y            60 z         1.00000
          20                62 y            62 z         1.00000
          21                71 y            71 z         1.00000
          22                78 y            78 z         1.00000
          23                81 y            81 z         1.00000
          24                84 y            84 z         1.00000
          25                89 y            89 z         1.00000
          26                92 y            92 z         1.00000
          27                97 y            97 z         1.00000
          28               107 y           107 z         1.00000
          29               109 y           109 z         1.00000
          30               115 y           115 z         1.00000
          31               117 y           117 z         1.00000
          32               130 y           130 z         1.00000
          33               133 y           133 z         1.00000
          34               137 y           137 z         1.00000
          35               146 y           146 z         1.00000
          36               152 y           152 z         1.00000
          37               153 y           153 z         1.00000
          38               157 y           157 z         1.00000
          39               159 y           159 z         1.00000
          40               163 y           163 z         1.00000
          41               166 y           166 z         1.00000
          42               170 y           170 z         1.00000
          43               185 y           185 z         1.00000
          44               190 y           190 z         1.00000
          45               191 y           191 z         1.00000
          46               200 y           200 z         1.00000
          47               202 y           202 z         1.00000
          48               211 y           211 z         1.00000
          49               213 y           213 z         1.00000
          50               217 y           217 z         1.00000
          51               220 y           220 z         1.00000
          52               231 y           231 z         1.00000
          53               246 y           246 z         1.00000
          54               256 y           256 z         1.00000
          55               262 y           262 z         1.00000
          56               265 y           265 z         1.00000
          57               266 y           266 z         1.00000
          58               267 y           267 z         1.00000
          59               275 y           275 z         1.00000
          60               280 y           280 z         1.00000
          61               281 y           281 z         1.00000
          62               291 y           291 z         1.00000
          63               293 y           293 z         1.00000
          64               297 y           297 z         1.00000
          65               310 y           310 z         1.00000
          66               328 y           328 z         1.00000
          67               345 y           345 z         1.00000
          68               351 y           351 z         1.00000
          69               355 y           355 z         1.00000
          70               360 y           360 z         1.00000
          71               361 y           361 z         1.00000
          72               366 y           366 z         1.00000
          73               377 y           377 z         1.00000
          74               380 y           380 z         1.00000
          75               399 y           399 z         1.00000
          76               400 y           400 z         1.00000
          77               410 y           410 z         1.00000
          78               411 y           411 z         1.00000
          79               414 y           414 z         1.00000
          80               426 y           426 z         1.00000
          81               432 y           432 z         1.00000
          82               434 y           434 z         1.00000
          83               436 y           436 z         1.00000
          84               437 y           437 z         1.00000
          85               442 y           442 z         1.00000
[...]
    545 y          0.000000      0.000000     0.000000    Cartesian    0.00
    545 z         15.682702     -0.003048   -15.685750    Cartesian -100.02
    546 x          0.000000      0.000057     0.000057    Cartesian    0.00
    546 y          3.920675     -0.000957    -3.921632    Cartesian -100.02
    546 z         15.682702     -0.004459   -15.687161    Cartesian -100.03
    547 x         19.603377      0.000860   -19.602517    Cartesian -100.00
    547 y          0.000000      0.000000     0.000000    Cartesian    0.00
    547 z          0.000000      0.000000     0.000000    Cartesian    0.00
    548 x         -5.881013      0.000116     5.881129    Cartesian -100.00
    548 y         -1.960338      0.000037     1.960375    Cartesian -100.00
    548 z         13.722364     -0.000285   -13.722649    Cartesian -100.00
    549 x         -5.881013      0.000121     5.881135    Cartesian -100.00
    549 y          9.801689     -0.000207    -9.801896    Cartesian -100.00
    549 z          9.801689     -0.000207    -9.801896    Cartesian -100.00
    550 x         -7.841351     -7.854322    -0.012971    Cartesian    0.17
    550 y          3.920675     -0.001499    -3.922175    Cartesian -100.04
    550 z         11.762026     -0.004843   -11.766870    Cartesian -100.04
    551 x         11.762026     -0.002231   -11.764257    Cartesian -100.02
    551 y          7.841351     -0.000859    -7.842210    Cartesian -100.01
    551 z         11.762026     -0.001332   -11.763358    Cartesian -100.01
    552 x          3.920675     -0.000990    -3.921666    Cartesian -100.03
    552 y         11.762026     -0.002751   -11.764777    Cartesian -100.02
    552 z         11.762026     -0.002751   -11.764777    Cartesian -100.02
    553 x         17.643040     -0.000050   -17.643090    Cartesian -100.00
    553 y          5.881013      0.000026    -5.880987    Cartesian -100.00
    553 z          5.881013      0.000026    -5.880987    Cartesian -100.00
    554 x         15.682702     -0.001754   -15.684456    Cartesian -100.01
    554 y          7.841351     -0.000053    -7.841404    Cartesian -100.00
    554 z          7.841351     -0.000053    -7.841404    Cartesian -100.00
    555 x        -11.762026      0.005575    11.767602    Cartesian -100.05
    555 y          0.000000      0.000000     0.000000    Cartesian    0.00
    555 z          7.841351     -0.003381    -7.844732    Cartesian -100.04
    556 x          7.841351     -0.001603    -7.842954    Cartesian -100.02
    556 y          3.920675     -0.000638    -3.921313    Cartesian -100.02
    556 z         15.682702     -0.002839   -15.685541    Cartesian -100.02
    557 x          1.960338     -0.000031    -1.960368    Cartesian -100.00
    557 y          9.801689     -0.000128    -9.801817    Cartesian -100.00
    557 z         13.722364     -0.000188   -13.722552    Cartesian -100.00
    558 x          0.000000      0.000075     0.000075    Cartesian    0.00
    558 y         11.762026     -0.003041   -11.765068    Cartesian -100.03
    558 z         11.762026     -0.003041   -11.765068    Cartesian -100.03
    559 x         19.603377      0.000330   -19.603047    Cartesian -100.00
    559 y          0.000000      0.000000     0.000000    Cartesian    0.00
    559 z          3.920675      0.000507    -3.920169    Cartesian  -99.99
    560 x        -13.722364    -13.723704    -0.001340    Cartesian    0.01
    560 y         -1.960338      0.000041     1.960379    Cartesian -100.00
    560 z         -1.960338      0.000041     1.960379    Cartesian -100.00
    561 x          5.881013     -0.000079    -5.881092    Cartesian -100.00
    561 y          9.801689     -0.000106    -9.801795    Cartesian -100.00
    561 z         13.722364     -0.000154   -13.722518    Cartesian -100.00
    562 x         -3.920675      0.001101     3.921776    Cartesian -100.03
    562 y          0.000000      0.000000     0.000000    Cartesian    0.00
    562 z         15.682702     -0.004539   -15.687241    Cartesian -100.03
    563 x         15.682702     -0.001597   -15.684299    Cartesian -100.01
    563 y          0.000000      0.000000     0.000000    Cartesian    0.00
    563 z         11.762026     -0.000216   -11.762243    Cartesian -100.00
    564 x         -9.801689      0.000215     9.801904    Cartesian -100.00
    564 y          5.881013     -0.000128    -5.881141    Cartesian -100.00
    564 z          9.801689     -0.000214    -9.801903    Cartesian -100.00
    565 x        -11.762026      0.004971    11.766997    Cartesian -100.04
    565 y          3.920675     -0.001476    -3.922151    Cartesian -100.04
    565 z          7.841351     -0.003015    -7.844366    Cartesian -100.04
    566 x          7.841351     -0.001591    -7.842942    Cartesian -100.02
    566 y         11.762026     -0.001971   -11.763997    Cartesian -100.02
    566 z         11.762026     -0.001971   -11.763997    Cartesian -100.02
    567 x         19.603377     -0.000093   -19.603470    Cartesian -100.00
    567 y          3.920675      0.000388    -3.920287    Cartesian  -99.99
    567 z          3.920675      0.000388    -3.920287    Cartesian  -99.99
    568 x         -5.881013      0.000103     5.881116    Cartesian -100.00
    568 y          5.881013     -0.000100    -5.881114    Cartesian -100.00
    568 z         13.722364     -0.000239   -13.722603    Cartesian -100.00
    569 x         13.722364     -0.000109   -13.722474    Cartesian -100.00
    569 y         -1.960338      0.000007     1.960344    Cartesian -100.00
    569 z         13.722364     13.722455     0.000091    Cartesian    0.00
    570 x         13.722364     -0.000109   -13.722474    Cartesian -100.00
    570 y          9.801689     -0.000039    -9.801728    Cartesian -100.00
    570 z          9.801689     -0.000039    -9.801728    Cartesian -100.00
    571 x          3.920675     -0.000714    -3.921389    Cartesian -100.02
    571 y          7.841351     -0.001575    -7.842926    Cartesian -100.02
    571 z         15.682702     -0.003254   -15.685956    Cartesian -100.02
    572 x         -1.960338      0.000031     1.960368    Cartesian -100.00
    572 y          9.801689     -0.000134    -9.801822    Cartesian -100.00
    572 z         13.722364     -0.000192   -13.722556    Cartesian -100.00
    573 x         17.643040     -0.000064   -17.643104    Cartesian -100.00
    573 y         -1.960338     -0.000003     1.960335    Cartesian -100.00
    573 z          9.801689      0.000013    -9.801676    Cartesian -100.00
    574 x         -3.920675      0.001212     3.921887    Cartesian -100.03
    574 y          3.920675     -0.000883    -3.921558    Cartesian -100.02
    574 z         15.682702     -0.004226   -15.686928    Cartesian -100.03
    575 x         15.682702     -0.001594   -15.684296    Cartesian -100.01
    575 y          3.920675     -0.000095    -3.920770    Cartesian -100.00
    575 z         11.762026     -0.000444   -11.762471    Cartesian -100.00
    576 x          1.960338     -0.000024    -1.960362    Cartesian -100.00
    576 y         -1.960338      0.000026     1.960364    Cartesian -100.00
    576 z         17.643040     -0.000201   -17.643241    Cartesian -100.00
    577 x          0.000000      0.000066     0.000066    Cartesian    0.00
    577 y          7.841351     -0.001722    -7.843073    Cartesian -100.02
    577 z         15.682702     -0.003585   -15.686287    Cartesian -100.02
    578 x         -7.841351     -7.850596    -0.009245    Cartesian    0.12
    578 y          7.841351     -0.002445    -7.843796    Cartesian -100.03
    578 z         11.762026     -0.003707   -11.765733    Cartesian -100.03
    579 x         11.762026     -0.001811   -11.763838    Cartesian -100.02
    579 y          0.000000      0.000000     0.000000    Cartesian    0.00
    579 z         15.682702     -0.001695   -15.684397    Cartesian -100.01
    580 x        -13.722364      0.000295    13.722659    Cartesian -100.00
    580 y          5.881013     -0.000119    -5.881132    Cartesian -100.00
    580 z         -1.960338      0.000036     1.960374    Cartesian -100.00
    581 x          5.881013     -0.000066    -5.881079    Cartesian -100.00
    581 y         17.643040     -0.000167   -17.643207    Cartesian -100.00
    581 z         -1.960338      0.000018     1.960355    Cartesian -100.00
    582 x         -3.920675      0.001238     3.921914    Cartesian -100.03
    582 y         11.762026     -0.003001   -11.765028    Cartesian -100.03
    582 z         11.762026     -0.003001   -11.765028    Cartesian -100.03
    583 x          9.801689     -0.000093    -9.801782    Cartesian -100.00
    583 y          9.801689     -0.000068    -9.801756    Cartesian -100.00
    583 z         13.722364     -0.000097   -13.722461    Cartesian -100.00
    584 x          7.841351     -0.001298    -7.842649    Cartesian -100.02
    584 y          7.841351     -0.001154    -7.842505    Cartesian -100.01
    584 z         15.682702     -0.002468   -15.685170    Cartesian -100.02
    585 x         19.603377     -0.000506   -19.603883    Cartesian -100.00
    585 y          0.000000      0.000000     0.000000    Cartesian    0.00
    585 z          7.841351      0.000283    -7.841068    Cartesian -100.00
    586 x         13.722364     -0.000099   -13.722463    Cartesian -100.00
    586 y          5.881013     -0.000020    -5.881034    Cartesian -100.00
    586 z         13.722364     -0.000056   -13.722420    Cartesian -100.00
    587 x         11.762026     11.772152     0.010126    Cartesian    0.09
    587 y          3.920675     -0.000392    -3.921067    Cartesian -100.01
    587 z         15.682702     -0.001648   -15.684350    Cartesian -100.01
    588 x         -1.960338      0.000022     1.960360    Cartesian -100.00
    588 y         -1.960338      0.000022     1.960360    Cartesian -100.00
    588 z         17.643040     -0.000204   -17.643244    Cartesian -100.00
    589 x         17.643040     -0.000066   -17.643106    Cartesian -100.00
    589 y          5.881013      0.000001    -5.881013    Cartesian -100.00
    589 z          9.801689     -0.000004    -9.801692    Cartesian -100.00
    590 x        -11.762026      0.003842    11.765868    Cartesian -100.03
    590 y          7.841351     -0.002576    -7.843927    Cartesian -100.03
    590 z          7.841351     -0.002576    -7.843927    Cartesian -100.03
    591 x          1.960338     -0.000020    -1.960358    Cartesian -100.00
    591 y          5.881013     -0.000050    -5.881063    Cartesian -100.00
    591 z         17.643040     -0.000174   -17.643214    Cartesian -100.00
    592 x         21.563715      0.000012   -21.563704    Cartesian -100.00
    592 y         -1.960338     -0.000008     1.960329    Cartesian -100.00
    592 z         -1.960338     -0.000008     1.960329    Cartesian -100.00
    593 x         19.603377     -0.000582   -19.603959    Cartesian -100.00
    593 y          3.920675      0.000135    -3.920540    Cartesian -100.00
    593 z          7.841351      0.000170    -7.841181    Cartesian -100.00
    594 x         11.762026     -0.001648   -11.763674    Cartesian -100.01
    594 y         11.762026     -0.001229   -11.763255    Cartesian -100.01
    594 z         11.762026     -0.001229   -11.763255    Cartesian -100.01
    595 x        -13.722364      0.000237    13.722601    Cartesian -100.00
    595 y          5.881013     -0.000092    -5.881105    Cartesian -100.00
    595 z          5.881013     -0.000092    -5.881105    Cartesian -100.00
    596 x          5.881013     -0.000052    -5.881065    Cartesian -100.00
    596 y         17.643040     17.643604     0.000564    Cartesian    0.00
    596 z          5.881013     -0.000041    -5.881055    Cartesian -100.00
    597 x        -15.682702      0.005420    15.688122    Cartesian -100.03
    597 y          0.000000      0.000000     0.000000    Cartesian    0.00
    597 z          0.000000      0.000000     0.000000    Cartesian    0.00
    598 x         -3.920675      0.001054     3.921729    Cartesian -100.03
    598 y          7.841351     -0.001626    -7.842977    Cartesian -100.02
    598 z         15.682702     -0.003177   -15.685879    Cartesian -100.02
    599 x         15.682702     -0.001364   -15.684066    Cartesian -100.01
    599 y          7.841351     -0.000393    -7.841744    Cartesian -100.01
    599 z         11.762026     -0.000596   -11.762623    Cartesian -100.01
    600 x         -9.801689      0.000133     9.801822    Cartesian -100.00
    600 y         -1.960338      0.000022     1.960359    Cartesian -100.00
    600 z         13.722364     -0.000184   -13.722548    Cartesian -100.00
    601 x         -9.801689      0.000126     9.801814    Cartesian -100.00
    601 y          9.801689     -0.000118    -9.801806    Cartesian -100.00
    601 z          9.801689     -0.000118    -9.801806    Cartesian -100.00
    602 x          9.801689     -0.000072    -9.801760    Cartesian -100.00
    602 y         17.643040     -0.000105   -17.643144    Cartesian -100.00
    602 z         -1.960338      0.000010     1.960348    Cartesian -100.00
    603 x        -11.762026      0.003386    11.765412    Cartesian -100.03
    603 y          0.000000      0.000000     0.000000    Cartesian    0.00
    603 z         11.762026     -0.003341   -11.765368    Cartesian -100.03
    604 x         -5.881013      0.000056     5.881070    Cartesian -100.00
    604 y          9.801689     -0.000094    -9.801783    Cartesian -100.00
    604 z         13.722364     -0.000142   -13.722506    Cartesian -100.00
    605 x         -7.841351      0.001882     7.843233    Cartesian -100.02
    605 y          0.000000      0.000000     0.000000    Cartesian    0.00
    605 z         15.682702     -0.003486   -15.686188    Cartesian -100.02
    606 x        -15.682702    -15.704299    -0.021597    Cartesian    0.14
    606 y          0.000000      0.000000     0.000000    Cartesian    0.00
    606 z          3.920675     -0.000994    -3.921670    Cartesian -100.03
    607 x         -1.960338      0.000013     1.960351    Cartesian -100.00
    607 y          5.881013     -0.000049    -5.881062    Cartesian -100.00
    607 z         17.643040     -0.000172   -17.643212    Cartesian -100.00
    608 x        -11.762026      0.002939    11.764965    Cartesian -100.02
    608 y          3.920675     -0.000883    -3.921558    Cartesian -100.02
    608 z         11.762026     -0.002913   -11.764939    Cartesian -100.02
    609 x          1.960338     -0.000017    -1.960355    Cartesian -100.00
    609 y         13.722364     -0.000107   -13.722471    Cartesian -100.00
    609 z         13.722364     -0.000107   -13.722471    Cartesian -100.00
    610 x         21.563715     -0.000008   -21.563723    Cartesian -100.00
    610 y         -1.960338     -0.000005     1.960333    Cartesian -100.00
    610 z          5.881013      0.000016    -5.880997    Cartesian -100.00
    611 x         -7.841351      0.001498     7.842849    Cartesian -100.02
    611 y          3.920675     -0.000697    -3.921373    Cartesian -100.02
    611 z         15.682702     -0.003091   -15.685793    Cartesian -100.02
    612 x         11.762026     -0.001252   -11.763279    Cartesian -100.01
    612 y          7.841351     -0.000674    -7.842025    Cartesian -100.01
    612 z         15.682702     -0.001256   -15.683958    Cartesian -100.01
    613 x        -13.722364      0.000180    13.722544    Cartesian -100.00
    613 y         -1.960338      0.000021     1.960359    Cartesian -100.00
    613 z          9.801689     -0.000124    -9.801813    Cartesian -100.00
    614 x          5.881013     -0.000039    -5.881052    Cartesian -100.00
    614 y         13.722364     -0.000086   -13.722450    Cartesian -100.00
    614 z         13.722364     -0.000086   -13.722450    Cartesian -100.00
    615 x        -15.682702    -15.703515    -0.020813    Cartesian    0.13
    615 y          3.920675     -0.000974    -3.921649    Cartesian -100.02
    615 z          3.920675     -0.000974    -3.921649    Cartesian -100.02
    616 x          3.920675     -0.000533    -3.921208    Cartesian -100.01
    616 y         11.762026     -0.001408   -11.763434    Cartesian -100.01
    616 z         15.682702     -0.001980   -15.684682    Cartesian -100.01
    617 x          3.920675     -0.000460    -3.921136    Cartesian -100.01
    617 y          0.000000      0.000000     0.000000    Cartesian    0.00
    617 z         19.603377     -0.002519   -19.605897    Cartesian -100.01
    618 x         -9.801689      0.000094     9.801783    Cartesian -100.00
    618 y          5.881013     -0.000053    -5.881066    Cartesian -100.00
    618 z         13.722364     -0.000135   -13.722499    Cartesian -100.00
    619 x          9.801689     -0.000055    -9.801744    Cartesian -100.00
    619 y         17.643040     -0.000078   -17.643117    Cartesian -100.00
    619 z          5.881013     -0.000023    -5.881036    Cartesian -100.00
    620 x          0.000000     -0.000055    -0.000055    Cartesian    0.00
    620 y         11.762026     -0.001490   -11.763517    Cartesian -100.01
    620 z         15.682702     -0.002132   -15.684834    Cartesian -100.01
    621 x          0.000000      0.000014     0.000014    Cartesian    0.00
    621 y          0.000000      0.000000     0.000000    Cartesian    0.00
    621 z         19.603377     -0.002566   -19.605944    Cartesian -100.01
    622 x         19.603377     -0.000701   -19.604079    Cartesian -100.00
    622 y          7.841351      0.000029    -7.841322    Cartesian -100.00
    622 z          7.841351      0.000029    -7.841322    Cartesian -100.00
    623 x         -5.881013      0.000042     5.881056    Cartesian -100.00
    623 y         -1.960338      0.000012     1.960350    Cartesian -100.00
    623 z         17.643040     -0.000141   -17.643181    Cartesian -100.00
    624 x         13.722364     -0.000060   -13.722425    Cartesian -100.00
    624 y          9.801689      9.801800     0.000112    Cartesian    0.00
    624 z         13.722364     -0.000039   -13.722403    Cartesian -100.00
    625 x         -7.841351      0.001095     7.842446    Cartesian -100.01
    625 y         11.762026     -0.001871   -11.763898    Cartesian -100.02
    625 z         11.762026     -0.001871   -11.763898    Cartesian -100.02
--------------------------------------------------------------------------------


  Time to end of optimisation  =      473.9890 seconds


  Peak dynamic memory used =    1740.55 MB 


  Timing analysis for GULP :

--------------------------------------------------------------------------------
  Task / Subroutine                                          Time (Seconds)
--------------------------------------------------------------------------------
  Calculation of reciprocal space energy and derivatives          0.0003
  Calculation of reciprocal space energy using symmetry           0.0003
  Calculation of real space energy and derivatives                0.0018
  Calculation of real space energy using symmetry                 0.0042
  Calculation for region 1 energy and derivatives (2-b)         191.6920
  Calculation for region 2a energy                               75.8827
  Calculation for region 2b energy                                0.0159
  Calculation and manipulation of Hessian matrix                189.2452
  Calculation of matrix inversion                                15.7427
  Symmetry generation of equivalent positions                     0.0018
--------------------------------------------------------------------------------
  Total CPU time                                                473.9890
--------------------------------------------------------------------------------


  Dump file written as Li3OCl.grs


  Job Finished at 18:17.51 20th October    2020                               

