********************************************************************************
*                       GENERAL UTILITY LATTICE PROGRAM                        *
*                                 Julian Gale                                  *
*                       Curtin Institute for Computation                       *
*                    School of Molecular and Life Sciences                     *
*                    Curtin University, Western Australia                      *
********************************************************************************
* Version = 5.2.0 * Last modified =  10th September 2020                       *
********************************************************************************
*  optimise     - perform optimisation run                                     *
*  conp         - constant pressure calculation                                *
*  property     - calculate properties for final geometry                      *
*  defect       - perform defect calculation after bulk run                    *
*  compare      - compare initial and final structures                         *
********************************************************************************

  Job Started  at 18:25.23 20th October    2020                               

  Number of CPUs =     1


  Total number of configurations input =      1

********************************************************************************
*  Input for Configuration =   1                                               *
********************************************************************************

  Formula = ClOLi3                                                      

  Number of irreducible atoms/shells =       5


  Total number atoms/shells =       7

  Dimensionality = 3               :  Bulk   


  Symmetry :

  Crystal family                   :  Cubic       
  Crystal class  (Groth - 1921)    :  Cubic Hexakisoctahedral              

  Space group (centrosymmetric)    :  P M 3 M         

  Patterson group                  :  P m -3 m 

  Cartesian lattice vectors (Angstroms) :

        3.918873    0.000000    0.000000
        0.000000    3.918873    0.000000
        0.000000    0.000000    3.918873

  Cell parameters (Angstroms/Degrees):

  a =       3.9189    alpha =  90.0000
  b =       3.9189    beta  =  90.0000
  c =       3.9189    gamma =  90.0000

  Initial cell volume =          60.184349 Angs**3

  Temperature of configuration =   0.00     K 

  Pressure of configuration =         0.000 GPa 

  Fractional coordinates of asymmetric unit :

--------------------------------------------------------------------------------
   No.  Atomic       x           y          z         Charge      Occupancy
        Label      (Frac)      (Frac)     (Frac)        (e)         (Frac)  
--------------------------------------------------------------------------------
      1 Cl    c    0.000000    0.000000    0.000000     1.48500    1.000000    
      2 O     c    0.500000    0.500000    0.500000     0.18300    1.000000    
      3 Li    c    0.500000    0.500000    0.000000     1.00000    1.000000    
      4 Cl    s    0.000000    0.000000    0.000000    -2.48500    1.000000    
      5 O     s    0.500000    0.500000    0.500000    -2.18300    1.000000    
--------------------------------------------------------------------------------


  Constraints : 

--------------------------------------------------------------------------------
  Constraint no.      Unconstrained     Constrained    Coefficient    Offset
                         Variable         Variable
--------------------------------------------------------------------------------
           1              Strain 1        Strain 2       1.00000      0.0000
           2              Strain 1        Strain 3       1.00000      0.0000
--------------------------------------------------------------------------------


********************************************************************************
*  General input information                                                   *
********************************************************************************

  Species output for all configurations : 

--------------------------------------------------------------------------------
  Species    Type    Atomic    Atomic    Charge       Radii (Angs)     Library
                     Number     Mass       (e)     Cova   Ionic  VDW   Symbol
--------------------------------------------------------------------------------
    Li       Core        3       6.94   1.000000   0.680  0.000  1.800          
    O        Core        8      16.00   0.183000   0.730  0.000  1.360          
    O        Shell       8       0.00  -2.183000   0.730  0.000  1.360          
    Cl       Core       17      35.45   1.485000   0.990  0.000  1.650          
    Cl       Shell      17       0.00  -2.485000   0.990  0.000  1.650          
--------------------------------------------------------------------------------


  Lattice summation method               =    Ewald          (3-D)
                                         =    Parry          (2-D)
                                         =    Saunders et al (1-D)
  Accuracy factor for lattice sums       =   12.000


  Analytic derivatives to be used

  Time limit = Infinity

  Maximum range for interatomic potentials =    100000.000000 Angstroms

  General interatomic potentials :

--------------------------------------------------------------------------------
Atom  Types   Potential      Parameter       Value         Units   Cutoffs(Ang)
  1     2                                                            Min /  Max 
--------------------------------------------------------------------------------
O    c O    s Spring (c-s)  Spring k 2       593.72000    eV*Ang^-2 0.000  0.800
                            Spring k 4       0.0000000    eV*Ang^-4 
--------------------------------------------------------------------------------
Cl   c Cl   s Spring (c-s)  Spring k 2       29.380000    eV*Ang^-2 0.000  0.800
                            Spring k 4       0.0000000    eV*Ang^-4 
--------------------------------------------------------------------------------
Li   c Li   c Buckingham    Buckingham A     360.53000    eV        0.000 12.000
                            Buckingham rho  0.16100000    Ang       
                            Buckingham C     0.0000000    eV*Ang^6  
--------------------------------------------------------------------------------
Li   c O    s Buckingham    Buckingham A     292.30000    eV        0.000 12.000
                            Buckingham rho  0.34720000    Ang       
                            Buckingham C     0.0000000    eV*Ang^6  
--------------------------------------------------------------------------------
Li   c Cl   s Buckingham    Buckingham A     421.04000    eV        0.000 12.000
                            Buckingham rho  0.33400000    Ang       
                            Buckingham C     0.0000000    eV*Ang^6  
--------------------------------------------------------------------------------
O    s O    s Buckingham    Buckingham A     22764.300    eV        0.000 12.000
                            Buckingham rho  0.14900000    Ang       
                            Buckingham C     13.190000    eV*Ang^6  
--------------------------------------------------------------------------------
O    s Cl   s Buckingham    Buckingham A     8286.9100    eV        0.000 12.000
                            Buckingham rho  0.25900000    Ang       
                            Buckingham C     62.200000    eV*Ang^6  
--------------------------------------------------------------------------------
Cl   s Cl   s Buckingham    Buckingham A     1227.2000    eV        0.000 12.000
                            Buckingham rho  0.32100000    Ang       
                            Buckingham C     14.530000    eV*Ang^6  
--------------------------------------------------------------------------------

********************************************************************************
*  Output for configuration   1                                                *
********************************************************************************


  Components of energy : 

--------------------------------------------------------------------------------
  Interatomic potentials     =           7.26836263 eV    
  Monopole - monopole (real) =         -11.53475722 eV    
  Monopole - monopole (recip)=         -33.94580548 eV    
  Monopole - monopole (total)=         -45.48056271 eV    
--------------------------------------------------------------------------------
  Total lattice energy       =         -38.21220008 eV    
--------------------------------------------------------------------------------
  Total lattice energy       =           -3686.8932 kJ/(mole unit cells)
--------------------------------------------------------------------------------


  Number of variables =        1

  Maximum number of calculations  =          1000
  Maximum Hessian update interval =            10
  Maximum step size               =   1.000000000
  Maximum parameter tolerance     =   0.000010000
  Maximum function  tolerance     =   0.000010000
  Maximum gradient  tolerance     =   0.001000000
  Maximum gradient  component     =   0.010000000

  Symmetry constrained optimisation

  Symmetry used for second derivatives

  Cell parameters to be optimised using strains

  Newton-Raphson optimiser to be used

  BFGS hessian update to be used

  Lower half triangular hessian to be used

  Start of bulk optimisation :

  Cycle:      0 Energy:       -38.212200  Gnorm:      0.095699  CPU:    0.006
  ** Hessian calculated **
  Cycle:      1 Energy:       -38.212222  Gnorm:      0.000105  CPU:    0.008


  **** Optimisation achieved ****


  Final energy =     -38.21222207 eV
  Final Gnorm  =       0.00000016

  Components of energy : 

--------------------------------------------------------------------------------
  Interatomic potentials     =           7.24743141 eV    
  Monopole - monopole (real) =         -11.52945423 eV    
  Monopole - monopole (recip)=         -33.93019924 eV    
  Monopole - monopole (total)=         -45.45965348 eV    
--------------------------------------------------------------------------------
  Total lattice energy       =         -38.21222207 eV    
--------------------------------------------------------------------------------
  Total lattice energy       =           -3686.8953 kJ/(mole unit cells)
--------------------------------------------------------------------------------

  Final asymmetric unit coordinates :

--------------------------------------------------------------------------------
   No.  Atomic        x           y           z         Radius
        Label       (Frac)      (Frac)      (Frac)       (Angs) 
--------------------------------------------------------------------------------
     1  Cl    c     0.000000    0.000000    0.000000    0.000000
     2  O     c     0.500000    0.500000    0.500000    0.000000
     3  Li    c     0.500000    0.500000    0.000000    0.000000
     4  Cl    s     0.000000    0.000000    0.000000    0.000000
     5  O     s     0.500000    0.500000    0.500000    0.000000
--------------------------------------------------------------------------------

  Final Cartesian lattice vectors (Angstroms) :

        3.920675    0.000000    0.000000
        0.000000    3.920675    0.000000
        0.000000    0.000000    3.920675


  Final cell parameters and derivatives :

--------------------------------------------------------------------------------
       a            3.920675 Angstrom     dE/de1(xx)    -0.000000 eV/strain
       b            3.920675 Angstrom     dE/de2(yy)     0.000000 eV/strain
       c            3.920675 Angstrom     dE/de3(zz)     0.000000 eV/strain
       alpha       90.000000 Degrees      dE/de4(yz)     0.000000 eV/strain
       beta        90.000000 Degrees      dE/de5(xz)     0.000000 eV/strain
       gamma       90.000000 Degrees      dE/de6(xy)     0.000000 eV/strain
--------------------------------------------------------------------------------

  Primitive cell volume =            60.267433 Angs**3

  Density of cell =      1.991276 g/cm**3

  Non-primitive cell volume =            60.267433 Angs**3


  Final internal derivatives :

--------------------------------------------------------------------------------
   No.  Atomic          a             b             c           Radius
        Label          (eV)          (eV)          (eV)        (eV/Angs)
--------------------------------------------------------------------------------
      1 Cl    c       0.000000      0.000000      0.000000      0.000000
      2 O     c       0.000000      0.000000      0.000000      0.000000
      3 Li    c       0.000000      0.000000      0.000000      0.000000
      4 Cl    s       0.000000      0.000000      0.000000      0.000000
      5 O     s       0.000000      0.000000      0.000000      0.000000
--------------------------------------------------------------------------------
  Maximum abs         0.000000      0.000000      0.000000      0.000000
--------------------------------------------------------------------------------

  Comparison of initial and final structures : 

--------------------------------------------------------------------------------
  Parameter   Initial value   Final value   Difference    Units      Percent
--------------------------------------------------------------------------------
    Volume        60.184349     60.267433     0.083084    Angs**3      0.14
    a              3.918873      3.920675     0.001802    Angstroms    0.05
    b              3.918873      3.920675     0.001802    Angstroms    0.05
    c              3.918873      3.920675     0.001802    Angstroms    0.05
    alpha         90.000000     90.000000     0.000000    Degrees      0.00
    beta          90.000000     90.000000     0.000000    Degrees      0.00
    gamma         90.000000     90.000000     0.000000    Degrees      0.00
      1 x          0.000000      0.000000     0.000000    Fractional   0.00
      1 y          0.000000      0.000000     0.000000    Fractional   0.00
      1 z          0.000000      0.000000     0.000000    Fractional   0.00
      2 x          0.500000      0.500000     0.000000    Fractional   0.00
      2 y          0.500000      0.500000     0.000000    Fractional   0.00
      2 z          0.500000      0.500000     0.000000    Fractional   0.00
      3 x          0.500000      0.500000     0.000000    Fractional   0.00
      3 y          0.500000      0.500000     0.000000    Fractional   0.00
      3 z          0.000000      0.000000     0.000000    Fractional   0.00
      4 x          0.000000      0.000000     0.000000    Fractional   0.00
      4 y          0.000000      0.000000     0.000000    Fractional   0.00
      4 z          0.000000      0.000000     0.000000    Fractional   0.00
      5 x          0.500000      0.500000     0.000000    Fractional   0.00
      5 y          0.500000      0.500000     0.000000    Fractional   0.00
      5 z          0.500000      0.500000     0.000000    Fractional   0.00
--------------------------------------------------------------------------------


  Born effective charge tensors : 

-------------------------------------------------------------------------------
  Atom             x           y             z
-------------------------------------------------------------------------------
    1 Cl    x      -0.9489     -0.0000     -0.0000
            y      -0.0000     -0.9489     -0.0000
            z      -0.0000     -0.0000     -0.9489
-------------------------------------------------------------------------------
    2 O     x      -2.4688      0.0000      0.0000
            y       0.0000     -2.4688      0.0000
            z       0.0000      0.0000     -2.4688
-------------------------------------------------------------------------------
    3 Li    x       1.3129      0.0000     -0.0000
            y       0.0000      1.3129      0.0000
            z      -0.0000      0.0000      0.7919
-------------------------------------------------------------------------------




  Elastic Constant Matrix: (Units=GPa)

-------------------------------------------------------------------------------
  Indices      1         2         3         4         5         6    
-------------------------------------------------------------------------------
       1     94.3368   44.9178   44.9178    0.0000   -0.0000    0.0000
       2     44.9178   94.3368   44.9178   -0.0000    0.0000   -0.0000
       3     44.9178   44.9178   94.3368    0.0000   -0.0000    0.0000
       4      0.0000   -0.0000    0.0000   44.9178   -0.0000    0.0000
       5     -0.0000    0.0000   -0.0000   -0.0000   44.9178    0.0000
       6      0.0000   -0.0000    0.0000    0.0000    0.0000   44.9178
-------------------------------------------------------------------------------


  Elastic Compliance Matrix: (Units=1/GPa)

-------------------------------------------------------------------------------
  Indices      1         2         3         4         5         6    
-------------------------------------------------------------------------------
       1    0.015300 -0.004935 -0.004935 -0.000000  0.000000 -0.000000
       2   -0.004935  0.015300 -0.004935  0.000000 -0.000000  0.000000
       3   -0.004935 -0.004935  0.015300 -0.000000  0.000000 -0.000000
       4   -0.000000  0.000000 -0.000000  0.022263  0.000000 -0.000000
       5    0.000000 -0.000000  0.000000  0.000000  0.022263 -0.000000
       6   -0.000000  0.000000 -0.000000 -0.000000 -0.000000  0.022263
-------------------------------------------------------------------------------

  Mechanical properties :

-------------------------------------------------------------------------------
  Convention :                    Reuss         Voigt         Hill
-------------------------------------------------------------------------------
  Bulk  Modulus (GPa)     =      61.39080      61.39080      61.39080
  Shear Modulus (GPa)     =      33.84570      36.83448      35.34009
-------------------------------------------------------------------------------
  Velocity S-wave (km/s)  =       4.12274       4.30092       4.21277
  Velocity P-wave (km/s)  =       7.31386       7.44942       7.38195
-------------------------------------------------------------------------------
  Compressibility (1/GPa) =    0.01628909
-------------------------------------------------------------------------------
  Stress axis :                     x             y             z
-------------------------------------------------------------------------------
  Youngs Moduli (GPa)     =      65.35947      65.35947      65.35947
-------------------------------------------------------------------------------
  Poissons Ratio (x)      =                     0.32256       0.32256
  Poissons Ratio (y)      =       0.32256                     0.32256
  Poissons Ratio (z)      =       0.32256       0.32256
-------------------------------------------------------------------------------


  Piezoelectric Strain Matrix: (Units=C/m**2)

-------------------------------------------------------------------------------
  Indices      1         2         3         4         5         6    
-------------------------------------------------------------------------------
       x    -0.00000   0.00000   0.00000  -0.00000  -0.00000   0.00000
       y    -0.00000   0.00000   0.00000  -0.00000  -0.00000  -0.00000
       z     0.00000   0.00000   0.00000   0.00000  -0.00000  -0.00000
-------------------------------------------------------------------------------


  Piezoelectric Stress Matrix: (Units=10**-11 C/N)

-------------------------------------------------------------------------------
  Indices      1         2         3         4         5         6    
-------------------------------------------------------------------------------
       x    -0.00000   0.00000   0.00000  -0.00000  -0.00000   0.00000
       y    -0.00000   0.00000   0.00000  -0.00000  -0.00000  -0.00000
       z    -0.00000  -0.00000   0.00000   0.00000  -0.00000  -0.00000
-------------------------------------------------------------------------------


  Static dielectric constant tensor : 

-------------------------------------------------------------------------------
              x         y         z
-------------------------------------------------------------------------------
       x    12.11703   0.00000  -0.00000
       y     0.00000  12.11703  -0.00000
       z    -0.00000  -0.00000  12.11703
--------------------------------------------------------------------------------

  High frequency dielectric constant tensor : 

-------------------------------------------------------------------------------
              x         y         z
-------------------------------------------------------------------------------
       x     1.74104   0.00000   0.00000
       y     0.00000   1.74104   0.00000
       z     0.00000   0.00000   1.74104
-------------------------------------------------------------------------------

  Static refractive indices : 

-------------------------------------------------------------------------------
    1 =    3.48095      2 =    3.48095      3 =    3.48095
-------------------------------------------------------------------------------

  High frequency refractive indices : 

-------------------------------------------------------------------------------
    1 =    1.31948      2 =    1.31948      3 =    1.31948
-------------------------------------------------------------------------------


  Time to end of optimisation =       0.0114 seconds

********************************************************************************
*  Defect calculation for configuration   1 :                                  *
********************************************************************************

  Total number of defects =      3

  Total charge on defect  =   1.00

  Defect centre is at   3.7229   0.0000   0.0000  Angs

  Region 1 radius =  20.0000      Number of ions =   3868

  Number of symmetry inequivalent region 1 ions  =    626

  Region 2 radius =  24.0000      Number of ions =   2880

  Number of symmetry inequivalent region 2a ions =    421

  Region 2a mode = 4 : screened electrostatics due to region 1 
                       neglect correction to region 1 forces from 2a
                       region 2a displacements based on defects only

  Region 2a ions will only interact with defects in region 1

  Vacancies:

--------------------------------------------------------------------------------
    Specification type     Symbol/Number         x          y          z
--------------------------------------------------------------------------------
    Cartesian                                0.000000   0.000000   0.000000
    Cartesian                                3.918873   0.000000   0.000000
--------------------------------------------------------------------------------

  Interstitials:

--------------------------------------------------------------------------------
    Specification type     Symbol/Number         x          y          z
--------------------------------------------------------------------------------
    Atom/Fractional         Cl               3.722929   0.000000   0.000000
--------------------------------------------------------------------------------


  Symmetry reduced region 1 (Relative to defect centre) :

--------------------------------------------------------------------------------
   No.   Atomic       x            y             z       Radius  Multiplicity   
         Label      (Angs)       (Angs)        (Angs)    (Angs)     
--------------------------------------------------------------------------------
     1  Li    c     -1.7626 *    -1.9603 *     0.0000    0.0000     4          
     2  Li    c      0.1977 *     1.9603 *     1.9603    0.0000     4          
     3  Li    c      2.1581 *    -1.9603 *     0.0000    0.0000     4          
     4  O     c     -1.7626 *    -1.9603 *    -1.9603    0.0000     4          
     5  O     c      2.1581 *    -1.9603 *    -1.9603    0.0000     4          
     6  Cl    c      0.1977 *     0.0000       3.9207 *  0.0000     4          
     7  Cl    c      4.1184 *     0.0000       0.0000    0.0000     1          
     8  Li    c     -3.7229 *     1.9603 *     1.9603    0.0000     4          
     9  Li    c     -1.7626 *    -1.9603 *     3.9207 *  0.0000     8          
    10  Li    c      2.1581 *    -1.9603 *     3.9207 *  0.0000     8          
    11  Li    c      4.1184 *     1.9603 *     1.9603    0.0000     4          
    12  Cl    c     -3.7229 *     0.0000       3.9207 *  0.0000     4          
    13  Cl    c      0.1977 *     3.9207 *     3.9207    0.0000     4          
    14  Cl    c      4.1184 *     0.0000       3.9207 *  0.0000     4          
    15  Li    c     -5.6833 *    -1.9603 *     0.0000    0.0000     4          
    16  Li    c     -1.7626 *     5.8810 *     0.0000    0.0000     4          
    17  Li    c      0.1977 *     1.9603 *     5.8810 *  0.0000     8          
    18  Li    c      2.1581 *     5.8810 *     0.0000    0.0000     4          
    19  O     c     -5.6833 *    -1.9603 *    -1.9603    0.0000     4          
    20  Li    c      6.0788 *    -1.9603 *     0.0000    0.0000     4          
    21  O     c     -1.7626 *    -1.9603 *     5.8810 *  0.0000     8          
    22  O     c      2.1581 *    -1.9603 *     5.8810 *  0.0000     8          
    23  Cl    c     -3.7229 *     3.9207 *     3.9207    0.0000     4          
    24  O     c      6.0788 *    -1.9603 *    -1.9603    0.0000     4          
    25  Cl    c      4.1184 *     3.9207 *     3.9207    0.0000     4          
    26  Cl    c      6.9528       0.0000       0.0000    0.0000     1    Defect
    27  Li    c     -5.6833 *    -1.9603 *     3.9207 *  0.0000     8          
    28  Li    c     -3.7229 *     1.9603 *     5.8810 *  0.0000     8          
    29  Li    c     -1.7626 *     5.8810 *     3.9207 *  0.0000     8          
    30  Li    c      2.1581 *     5.8810 *     3.9207 *  0.0000     8          
    31  Li    c      4.1184 *     1.9603 *     5.8810 *  0.0000     8          
    32  Li    c      6.0788 *    -1.9603 *     3.9207 *  0.0000     8          
    33  Cl    c     -7.6436 *     0.0000       0.0000    0.0000     1          
    34  Cl    c      0.1977 *     0.0000       7.8414 *  0.0000     4          
    35  Cl    c      8.0391 *     0.0000       0.0000    0.0000     1          
    36  Li    c     -7.6436 *     1.9603 *     1.9603    0.0000     4          
    37  Li    c     -5.6833 *     5.8810 *     0.0000    0.0000     4          
    38  Li    c     -1.7626 *    -1.9603 *     7.8414 *  0.0000     8          
    39  Li    c      0.1977 *     5.8810 *     5.8810    0.0000     4          
    40  Li    c      2.1581 *    -1.9603 *     7.8414 *  0.0000     8          
    41  O     c     -5.6833 *    -1.9603 *     5.8810 *  0.0000     8          
    42  Li    c      6.0788 *     5.8810 *     0.0000    0.0000     4          
    43  O     c     -1.7626 *     5.8810 *     5.8810    0.0000     4          
    44  Li    c      8.0391 *     1.9603 *     1.9603    0.0000     4          
    45  Cl    c     -7.6436 *     0.0000       3.9207 *  0.0000     4          
    46  O     c      2.1581 *     5.8810 *     5.8810    0.0000     4          
    47  Cl    c     -3.7229 *     0.0000       7.8414 *  0.0000     4          
    48  O     c      6.0788 *    -1.9603 *     5.8810 *  0.0000     8          
    49  Cl    c      0.1977 *     3.9207 *     7.8414 *  0.0000     8          
    50  Cl    c      4.1184 *     0.0000       7.8414 *  0.0000     4          
    51  Cl    c      8.0391 *     0.0000       3.9207 *  0.0000     4          
    52  Li    c     -5.6833 *     3.9207 *     5.8810 *  0.0000     8          
    53  Li    c     -3.7229 *     5.8810 *     5.8810    0.0000     4          
    54  Li    c      4.1184 *     5.8810 *     5.8810    0.0000     4          
    55  Li    c      6.0788 *     5.8810 *     3.9207 *  0.0000     8          
    56  Cl    c     -7.6436 *     3.9207 *     3.9207    0.0000     4          
    57  Cl    c     -3.7229 *     3.9207 *     7.8414 *  0.0000     8          
    58  Cl    c      4.1184 *     3.9207 *     7.8414 *  0.0000     8          
    59  Cl    c      8.0391 *     3.9207 *     3.9207    0.0000     4          
    60  Li    c     -9.6039 *    -1.9603 *     0.0000    0.0000     4          
    61  Li    c     -7.6436 *     1.9603 *     5.8810 *  0.0000     8          
    62  Li    c     -5.6833 *    -1.9603 *     7.8414 *  0.0000     8          
    63  Li    c     -1.7626 *     7.8414 *     5.8810 *  0.0000     8          
    64  Li    c     -1.7626 *     9.8017 *     0.0000    0.0000     4          
    65  O     c     -9.6039 *    -1.9603 *    -1.9603    0.0000     4          
    66  Li    c      0.1977 *     1.9603 *     9.8017 *  0.0000     8          
    67  Li    c      2.1581 *     5.8810 *     7.8414 *  0.0000     8          
    68  Li    c      2.1581 *     9.8017 *     0.0000    0.0000     4          
    69  O     c     -5.6833 *     5.8810 *     5.8810    0.0000     4          
    70  Li    c      6.0788 *    -1.9603 *     7.8414 *  0.0000     8          
    71  O     c     -1.7626 *    -1.9603 *     9.8017 *  0.0000     8          
    72  Li    c      8.0391 *     1.9603 *     5.8810 *  0.0000     8          
    73  Li    c      9.9994 *    -1.9603 *     0.0000    0.0000     4          
    74  O     c      2.1581 *    -1.9603 *     9.8017 *  0.0000     8          
    75  O     c      6.0788 *     5.8810 *     5.8810    0.0000     4          
    76  O     c      9.9994 *    -1.9603 *    -1.9603    0.0000     4          
    77  Li    c     -9.6039 *    -1.9603 *     3.9207 *  0.0000     8          
    78  Li    c     -3.7229 *     1.9603 *     9.8017 *  0.0000     8          
    79  Li    c     -1.7626 *     9.8017 *     3.9207 *  0.0000     8          
    80  Li    c      2.1581 *     3.9207 *     9.8017 *  0.0000     8          
    81  Li    c      4.1184 *     1.9603 *     9.8017 *  0.0000     8          
    82  Li    c      9.9994 *    -1.9603 *     3.9207 *  0.0000     8          
    83  Cl    c     -7.6436 *     0.0000       7.8414 *  0.0000     4          
    84  Cl    c      0.1977 *     7.8414 *     7.8414    0.0000     4          
    85  Cl    c      8.0391 *     0.0000       7.8414 *  0.0000     4          
    86  Li    c     -9.6039 *     5.8810 *     0.0000    0.0000     4          
    87  Li    c     -7.6436 *     5.8810 *     5.8810    0.0000     4          
    88  Li    c     -5.6833 *     5.8810 *     7.8414 *  0.0000     8          
    89  Li    c     -5.6833 *     9.8017 *     0.0000    0.0000     4          
    90  O     c     -9.6039 *    -1.9603 *     5.8810 *  0.0000     8          
    91  Li    c      0.1977 *     5.8810 *     9.8017 *  0.0000     8          
    92  O     c     -5.6833 *    -1.9603 *     9.8017 *  0.0000     8          
    93  Li    c      6.0788 *     5.8810 *     7.8414 *  0.0000     8          
    94  Li    c      6.0788 *     9.8017 *     0.0000    0.0000     4          
    95  Cl    c    -11.5643 *     0.0000       0.0000    0.0000     1          
    96  O     c     -1.7626 *     5.8810 *     9.8017 *  0.0000     8          
    97  Li    c      8.0391 *     5.8810 *     5.8810    0.0000     4          
    98  Li    c      9.9994 *     5.8810 *     0.0000    0.0000     4          
    99  Cl    c     -7.6436 *     3.9207 *     7.8414 *  0.0000     8          
   100  O     c      2.1581 *     5.8810 *     9.8017 *  0.0000     8          
   101  Cl    c     -3.7229 *     7.8414 *     7.8414    0.0000     4          
   102  O     c      6.0788 *     9.8017 *    -1.9603 *  0.0000     8          
   103  Cl    c      0.1977 *     0.0000      11.7620 *  0.0000     4          
   104  O     c      9.9994 *     5.8810 *    -1.9603 *  0.0000     8          
   105  Cl    c      4.1184 *     7.8414 *     7.8414    0.0000     4          
   106  Li    c    -11.5643 *     1.9603 *     1.9603    0.0000     4          
   107  Cl    c      8.0391 *     3.9207 *     7.8414 *  0.0000     8          
   108  Li    c     -9.6039 *     5.8810 *     3.9207 *  0.0000     8          
   109  Cl    c     11.9598 *     0.0000       0.0000    0.0000     1          
   110  Li    c     -5.6833 *     9.8017 *     3.9207 *  0.0000     8          
   111  Li    c     -3.7229 *     5.8810 *     9.8017 *  0.0000     8          
   112  Li    c     -1.7626 *    11.7620 *    -1.9603 *  0.0000     8          
   113  Li    c      2.1581 *    -1.9603 *    11.7620 *  0.0000     8          
   114  Li    c      4.1184 *     5.8810 *     9.8017 *  0.0000     8          
   115  Li    c      6.0788 *     9.8017 *     3.9207 *  0.0000     8          
   116  Cl    c    -11.5643 *     0.0000       3.9207 *  0.0000     4          
   117  Li    c      9.9994 *     5.8810 *     3.9207 *  0.0000     8          
   118  Li    c     11.9598 *     1.9603 *     1.9603    0.0000     4          
   119  Cl    c     -3.7229 *     0.0000      11.7620 *  0.0000     4          
   120  Cl    c      0.1977 *     3.9207 *    11.7620 *  0.0000     8          
   121  Cl    c      4.1184 *     0.0000      11.7620 *  0.0000     4          
   122  Li    c     -9.6039 *     7.8414 *    -1.9603 *  0.0000     8          
   123  Li    c     -7.6436 *     1.9603 *     9.8017 *  0.0000     8          
   124  Cl    c     11.9598 *     0.0000       3.9207 *  0.0000     4          
   125  Li    c     -1.7626 *     9.8017 *     7.8414 *  0.0000     8          
   126  O     c     -9.6039 *     5.8810 *     5.8810    0.0000     4          
   127  Li    c      2.1581 *     9.8017 *     7.8414 *  0.0000     8          
   128  O     c     -5.6833 *     5.8810 *     9.8017 *  0.0000     8          
   129  Cl    c    -11.5643 *     3.9207 *     3.9207    0.0000     4          
   130  Li    c      8.0391 *     1.9603 *     9.8017 *  0.0000     8          
   131  Li    c      9.9994 *    -1.9603 *     7.8414 *  0.0000     8          
   132  Cl    c     -3.7229 *     3.9207 *    11.7620 *  0.0000     8          
   133  O     c      6.0788 *     5.8810 *     9.8017 *  0.0000     8          
   134  O     c      9.9994 *     5.8810 *     5.8810    0.0000     4          
   135  Cl    c      4.1184 *    11.7620 *     3.9207 *  0.0000     8          
   136  Li    c    -11.5643 *     1.9603 *     5.8810 *  0.0000     8          
   137  Cl    c     11.9598 *     3.9207 *     3.9207    0.0000     4          
   138  Li    c     -5.6833 *    -1.9603 *    11.7620 *  0.0000     8          
   139  Li    c     -1.7626 *     5.8810 *    11.7620 *  0.0000     8          
   140  Li    c      2.1581 *     5.8810 *    11.7620 *  0.0000     8          
   141  Li    c      6.0788 *    -1.9603 *    11.7620 *  0.0000     8          
   142  Cl    c     -7.6436 *     7.8414 *     7.8414    0.0000     4          
   143  Li    c     11.9598 *     1.9603 *     5.8810 *  0.0000     8          
   144  Li    c    -13.5246 *    -1.9603 *     0.0000    0.0000     4          
   145  Cl    c      8.0391 *     7.8414 *     7.8414    0.0000     4          
   146  Li    c     -9.6039 *     5.8810 *     7.8414 *  0.0000     8          
   147  Li    c     -9.6039 *     9.8017 *     0.0000    0.0000     4          
   148  Li    c     -7.6436 *     5.8810 *     9.8017 *  0.0000     8          
   149  Li    c     -5.6833 *     9.8017 *     7.8414 *  0.0000     8          
   150  O     c    -13.5246 *    -1.9603 *    -1.9603    0.0000     4          
   151  Li    c     -1.7626 *    13.7224 *     0.0000    0.0000     4          
   152  O     c     -9.6039 *    -1.9603 *     9.8017 *  0.0000     8          
   153  Li    c      0.1977 *     1.9603 *    13.7224 *  0.0000     8          
   154  Li    c      0.1977 *     9.8017 *     9.8017    0.0000     4          
   155  Li    c      2.1581 *    13.7224 *     0.0000    0.0000     4          
   156  Li    c      6.0788 *     9.8017 *     7.8414 *  0.0000     8          
   157  Cl    c    -11.5643 *     0.0000       7.8414 *  0.0000     4          
   158  O     c     -1.7626 *    13.7224 *    -1.9603 *  0.0000     8          
   159  O     c     -1.7626 *     9.8017 *     9.8017    0.0000     4          
   160  Li    c      8.0391 *     5.8810 *     9.8017 *  0.0000     8          
   161  Li    c      9.9994 *     5.8810 *     7.8414 *  0.0000     8          
   162  Li    c      9.9994 *     9.8017 *     0.0000    0.0000     4          
   163  Cl    c     -7.6436 *     0.0000      11.7620 *  0.0000     4          
   164  O     c      2.1581 *    -1.9603 *    13.7224 *  0.0000     8          
   165  O     c      2.1581 *     9.8017 *     9.8017    0.0000     4          
   166  Li    c     13.9201 *    -1.9603 *     0.0000    0.0000     4          
   167  Cl    c      0.1977 *     7.8414 *    11.7620 *  0.0000     8          
   168  O     c      9.9994 *     9.8017 *    -1.9603 *  0.0000     8          
   169  O     c     13.9201 *    -1.9603 *    -1.9603    0.0000     4          
   170  Li    c    -13.5246 *    -1.9603 *     3.9207 *  0.0000     8          
   171  Li    c    -11.5643 *     5.8810 *     5.8810    0.0000     4          
   172  Cl    c      8.0391 *     0.0000      11.7620 *  0.0000     4          
   173  Li    c     -9.6039 *     9.8017 *     3.9207 *  0.0000     8          
   174  Cl    c     11.9598 *     0.0000       7.8414 *  0.0000     4          
   175  Li    c     -5.6833 *     5.8810 *    11.7620 *  0.0000     8          
   176  Li    c     -3.7229 *     1.9603 *    13.7224 *  0.0000     8          
   177  Li    c     -3.7229 *     9.8017 *     9.8017    0.0000     4          
   178  Li    c     -1.7626 *    13.7224 *     3.9207 *  0.0000     8          
   179  Li    c      2.1581 *    13.7224 *     3.9207 *  0.0000     8          
   180  Li    c      4.1184 *    13.7224 *     1.9603 *  0.0000     8          
   181  Li    c      4.1184 *     9.8017 *     9.8017    0.0000     4          
   182  Li    c      6.0788 *     5.8810 *    11.7620 *  0.0000     8          
   183  Cl    c    -11.5643 *     3.9207 *     7.8414 *  0.0000     8          
   184  Li    c      9.9994 *     9.8017 *     3.9207 *  0.0000     8          
   185  Cl    c     -7.6436 *     3.9207 *    11.7620 *  0.0000     8          
   186  Li    c     11.9598 *     5.8810 *     5.8810    0.0000     4          
   187  Li    c     13.9201 *    -1.9603 *     3.9207 *  0.0000     8          
   188  Cl    c     -3.7229 *     7.8414 *    11.7620 *  0.0000     8          
   189  Cl    c      4.1184 *    11.7620 *     7.8414 *  0.0000     8          
   190  Li    c    -13.5246 *     5.8810 *     0.0000    0.0000     4          
   191  Cl    c      8.0391 *    11.7620 *     3.9207 *  0.0000     8          
   192  Cl    c     11.9598 *     3.9207 *     7.8414 *  0.0000     8          
   193  Li    c     -5.6833 *    13.7224 *     0.0000    0.0000     4          
   194  O     c    -13.5246 *    -1.9603 *     5.8810 *  0.0000     8          
   195  O     c     -9.6039 *     5.8810 *     9.8017 *  0.0000     8          
   196  Li    c      0.1977 *     5.8810 *    13.7224 *  0.0000     8          
   197  O     c     -5.6833 *    -1.9603 *    13.7224 *  0.0000     8          
   198  O     c     -5.6833 *     9.8017 *     9.8017    0.0000     4          
   199  Li    c      6.0788 *    13.7224 *     0.0000    0.0000     4          
   200  O     c     -1.7626 *    13.7224 *     5.8810 *  0.0000     8          
   201  O     c      2.1581 *     5.8810 *    13.7224 *  0.0000     8          
   202  Li    c     13.9201 *     5.8810 *     0.0000    0.0000     4          
   203  O     c      6.0788 *    13.7224 *    -1.9603 *  0.0000     8          
   204  O     c      6.0788 *     9.8017 *     9.8017    0.0000     4          
   205  O     c      9.9994 *     5.8810 *     9.8017 *  0.0000     8          
   206  O     c     13.9201 *    -1.9603 *     5.8810 *  0.0000     8          
   207  Li    c    -13.5246 *     5.8810 *     3.9207 *  0.0000     8          
   208  Li    c    -11.5643 *     1.9603 *     9.8017 *  0.0000     8          
   209  Li    c     -9.6039 *    11.7620 *    -1.9603 *  0.0000     8          
   210  Li    c     -5.6833 *    13.7224 *     3.9207 *  0.0000     8          
   211  Li    c     -3.7229 *     5.8810 *    13.7224 *  0.0000     8          
   212  Li    c     -1.7626 *     9.8017 *    11.7620 *  0.0000     8          
   213  Li    c      2.1581 *     9.8017 *    11.7620 *  0.0000     8          
   214  Cl    c    -15.4850 *     0.0000       0.0000    0.0000     1          
   215  Li    c      4.1184 *     5.8810 *    13.7224 *  0.0000     8          
   216  Li    c      6.0788 *    13.7224 *     3.9207 *  0.0000     8          
   217  Li    c      9.9994 *    -1.9603 *    11.7620 *  0.0000     8          
   218  Li    c     11.9598 *     1.9603 *     9.8017 *  0.0000     8          
   219  Li    c     13.9201 *     5.8810 *     3.9207 *  0.0000     8          
   220  Cl    c      0.1977 *     0.0000      15.6827 *  0.0000     4          
   221  Li    c    -15.4850 *     1.9603 *     1.9603    0.0000     4          
   222  Li    c    -13.5246 *    -1.9603 *     7.8414 *  0.0000     8          
   223  Li    c     -9.6039 *     9.8017 *     7.8414 *  0.0000     8          
   224  Li    c     -7.6436 *     1.9603 *    13.7224 *  0.0000     8          
   225  Li    c     -7.6436 *     9.8017 *     9.8017    0.0000     4          
   226  O     c    -13.5246 *     5.8810 *     5.8810    0.0000     4          
   227  Cl    c     15.8804 *     0.0000       0.0000    0.0000     1          
   228  Li    c     -1.7626 *    15.6827 *    -1.9603 *  0.0000     8          
   229  Li    c     -1.7626 *    13.7224 *     7.8414 *  0.0000     8          
   230  Li    c      2.1581 *    -1.9603 *    15.6827 *  0.0000     8          
   231  Li    c      2.1581 *    13.7224 *     7.8414 *  0.0000     8          
   232  Cl    c    -15.4850 *     0.0000       3.9207 *  0.0000     4          
   233  O     c     -5.6833 *     5.8810 *    13.7224 *  0.0000     8          
   234  Cl    c    -11.5643 *     7.8414 *     7.8414    0.0000     4          
   235  Li    c      8.0391 *     1.9603 *    13.7224 *  0.0000     8          
   236  Li    c      8.0391 *     9.8017 *     9.8017    0.0000     4          
   237  Li    c      9.9994 *     9.8017 *     7.8414 *  0.0000     8          
   238  Cl    c     -7.6436 *     7.8414 *    11.7620 *  0.0000     8          
   239  Li    c     13.9201 *    -1.9603 *     7.8414 *  0.0000     8          
   240  Cl    c     -3.7229 *     0.0000      15.6827 *  0.0000     4          
   241  O     c      6.0788 *     5.8810 *    13.7224 *  0.0000     8          
   242  Li    c     15.8804 *     1.9603 *     1.9603    0.0000     4          
   243  Cl    c      0.1977 *     3.9207 *    15.6827 *  0.0000     8          
   244  Cl    c      4.1184 *     0.0000      15.6827 *  0.0000     4          
   245  O     c     13.9201 *     5.8810 *     5.8810    0.0000     4          
   246  Li    c    -11.5643 *     5.8810 *     9.8017 *  0.0000     8          
   247  Cl    c      8.0391 *     7.8414 *    11.7620 *  0.0000     8          
   248  Li    c     -9.6039 *     5.8810 *    11.7620 *  0.0000     8          
   249  Cl    c     11.9598 *     7.8414 *     7.8414    0.0000     4          
   250  Li    c     -5.6833 *     9.8017 *    11.7620 *  0.0000     8          
   251  Cl    c     15.8804 *     0.0000       3.9207 *  0.0000     4          
   252  Cl    c    -15.4850 *     3.9207 *     3.9207    0.0000     4          
   253  Li    c      6.0788 *     9.8017 *    11.7620 *  0.0000     8          
   254  Cl    c    -11.5643 *     0.0000      11.7620 *  0.0000     4          
   255  Li    c      9.9994 *     5.8810 *    11.7620 *  0.0000     8          
   256  Li    c     11.9598 *     5.8810 *     9.8017 *  0.0000     8          
   257  Cl    c     -3.7229 *     3.9207 *    15.6827 *  0.0000     8          
   258  Cl    c      0.1977 *    11.7620 *    11.7620    0.0000     4          
   259  Li    c    -15.4850 *     1.9603 *     5.8810 *  0.0000     8          
   260  Cl    c      4.1184 *     3.9207 *    15.6827 *  0.0000     8          
   261  Li    c    -13.5246 *     5.8810 *     7.8414 *  0.0000     8          
   262  Li    c    -13.5246 *     9.8017 *     0.0000    0.0000     4          
   263  Li    c     -9.6039 *    13.7224 *     0.0000    0.0000     4          
   264  Li    c     -7.6436 *     5.8810 *    13.7224 *  0.0000     8          
   265  Cl    c     11.9598 *     0.0000      11.7620 *  0.0000     4          
   266  Li    c     -5.6833 *    -1.9603 *    15.6827 *  0.0000     8          
   267  Li    c     -5.6833 *    13.7224 *     7.8414 *  0.0000     8          
   268  O     c    -13.5246 *    -1.9603 *     9.8017 *  0.0000     8          
   269  Cl    c     15.8804 *     3.9207 *     3.9207    0.0000     4          
   270  Li    c     -1.7626 *     5.8810 *    15.6827 *  0.0000     8          
   271  O     c     -9.6039 *    -1.9603 *    13.7224 *  0.0000     8          
   272  O     c     -9.6039 *     9.8017 *     9.8017    0.0000     4          
   273  Li    c      0.1977 *     9.8017 *    13.7224 *  0.0000     8          
   274  Li    c      2.1581 *     5.8810 *    15.6827 *  0.0000     8          
   275  Li    c      6.0788 *    -1.9603 *    15.6827 *  0.0000     8          
   276  Li    c      6.0788 *    13.7224 *     7.8414 *  0.0000     8          
   277  Cl    c    -11.5643 *     3.9207 *    11.7620 *  0.0000     8          
   278  O     c     -1.7626 *     9.8017 *    13.7224 *  0.0000     8          
   279  Li    c      8.0391 *     5.8810 *    13.7224 *  0.0000     8          
   280  Li    c      9.9994 *    13.7224 *     0.0000    0.0000     4          
   281  O     c      2.1581 *     9.8017 *    13.7224 *  0.0000     8          
   282  Li    c     13.9201 *     5.8810 *     7.8414 *  0.0000     8          
   283  Li    c     13.9201 *     9.8017 *     0.0000    0.0000     4          
   284  Cl    c     -3.7229 *    11.7620 *    11.7620    0.0000     4          
   285  Li    c     15.8804 *     1.9603 *     5.8810 *  0.0000     8          
   286  O     c      9.9994 *    -1.9603 *    13.7224 *  0.0000     8          
   287  O     c      9.9994 *     9.8017 *     9.8017    0.0000     4          
   288  Cl    c      4.1184 *    11.7620 *    11.7620    0.0000     4          
   289  O     c     13.9201 *    -1.9603 *     9.8017 *  0.0000     8          
   290  Li    c    -13.5246 *     3.9207 *     9.8017 *  0.0000     8          
   291  Li    c     -9.6039 *    13.7224 *     3.9207 *  0.0000     8          
   292  Cl    c     11.9598 *     3.9207 *    11.7620 *  0.0000     8          
   293  Li    c     -3.7229 *     9.8017 *    13.7224 *  0.0000     8          
   294  Cl    c    -15.4850 *     0.0000       7.8414 *  0.0000     4          
   295  Li    c      4.1184 *     9.8017 *    13.7224 *  0.0000     8          
   296  Li    c      9.9994 *    13.7224 *     3.9207 *  0.0000     8          
   297  Cl    c     -7.6436 *     0.0000      15.6827 *  0.0000     4          
   298  Li    c     13.9201 *     3.9207 *     9.8017 *  0.0000     8          
   299  Cl    c      0.1977 *     7.8414 *    15.6827 *  0.0000     8          
   300  Li    c    -17.4453 *    -1.9603 *     0.0000    0.0000     4          
   301  Li    c    -15.4850 *     5.8810 *     5.8810    0.0000     4          
   302  Cl    c      8.0391 *     0.0000      15.6827 *  0.0000     4          
   303  O     c    -17.4453 *    -1.9603 *    -1.9603    0.0000     4          
   304  Li    c     -5.6833 *     5.8810 *    15.6827 *  0.0000     8          
   305  O     c    -13.5246 *     5.8810 *     9.8017 *  0.0000     8          
   306  Cl    c     15.8804 *     0.0000       7.8414 *  0.0000     4          
   307  Li    c     -1.7626 *    17.6430 *     0.0000    0.0000     4          
   308  O     c     -9.6039 *     5.8810 *    13.7224 *  0.0000     8          
   309  Li    c      0.1977 *     1.9603 *    17.6430 *  0.0000     8          
   310  Li    c      2.1581 *    17.6430 *     0.0000    0.0000     4          
   311  Cl    c    -15.4850 *     3.9207 *     7.8414 *  0.0000     8          
   312  O     c     -5.6833 *     9.8017 *    13.7224 *  0.0000     8          
   313  Li    c      6.0788 *     5.8810 *    15.6827 *  0.0000     8          
   314  O     c     -1.7626 *    -1.9603 *    17.6430 *  0.0000     8          
   315  Cl    c     -7.6436 *     3.9207 *    15.6827 *  0.0000     8          
   316  O     c      2.1581 *    17.6430 *    -1.9603 *  0.0000     8          
   317  Cl    c     -3.7229 *     7.8414 *    15.6827 *  0.0000     8          
   318  O     c      6.0788 *     9.8017 *    13.7224 *  0.0000     8          
   319  Li    c     15.8804 *     5.8810 *     5.8810    0.0000     4          
   320  Li    c     17.8408 *    -1.9603 *     0.0000    0.0000     4          
   321  O     c      9.9994 *     5.8810 *    13.7224 *  0.0000     8          
   322  Li    c    -17.4453 *    -1.9603 *     3.9207 *  0.0000     8          
   323  Cl    c      4.1184 *     7.8414 *    15.6827 *  0.0000     8          
   324  O     c     13.9201 *     5.8810 *     9.8017 *  0.0000     8          
   325  Li    c    -13.5246 *    11.7620 *    -1.9603 *  0.0000     8          
   326  Li    c    -11.5643 *    13.7224 *     1.9603 *  0.0000     8          
   327  Li    c    -11.5643 *     9.8017 *     9.8017    0.0000     4          
   328  Cl    c      8.0391 *     3.9207 *    15.6827 *  0.0000     8          
   329  O     c     17.8408 *    -1.9603 *    -1.9603    0.0000     4          
   330  Li    c     -9.6039 *     9.8017 *    11.7620 *  0.0000     8          
   331  Li    c     -3.7229 *     1.9603 *    17.6430 *  0.0000     8          
   332  Cl    c     15.8804 *     3.9207 *     7.8414 *  0.0000     8          
   333  Li    c     -1.7626 *    13.7224 *    11.7620 *  0.0000     8          
   334  Li    c     -1.7626 *     3.9207 *    17.6430 *  0.0000     8          
   335  Li    c      2.1581 *    13.7224 *    11.7620 *  0.0000     8          
   336  Li    c      2.1581 *    17.6430 *     3.9207 *  0.0000     8          
   337  Li    c      4.1184 *     1.9603 *    17.6430 *  0.0000     8          
   338  Cl    c    -11.5643 *     7.8414 *    11.7620 *  0.0000     8          
   339  Li    c      9.9994 *     9.8017 *    11.7620 *  0.0000     8          
   340  Cl    c     -7.6436 *    11.7620 *    11.7620    0.0000     4          
   341  Li    c     11.9598 *     1.9603 *    13.7224 *  0.0000     8          
   342  Li    c     11.9598 *     9.8017 *     9.8017    0.0000     4          
   343  Li    c     13.9201 *    -1.9603 *    11.7620 *  0.0000     8          
   344  Li    c     17.8408 *    -1.9603 *     3.9207 *  0.0000     8          
   345  Li    c    -17.4453 *     5.8810 *     0.0000    0.0000     4          
   346  Li    c    -15.4850 *     1.9603 *     9.8017 *  0.0000     8          
   347  Li    c    -13.5246 *     7.8414 *     9.8017 *  0.0000     8          
   348  Cl    c      8.0391 *    11.7620 *    11.7620    0.0000     4          
   349  Li    c     -9.6039 *    -1.9603 *    15.6827 *  0.0000     8          
   350  Li    c     -9.6039 *    13.7224 *     7.8414 *  0.0000     8          
   351  O     c    -17.4453 *    -1.9603 *     5.8810 *  0.0000     8          
   352  Li    c     -7.6436 *     9.8017 *    13.7224 *  0.0000     8          
   353  Cl    c     11.9598 *     7.8414 *    11.7620 *  0.0000     8          
   354  Li    c     -5.6833 *    17.6430 *     0.0000    0.0000     4          
   355  Li    c     -1.7626 *    15.6827 *     9.8017 *  0.0000     8          
   356  Li    c      0.1977 *     5.8810 *    17.6430 *  0.0000     8          
   357  Li    c      2.1581 *     9.8017 *    15.6827 *  0.0000     8          
   358  O     c     -5.6833 *    17.6430 *    -1.9603 *  0.0000     8          
   359  Li    c      6.0788 *    17.6430 *     0.0000    0.0000     4          
   360  O     c     -1.7626 *     5.8810 *    17.6430 *  0.0000     8          
   361  Li    c      8.0391 *     9.8017 *    13.7224 *  0.0000     8          
   362  Li    c      9.9994 *    15.6827 *    -1.9603 *  0.0000     8          
   363  Li    c      9.9994 *    13.7224 *     7.8414 *  0.0000     8          
   364  O     c      2.1581 *    17.6430 *     5.8810 *  0.0000     8          
   365  Li    c     13.9201 *     7.8414 *     9.8017 *  0.0000     8          
   366  O     c      6.0788 *    -1.9603 *    17.6430 *  0.0000     8          
   367  Li    c     15.8804 *     9.8017 *     1.9603 *  0.0000     8          
   368  Li    c     17.8408 *     5.8810 *     0.0000    0.0000     4          
   369  Li    c    -17.4453 *     3.9207 *     5.8810 *  0.0000     8          
   370  Li    c    -13.5246 *    11.7620 *     5.8810 *  0.0000     8          
   371  Li    c    -11.5643 *    13.7224 *     5.8810 *  0.0000     8          
   372  O     c     17.8408 *    -1.9603 *     5.8810 *  0.0000     8          
   373  Li    c     -5.6833 *    13.7224 *    11.7620 *  0.0000     8          
   374  Li    c     -5.6833 *    17.6430 *     3.9207 *  0.0000     8          
   375  Li    c     -3.7229 *     5.8810 *    17.6430 *  0.0000     8          
   376  Cl    c    -15.4850 *     7.8414 *     7.8414    0.0000     4          
   377  Li    c      4.1184 *     5.8810 *    17.6430 *  0.0000     8          
   378  Li    c      6.0788 *    13.7224 *    11.7620 *  0.0000     8          
   379  Li    c      6.0788 *    17.6430 *     3.9207 *  0.0000     8          
   380  Cl    c     -7.6436 *     7.8414 *    15.6827 *  0.0000     8          
   381  Li    c     11.9598 *     5.8810 *    13.7224 *  0.0000     8          
   382  Li    c     13.9201 *     5.8810 *    11.7620 *  0.0000     8          
   383  Li    c     17.8408 *     3.9207 *     5.8810 *  0.0000     8          
   384  Li    c    -17.4453 *    -1.9603 *     7.8414 *  0.0000     8          
   385  Li    c    -15.4850 *     5.8810 *     9.8017 *  0.0000     8          
   386  Li    c    -13.5246 *    13.7224 *     0.0000    0.0000     4          
   387  Cl    c      8.0391 *     7.8414 *    15.6827 *  0.0000     8          
   388  Li    c     -9.6039 *     5.8810 *    15.6827 *  0.0000     8          
   389  O     c    -17.4453 *     5.8810 *     5.8810    0.0000     4          
   390  Li    c     -7.6436 *     1.9603 *    17.6430 *  0.0000     8          
   391  Li    c     -5.6833 *     9.8017 *    15.6827 *  0.0000     8          
   392  O     c    -13.5246 *    -1.9603 *    13.7224 *  0.0000     8          
   393  O     c    -13.5246 *     9.8017 *     9.8017    0.0000     4          
   394  Cl    c     15.8804 *     7.8414 *     7.8414    0.0000     4          
   395  Li    c     -1.7626 *     7.8414 *    17.6430 *  0.0000     8          
   396  Cl    c    -19.4056 *     0.0000       0.0000    0.0000     1          
   397  O     c     -9.6039 *     9.8017 *    13.7224 *  0.0000     8          
   398  Li    c      0.1977 *    13.7224 *    13.7224    0.0000     4          
   399  Li    c      2.1581 *    17.6430 *     7.8414 *  0.0000     8          
   400  Cl    c    -15.4850 *     0.0000      11.7620 *  0.0000     4          
   401  O     c     -5.6833 *    17.6430 *     5.8810 *  0.0000     8          
   402  Li    c      6.0788 *     9.8017 *    15.6827 *  0.0000     8          
   403  Cl    c    -11.5643 *     0.0000      15.6827 *  0.0000     4          
   404  O     c     -1.7626 *    13.7224 *    13.7224    0.0000     4          
   405  Li    c      8.0391 *     1.9603 *    17.6430 *  0.0000     8          
   406  Li    c      9.9994 *     5.8810 *    15.6827 *  0.0000     8          
   407  O     c      2.1581 *    13.7224 *    13.7224    0.0000     4          
   408  Li    c     13.9201 *    13.7224 *     0.0000    0.0000     4          
   409  O     c      6.0788 *     5.8810 *    17.6430 *  0.0000     8          
   410  Li    c     15.8804 *     5.8810 *     9.8017 *  0.0000     8          
   411  Li    c     17.8408 *    -1.9603 *     7.8414 *  0.0000     8          
   412  Li    c    -19.4056 *     1.9603 *     1.9603    0.0000     4          
   413  Cl    c      0.1977 *    11.7620 *    15.6827 *  0.0000     8          
   414  Cl    c      0.1977 *     0.0000      19.6034 *  0.0000     4          
   415  O     c      9.9994 *     9.8017 *    13.7224 *  0.0000     8          
   416  O     c     13.9201 *    -1.9603 *    13.7224 *  0.0000     8          
   417  O     c     13.9201 *     9.8017 *     9.8017    0.0000     4          
   418  Li    c    -13.5246 *     3.9207 *    13.7224 *  0.0000     8          
   419  O     c     17.8408 *     5.8810 *     5.8810    0.0000     4          
   420  Cl    c     11.9598 *     0.0000      15.6827 *  0.0000     4          
   421  Li    c     -3.7229 *    13.7224 *    13.7224    0.0000     4          
   422  Cl    c     15.8804 *     0.0000      11.7620 *  0.0000     4          
   423  Li    c     -1.7626 *    -1.9603 *    19.6034 *  0.0000     8          
   424  Cl    c    -19.4056 *     0.0000       3.9207 *  0.0000     4          
   425  Cl    c     19.8011 *     0.0000       0.0000    0.0000     1          
   426  Li    c      2.1581 *    19.6034 *    -1.9603 *  0.0000     8          
   427  Cl    c    -15.4850 *     3.9207 *    11.7620 *  0.0000     8          
   428  Li    c      4.1184 *    13.7224 *    13.7224    0.0000     4          
   429  Cl    c    -11.5643 *     3.9207 *    15.6827 *  0.0000     8          
   430  Li    c     13.9201 *     3.9207 *    13.7224 *  0.0000     8          
   431  Cl    c     -3.7229 *    15.6827 *    11.7620 *  0.0000     8          
   432  Cl    c     -3.7229 *     0.0000      19.6034 *  0.0000     4          
   433  Cl    c      0.1977 *     3.9207 *    19.6034 *  0.0000     8          
   434  Li    c     19.8011 *     1.9603 *     1.9603    0.0000     4          
   435  O     s     -1.7626 *    -1.9603 *    -1.9603    0.0000     4          
   436  O     s      2.1581 *    -1.9603 *    -1.9603    0.0000     4          
   437  Cl    s      0.1977 *     0.0000       3.9207 *  0.0000     4          
   438  Cl    s      4.1184 *     0.0000       0.0000    0.0000     1          
   439  Cl    s     -3.7229 *     0.0000       3.9207 *  0.0000     4          
   440  Cl    s      0.1977 *     3.9207 *     3.9207    0.0000     4          
   441  Cl    s      4.1184 *     0.0000       3.9207 *  0.0000     4          
   442  O     s     -5.6833 *    -1.9603 *    -1.9603    0.0000     4          
   443  O     s     -1.7626 *    -1.9603 *     5.8810 *  0.0000     8          
   444  O     s      2.1581 *    -1.9603 *     5.8810 *  0.0000     8          
   445  Cl    s     -3.7229 *     3.9207 *     3.9207    0.0000     4          
   446  O     s      6.0788 *    -1.9603 *    -1.9603    0.0000     4          
   447  Cl    s      4.1184 *     3.9207 *     3.9207    0.0000     4          
   448  Cl    s      6.9528       0.0000       0.0000    0.0000     1    Defect
   449  Cl    s     -7.6436 *     0.0000       0.0000    0.0000     1          
   450  Cl    s      0.1977 *     0.0000       7.8414 *  0.0000     4          
   451  Cl    s      8.0391 *     0.0000       0.0000    0.0000     1          
   452  O     s     -5.6833 *    -1.9603 *     5.8810 *  0.0000     8          
   453  O     s     -1.7626 *     5.8810 *     5.8810    0.0000     4          
   454  Cl    s     -7.6436 *     0.0000       3.9207 *  0.0000     4          
   455  O     s      2.1581 *     5.8810 *     5.8810    0.0000     4          
   456  Cl    s     -3.7229 *     0.0000       7.8414 *  0.0000     4          
   457  O     s      6.0788 *    -1.9603 *     5.8810 *  0.0000     8          
   458  Cl    s      0.1977 *     3.9207 *     7.8414 *  0.0000     8          
   459  Cl    s      4.1184 *     0.0000       7.8414 *  0.0000     4          
   460  Cl    s      8.0391 *     0.0000       3.9207 *  0.0000     4          
   461  Cl    s     -7.6436 *     3.9207 *     3.9207    0.0000     4          
   462  Cl    s     -3.7229 *     3.9207 *     7.8414 *  0.0000     8          
   463  Cl    s      4.1184 *     3.9207 *     7.8414 *  0.0000     8          
   464  Cl    s      8.0391 *     3.9207 *     3.9207    0.0000     4          
   465  O     s     -9.6039 *    -1.9603 *    -1.9603    0.0000     4          
   466  O     s     -5.6833 *     5.8810 *     5.8810    0.0000     4          
   467  O     s     -1.7626 *    -1.9603 *     9.8017 *  0.0000     8          
   468  O     s      2.1581 *    -1.9603 *     9.8017 *  0.0000     8          
   469  O     s      6.0788 *     5.8810 *     5.8810    0.0000     4          
   470  O     s      9.9994 *    -1.9603 *    -1.9603    0.0000     4          
   471  Cl    s     -7.6436 *     0.0000       7.8414 *  0.0000     4          
   472  Cl    s      0.1977 *     7.8414 *     7.8414    0.0000     4          
   473  Cl    s      8.0391 *     0.0000       7.8414 *  0.0000     4          
   474  O     s     -9.6039 *    -1.9603 *     5.8810 *  0.0000     8          
   475  O     s     -5.6833 *    -1.9603 *     9.8017 *  0.0000     8          
   476  Cl    s    -11.5643 *     0.0000       0.0000    0.0000     1          
   477  O     s     -1.7626 *     5.8810 *     9.8017 *  0.0000     8          
   478  Cl    s     -7.6436 *     3.9207 *     7.8414 *  0.0000     8          
   479  O     s      2.1581 *     5.8810 *     9.8017 *  0.0000     8          
   480  Cl    s     -3.7229 *     7.8414 *     7.8414    0.0000     4          
   481  O     s      6.0788 *     9.8017 *    -1.9603 *  0.0000     8          
   482  Cl    s      0.1977 *     0.0000      11.7620 *  0.0000     4          
   483  O     s      9.9994 *     5.8810 *    -1.9603 *  0.0000     8          
   484  Cl    s      4.1184 *     7.8414 *     7.8414    0.0000     4          
   485  Cl    s      8.0391 *     3.9207 *     7.8414 *  0.0000     8          
   486  Cl    s     11.9598 *     0.0000       0.0000    0.0000     1          
   487  Cl    s    -11.5643 *     0.0000       3.9207 *  0.0000     4          
   488  Cl    s     -3.7229 *     0.0000      11.7620 *  0.0000     4          
   489  Cl    s      0.1977 *     3.9207 *    11.7620 *  0.0000     8          
   490  Cl    s      4.1184 *     0.0000      11.7620 *  0.0000     4          
   491  Cl    s     11.9598 *     0.0000       3.9207 *  0.0000     4          
   492  O     s     -9.6039 *     5.8810 *     5.8810    0.0000     4          
   493  O     s     -5.6833 *     5.8810 *     9.8017 *  0.0000     8          
   494  Cl    s    -11.5643 *     3.9207 *     3.9207    0.0000     4          
   495  Cl    s     -3.7229 *     3.9207 *    11.7620 *  0.0000     8          
   496  O     s      6.0788 *     5.8810 *     9.8017 *  0.0000     8          
   497  O     s      9.9994 *     5.8810 *     5.8810    0.0000     4          
   498  Cl    s      4.1184 *    11.7620 *     3.9207 *  0.0000     8          
   499  Cl    s     11.9598 *     3.9207 *     3.9207    0.0000     4          
   500  Cl    s     -7.6436 *     7.8414 *     7.8414    0.0000     4          
   501  Cl    s      8.0391 *     7.8414 *     7.8414    0.0000     4          
   502  O     s    -13.5246 *    -1.9603 *    -1.9603    0.0000     4          
   503  O     s     -9.6039 *    -1.9603 *     9.8017 *  0.0000     8          
   504  Cl    s    -11.5643 *     0.0000       7.8414 *  0.0000     4          
   505  O     s     -1.7626 *    13.7224 *    -1.9603 *  0.0000     8          
   506  O     s     -1.7626 *     9.8017 *     9.8017    0.0000     4          
   507  Cl    s     -7.6436 *     0.0000      11.7620 *  0.0000     4          
   508  O     s      2.1581 *    -1.9603 *    13.7224 *  0.0000     8          
   509  O     s      2.1581 *     9.8017 *     9.8017    0.0000     4          
   510  Cl    s      0.1977 *     7.8414 *    11.7620 *  0.0000     8          
   511  O     s      9.9994 *     9.8017 *    -1.9603 *  0.0000     8          
   512  O     s     13.9201 *    -1.9603 *    -1.9603    0.0000     4          
   513  Cl    s      8.0391 *     0.0000      11.7620 *  0.0000     4          
   514  Cl    s     11.9598 *     0.0000       7.8414 *  0.0000     4          
   515  Cl    s    -11.5643 *     3.9207 *     7.8414 *  0.0000     8          
   516  Cl    s     -7.6436 *     3.9207 *    11.7620 *  0.0000     8          
   517  Cl    s     -3.7229 *     7.8414 *    11.7620 *  0.0000     8          
   518  Cl    s      4.1184 *    11.7620 *     7.8414 *  0.0000     8          
   519  Cl    s      8.0391 *    11.7620 *     3.9207 *  0.0000     8          
   520  Cl    s     11.9598 *     3.9207 *     7.8414 *  0.0000     8          
   521  O     s    -13.5246 *    -1.9603 *     5.8810 *  0.0000     8          
   522  O     s     -9.6039 *     5.8810 *     9.8017 *  0.0000     8          
   523  O     s     -5.6833 *    -1.9603 *    13.7224 *  0.0000     8          
   524  O     s     -5.6833 *     9.8017 *     9.8017    0.0000     4          
   525  O     s     -1.7626 *    13.7224 *     5.8810 *  0.0000     8          
   526  O     s      2.1581 *     5.8810 *    13.7224 *  0.0000     8          
   527  O     s      6.0788 *    13.7224 *    -1.9603 *  0.0000     8          
   528  O     s      6.0788 *     9.8017 *     9.8017    0.0000     4          
   529  O     s      9.9994 *     5.8810 *     9.8017 *  0.0000     8          
   530  O     s     13.9201 *    -1.9603 *     5.8810 *  0.0000     8          
   531  Cl    s    -15.4850 *     0.0000       0.0000    0.0000     1          
   532  Cl    s      0.1977 *     0.0000      15.6827 *  0.0000     4          
   533  O     s    -13.5246 *     5.8810 *     5.8810    0.0000     4          
   534  Cl    s     15.8804 *     0.0000       0.0000    0.0000     1          
   535  Cl    s    -15.4850 *     0.0000       3.9207 *  0.0000     4          
   536  O     s     -5.6833 *     5.8810 *    13.7224 *  0.0000     8          
   537  Cl    s    -11.5643 *     7.8414 *     7.8414    0.0000     4          
   538  Cl    s     -7.6436 *     7.8414 *    11.7620 *  0.0000     8          
   539  Cl    s     -3.7229 *     0.0000      15.6827 *  0.0000     4          
   540  O     s      6.0788 *     5.8810 *    13.7224 *  0.0000     8          
   541  Cl    s      0.1977 *     3.9207 *    15.6827 *  0.0000     8          
   542  Cl    s      4.1184 *     0.0000      15.6827 *  0.0000     4          
   543  O     s     13.9201 *     5.8810 *     5.8810    0.0000     4          
   544  Cl    s      8.0391 *     7.8414 *    11.7620 *  0.0000     8          
   545  Cl    s     11.9598 *     7.8414 *     7.8414    0.0000     4          
   546  Cl    s     15.8804 *     0.0000       3.9207 *  0.0000     4          
   547  Cl    s    -15.4850 *     3.9207 *     3.9207    0.0000     4          
   548  Cl    s    -11.5643 *     0.0000      11.7620 *  0.0000     4          
   549  Cl    s     -3.7229 *     3.9207 *    15.6827 *  0.0000     8          
   550  Cl    s      0.1977 *    11.7620 *    11.7620    0.0000     4          
   551  Cl    s      4.1184 *     3.9207 *    15.6827 *  0.0000     8          
   552  Cl    s     11.9598 *     0.0000      11.7620 *  0.0000     4          
   553  O     s    -13.5246 *    -1.9603 *     9.8017 *  0.0000     8          
   554  Cl    s     15.8804 *     3.9207 *     3.9207    0.0000     4          
   555  O     s     -9.6039 *    -1.9603 *    13.7224 *  0.0000     8          
   556  O     s     -9.6039 *     9.8017 *     9.8017    0.0000     4          
   557  Cl    s    -11.5643 *     3.9207 *    11.7620 *  0.0000     8          
   558  O     s     -1.7626 *     9.8017 *    13.7224 *  0.0000     8          
   559  O     s      2.1581 *     9.8017 *    13.7224 *  0.0000     8          
   560  Cl    s     -3.7229 *    11.7620 *    11.7620    0.0000     4          
   561  O     s      9.9994 *    -1.9603 *    13.7224 *  0.0000     8          
   562  O     s      9.9994 *     9.8017 *     9.8017    0.0000     4          
   563  Cl    s      4.1184 *    11.7620 *    11.7620    0.0000     4          
   564  O     s     13.9201 *    -1.9603 *     9.8017 *  0.0000     8          
   565  Cl    s     11.9598 *     3.9207 *    11.7620 *  0.0000     8          
   566  Cl    s    -15.4850 *     0.0000       7.8414 *  0.0000     4          
   567  Cl    s     -7.6436 *     0.0000      15.6827 *  0.0000     4          
   568  Cl    s      0.1977 *     7.8414 *    15.6827 *  0.0000     8          
   569  Cl    s      8.0391 *     0.0000      15.6827 *  0.0000     4          
   570  O     s    -17.4453 *    -1.9603 *    -1.9603    0.0000     4          
   571  O     s    -13.5246 *     5.8810 *     9.8017 *  0.0000     8          
   572  Cl    s     15.8804 *     0.0000       7.8414 *  0.0000     4          
   573  O     s     -9.6039 *     5.8810 *    13.7224 *  0.0000     8          
   574  Cl    s    -15.4850 *     3.9207 *     7.8414 *  0.0000     8          
   575  O     s     -5.6833 *     9.8017 *    13.7224 *  0.0000     8          
   576  O     s     -1.7626 *    -1.9603 *    17.6430 *  0.0000     8          
   577  Cl    s     -7.6436 *     3.9207 *    15.6827 *  0.0000     8          
   578  O     s      2.1581 *    17.6430 *    -1.9603 *  0.0000     8          
   579  Cl    s     -3.7229 *     7.8414 *    15.6827 *  0.0000     8          
   580  O     s      6.0788 *     9.8017 *    13.7224 *  0.0000     8          
   581  O     s      9.9994 *     5.8810 *    13.7224 *  0.0000     8          
   582  Cl    s      4.1184 *     7.8414 *    15.6827 *  0.0000     8          
   583  O     s     13.9201 *     5.8810 *     9.8017 *  0.0000     8          
   584  Cl    s      8.0391 *     3.9207 *    15.6827 *  0.0000     8          
   585  O     s     17.8408 *    -1.9603 *    -1.9603    0.0000     4          
   586  Cl    s     15.8804 *     3.9207 *     7.8414 *  0.0000     8          
   587  Cl    s    -11.5643 *     7.8414 *    11.7620 *  0.0000     8          
   588  Cl    s     -7.6436 *    11.7620 *    11.7620    0.0000     4          
   589  Cl    s      8.0391 *    11.7620 *    11.7620    0.0000     4          
   590  O     s    -17.4453 *    -1.9603 *     5.8810 *  0.0000     8          
   591  Cl    s     11.9598 *     7.8414 *    11.7620 *  0.0000     8          
   592  O     s     -5.6833 *    17.6430 *    -1.9603 *  0.0000     8          
   593  O     s     -1.7626 *     5.8810 *    17.6430 *  0.0000     8          
   594  O     s      2.1581 *    17.6430 *     5.8810 *  0.0000     8          
   595  O     s      6.0788 *    -1.9603 *    17.6430 *  0.0000     8          
   596  O     s     17.8408 *    -1.9603 *     5.8810 *  0.0000     8          
   597  Cl    s    -15.4850 *     7.8414 *     7.8414    0.0000     4          
   598  Cl    s     -7.6436 *     7.8414 *    15.6827 *  0.0000     8          
   599  Cl    s      8.0391 *     7.8414 *    15.6827 *  0.0000     8          
   600  O     s    -17.4453 *     5.8810 *     5.8810    0.0000     4          
   601  O     s    -13.5246 *    -1.9603 *    13.7224 *  0.0000     8          
   602  O     s    -13.5246 *     9.8017 *     9.8017    0.0000     4          
   603  Cl    s     15.8804 *     7.8414 *     7.8414    0.0000     4          
   604  Cl    s    -19.4056 *     0.0000       0.0000    0.0000     1          
   605  O     s     -9.6039 *     9.8017 *    13.7224 *  0.0000     8          
   606  Cl    s    -15.4850 *     0.0000      11.7620 *  0.0000     4          
   607  O     s     -5.6833 *    17.6430 *     5.8810 *  0.0000     8          
   608  Cl    s    -11.5643 *     0.0000      15.6827 *  0.0000     4          
   609  O     s     -1.7626 *    13.7224 *    13.7224    0.0000     4          
   610  O     s      2.1581 *    13.7224 *    13.7224    0.0000     4          
   611  O     s      6.0788 *     5.8810 *    17.6430 *  0.0000     8          
   612  Cl    s      0.1977 *    11.7620 *    15.6827 *  0.0000     8          
   613  Cl    s      0.1977 *     0.0000      19.6034 *  0.0000     4          
   614  O     s      9.9994 *     9.8017 *    13.7224 *  0.0000     8          
   615  O     s     13.9201 *    -1.9603 *    13.7224 *  0.0000     8          
   616  O     s     13.9201 *     9.8017 *     9.8017    0.0000     4          
   617  O     s     17.8408 *     5.8810 *     5.8810    0.0000     4          
   618  Cl    s     11.9598 *     0.0000      15.6827 *  0.0000     4          
   619  Cl    s     15.8804 *     0.0000      11.7620 *  0.0000     4          
   620  Cl    s    -19.4056 *     0.0000       3.9207 *  0.0000     4          
   621  Cl    s     19.8011 *     0.0000       0.0000    0.0000     1          
   622  Cl    s    -15.4850 *     3.9207 *    11.7620 *  0.0000     8          
   623  Cl    s    -11.5643 *     3.9207 *    15.6827 *  0.0000     8          
   624  Cl    s     -3.7229 *    15.6827 *    11.7620 *  0.0000     8          
   625  Cl    s     -3.7229 *     0.0000      19.6034 *  0.0000     4          
   626  Cl    s      0.1977 *     3.9207 *    19.6034 *  0.0000     8          
--------------------------------------------------------------------------------


  Constraints on symmetry reduced coordinates :

--------------------------------------------------------------------------------
  Constraint no.      Unconstrained     Constrained    Coefficient    
                         Variable         Variable
--------------------------------------------------------------------------------
           1                 2 y             2 z         1.00000
           2                 4 y             4 z         1.00000
           3                 5 y             5 z         1.00000
           4                 8 y             8 z         1.00000
           5                11 y            11 z         1.00000
           6                13 y            13 z         1.00000
           7                19 y            19 z         1.00000
           8                23 y            23 z         1.00000
           9                24 y            24 z         1.00000
          10                25 y            25 z         1.00000
          11                36 y            36 z         1.00000
          12                39 y            39 z         1.00000
          13                43 y            43 z         1.00000
          14                44 y            44 z         1.00000
          15                46 y            46 z         1.00000
          16                53 y            53 z         1.00000
          17                54 y            54 z         1.00000
          18                56 y            56 z         1.00000
          19                59 y            59 z         1.00000
          20                65 y            65 z         1.00000
          21                69 y            69 z         1.00000
          22                75 y            75 z         1.00000
          23                76 y            76 z         1.00000
          24                84 y            84 z         1.00000
          25                87 y            87 z         1.00000
          26                97 y            97 z         1.00000
          27               101 y           101 z         1.00000
          28               105 y           105 z         1.00000
          29               106 y           106 z         1.00000
          30               118 y           118 z         1.00000
          31               126 y           126 z         1.00000
          32               129 y           129 z         1.00000
          33               134 y           134 z         1.00000
          34               137 y           137 z         1.00000
          35               142 y           142 z         1.00000
          36               145 y           145 z         1.00000
          37               150 y           150 z         1.00000
          38               154 y           154 z         1.00000
          39               159 y           159 z         1.00000
          40               165 y           165 z         1.00000
          41               169 y           169 z         1.00000
          42               171 y           171 z         1.00000
          43               177 y           177 z         1.00000
          44               181 y           181 z         1.00000
          45               186 y           186 z         1.00000
          46               198 y           198 z         1.00000
          47               204 y           204 z         1.00000
          48               221 y           221 z         1.00000
          49               225 y           225 z         1.00000
          50               226 y           226 z         1.00000
          51               234 y           234 z         1.00000
          52               236 y           236 z         1.00000
          53               242 y           242 z         1.00000
          54               245 y           245 z         1.00000
          55               249 y           249 z         1.00000
          56               252 y           252 z         1.00000
          57               258 y           258 z         1.00000
          58               269 y           269 z         1.00000
          59               272 y           272 z         1.00000
          60               284 y           284 z         1.00000
          61               287 y           287 z         1.00000
          62               288 y           288 z         1.00000
          63               301 y           301 z         1.00000
          64               303 y           303 z         1.00000
          65               319 y           319 z         1.00000
          66               327 y           327 z         1.00000
          67               329 y           329 z         1.00000
          68               340 y           340 z         1.00000
          69               342 y           342 z         1.00000
          70               348 y           348 z         1.00000
          71               376 y           376 z         1.00000
          72               389 y           389 z         1.00000
          73               393 y           393 z         1.00000
          74               394 y           394 z         1.00000
          75               398 y           398 z         1.00000
          76               404 y           404 z         1.00000
          77               407 y           407 z         1.00000
          78               412 y           412 z         1.00000
          79               417 y           417 z         1.00000
          80               419 y           419 z         1.00000
          81               421 y           421 z         1.00000
          82               428 y           428 z         1.00000
          83               434 y           434 z         1.00000
          84               435 y           435 z         1.00000
[...]
    546 y          0.000000      0.000000     0.000000    Cartesian    0.00
    546 z          3.920675      3.929500     0.008825    Cartesian    0.23
    547 x        -11.762026    -11.756530     0.005496    Cartesian   -0.05
    547 y          3.920675      3.917802    -0.002873    Cartesian   -0.07
    547 z          3.920675      3.917802    -0.002873    Cartesian   -0.07
    548 x         -7.841351     -7.839366     0.001985    Cartesian   -0.03
    548 y          0.000000      0.000000     0.000000    Cartesian    0.00
    548 z         11.762026     11.754661    -0.007365    Cartesian   -0.06
    549 x          0.000000     -0.005222    -0.005222    Cartesian    0.00
    549 y          3.920675      3.919894    -0.000781    Cartesian   -0.02
    549 z         15.682702     15.679186    -0.003516    Cartesian   -0.02
    550 x          3.920675      3.912982    -0.007694    Cartesian   -0.20
    550 y         11.762026     11.760258    -0.001768    Cartesian   -0.02
    550 z         11.762026     11.760258    -0.001768    Cartesian   -0.02
    551 x          7.841351      7.832804    -0.008547    Cartesian   -0.11
    551 y          3.920675      3.919863    -0.000813    Cartesian   -0.02
    551 z         15.682702     15.680984    -0.001718    Cartesian   -0.01
    552 x         15.682702     15.671177    -0.011525    Cartesian   -0.07
    552 y          0.000000      0.000000     0.000000    Cartesian    0.00
    552 z         11.762026     11.764832     0.002806    Cartesian    0.02
    553 x         -9.801689     -9.800430     0.001258    Cartesian   -0.01
    553 y         -1.960338     -1.959993     0.000345    Cartesian   -0.02
    553 z          9.801689      9.799244    -0.002445    Cartesian   -0.02
    554 x         19.603377     19.606540     0.003162    Cartesian    0.02
    554 y          3.920675      3.930976     0.010300    Cartesian    0.26
    554 z          3.920675      3.930976     0.010300    Cartesian    0.26
    555 x         -5.881013     -5.882065    -0.001051    Cartesian    0.02
    555 y         -1.960338     -1.960277     0.000061    Cartesian   -0.00
    555 z         13.722364     13.721768    -0.000596    Cartesian   -0.00
    556 x         -5.881013     -5.881503    -0.000490    Cartesian    0.01
    556 y          9.801689      9.799750    -0.001939    Cartesian   -0.02
    556 z          9.801689      9.799750    -0.001939    Cartesian   -0.02
    557 x         -7.841351     -7.840046     0.001305    Cartesian   -0.02
    557 y          3.920675      3.919384    -0.001291    Cartesian   -0.03
    557 z         11.762026     11.755351    -0.006675    Cartesian   -0.06
    558 x          1.960338      1.957377    -0.002961    Cartesian   -0.15
    558 y          9.801689      9.802113     0.000424    Cartesian    0.00
    558 z         13.722364     13.723119     0.000755    Cartesian    0.01
    559 x          5.881013      5.878694    -0.002320    Cartesian   -0.04
    559 y          9.801689      9.802965     0.001276    Cartesian    0.01
    559 z         13.722364     13.723904     0.001540    Cartesian    0.01
    560 x          0.000000     -0.006179    -0.006179    Cartesian    0.00
    560 y         11.762026     11.758753    -0.003274    Cartesian   -0.03
    560 z         11.762026     11.758753    -0.003274    Cartesian   -0.03
    561 x         13.722364     13.719174    -0.003190    Cartesian   -0.02
    561 y         -1.960338     -1.960922    -0.000584    Cartesian    0.03
    561 z         13.722364     13.722444     0.000080    Cartesian    0.00
    562 x         13.722364     13.718657    -0.003707    Cartesian   -0.03
    562 y          9.801689      9.802336     0.000647    Cartesian    0.01
    562 z          9.801689      9.802336     0.000647    Cartesian    0.01
    563 x          7.841351      7.833395    -0.007956    Cartesian   -0.10
    563 y         11.762026     11.761674    -0.000353    Cartesian   -0.00
    563 z         11.762026     11.761674    -0.000353    Cartesian   -0.00
    564 x         17.643040     17.640388    -0.002652    Cartesian   -0.02
    564 y         -1.960338     -1.961184    -0.000846    Cartesian    0.04
    564 z          9.801689      9.803320     0.001632    Cartesian    0.02
    565 x         15.682702     15.672748    -0.009954    Cartesian   -0.06
    565 y          3.920675      3.921743     0.001068    Cartesian    0.03
    565 z         11.762026     11.765074     0.003047    Cartesian    0.03
    566 x        -11.762026    -11.758917     0.003110    Cartesian   -0.03
    566 y          0.000000      0.000000     0.000000    Cartesian    0.00
    566 z          7.841351      7.837638    -0.003713    Cartesian   -0.05
    567 x         -3.920675     -3.924388    -0.003712    Cartesian    0.09
    567 y          0.000000      0.000000     0.000000    Cartesian    0.00
    567 z         15.682702     15.678863    -0.003839    Cartesian   -0.02
    568 x          3.920675      3.914821    -0.005855    Cartesian   -0.15
    568 y          7.841351      7.841111    -0.000240    Cartesian   -0.00
    568 z         15.682702     15.681005    -0.001697    Cartesian   -0.01
    569 x         11.762026     11.754764    -0.007263    Cartesian   -0.06
    569 y          0.000000      0.000000     0.000000    Cartesian    0.00
    569 z         15.682702     15.682813     0.000111    Cartesian    0.00
    570 x        -13.722364    -13.722082     0.000282    Cartesian   -0.00
    570 y         -1.960338     -1.960550    -0.000212    Cartesian    0.01
    570 z         -1.960338     -1.960550    -0.000212    Cartesian    0.01
    571 x         -9.801689     -9.801134     0.000555    Cartesian   -0.01
    571 y          5.881013      5.880469    -0.000544    Cartesian   -0.01
    571 z          9.801689      9.800030    -0.001659    Cartesian   -0.02
    572 x         19.603377     19.598617    -0.004761    Cartesian   -0.02
    572 y          0.000000      0.000000     0.000000    Cartesian    0.00
    572 z          7.841351      7.851219     0.009868    Cartesian    0.13
    573 x         -5.881013     -5.882479    -0.001466    Cartesian    0.02
    573 y          5.881013      5.881292     0.000279    Cartesian    0.00
    573 z         13.722364     13.721994    -0.000371    Cartesian   -0.00
    574 x        -11.762026    -11.758803     0.003223    Cartesian   -0.03
    574 y          3.920675      3.918749    -0.001927    Cartesian   -0.05
    574 z          7.841351      7.837957    -0.003394    Cartesian   -0.04
    575 x         -1.960338     -1.962825    -0.002487    Cartesian    0.13
    575 y          9.801689      9.801937     0.000248    Cartesian    0.00
    575 z         13.722364     13.722651     0.000287    Cartesian    0.00
    576 x          1.960338      1.958392    -0.001946    Cartesian   -0.10
    576 y         -1.960338     -1.960711    -0.000373    Cartesian    0.02
    576 z         17.643040     17.643774     0.000734    Cartesian    0.00
    577 x         -3.920675     -3.924498    -0.003823    Cartesian    0.10
    577 y          3.920675      3.920084    -0.000591    Cartesian   -0.02
    577 z         15.682702     15.678494    -0.004208    Cartesian   -0.03
    578 x          5.881013      5.880330    -0.000683    Cartesian   -0.01
    578 y         17.643040     17.644292     0.001252    Cartesian    0.01
    578 z         -1.960338     -1.960192     0.000146    Cartesian   -0.01
    579 x          0.000000     -0.004799    -0.004799    Cartesian    0.00
    579 y          7.841351      7.840697    -0.000654    Cartesian   -0.01
    579 z         15.682702     15.679825    -0.002877    Cartesian   -0.02
    580 x          9.801689      9.799598    -0.002090    Cartesian   -0.02
    580 y          9.801689      9.802547     0.000858    Cartesian    0.01
    580 z         13.722364     13.723290     0.000926    Cartesian    0.01
    581 x         13.722364     13.720342    -0.002023    Cartesian   -0.01
    581 y          5.881013      5.880842    -0.000172    Cartesian   -0.00
    581 z         13.722364     13.723242     0.000878    Cartesian    0.01
    582 x          7.841351      7.834435    -0.006916    Cartesian   -0.09
    582 y          7.841351      7.841224    -0.000127    Cartesian   -0.00
    582 z         15.682702     15.681435    -0.001267    Cartesian   -0.01
    583 x         17.643040     17.640912    -0.002127    Cartesian   -0.01
    583 y          5.881013      5.882305     0.001292    Cartesian    0.02
    583 z          9.801689      9.803994     0.002305    Cartesian    0.02
    584 x         11.762026     11.755489    -0.006537    Cartesian   -0.06
    584 y          3.920675      3.920386    -0.000290    Cartesian   -0.01
    584 z         15.682702     15.682935     0.000233    Cartesian    0.00
    585 x         21.563715     21.559373    -0.004343    Cartesian   -0.02
    585 y         -1.960338     -1.961980    -0.001642    Cartesian    0.08
    585 z         -1.960338     -1.961980    -0.001642    Cartesian    0.08
    586 x         19.603377     19.598794    -0.004583    Cartesian   -0.02
    586 y          3.920675      3.924272     0.003596    Cartesian    0.09
    586 z          7.841351      7.850747     0.009396    Cartesian    0.12
    587 x         -7.841351     -7.841357    -0.000006    Cartesian    0.00
    587 y          7.841351      7.838108    -0.003243    Cartesian   -0.04
    587 z         11.762026     11.756830    -0.005196    Cartesian   -0.04
    588 x         -3.920675     -3.923189    -0.002513    Cartesian    0.06
    588 y         11.762026     11.758528    -0.003498    Cartesian   -0.03
    588 z         11.762026     11.758528    -0.003498    Cartesian   -0.03
    589 x         11.762026     11.754859    -0.007167    Cartesian   -0.06
    589 y         11.762026     11.762076     0.000050    Cartesian    0.00
    589 z         11.762026     11.762076     0.000050    Cartesian    0.00
    590 x        -13.722364    -13.721703     0.000661    Cartesian   -0.00
    590 y         -1.960338     -1.960255     0.000083    Cartesian   -0.00
    590 z          5.881013      5.880804    -0.000209    Cartesian   -0.00
    591 x         15.682702     15.674133    -0.008569    Cartesian   -0.05
    591 y          7.841351      7.841779     0.000428    Cartesian    0.01
    591 z         11.762026     11.764760     0.002734    Cartesian    0.02
    592 x         -1.960338     -1.962156    -0.001818    Cartesian    0.09
    592 y         17.643040     17.642993    -0.000047    Cartesian   -0.00
    592 z         -1.960338     -1.960835    -0.000497    Cartesian    0.03
    593 x          1.960338      1.958589    -0.001749    Cartesian   -0.09
    593 y          5.881013      5.881784     0.000771    Cartesian    0.01
    593 z         17.643040     17.642962    -0.000078    Cartesian   -0.00
    594 x          5.881013      5.879521    -0.001492    Cartesian   -0.03
    594 y         17.643040     17.643364     0.000324    Cartesian    0.00
    594 z          5.881013      5.881060     0.000047    Cartesian    0.00
    595 x          9.801689      9.800446    -0.001243    Cartesian   -0.01
    595 y         -1.960338     -1.960238     0.000100    Cartesian   -0.01
    595 z         17.643040     17.642609    -0.000431    Cartesian   -0.00
    596 x         21.563715     21.561993    -0.001722    Cartesian   -0.01
    596 y         -1.960338     -1.960792    -0.000454    Cartesian    0.02
    596 z          5.881013      5.882782     0.001769    Cartesian    0.03
    597 x        -11.762026    -11.758328     0.003698    Cartesian   -0.03
    597 y          7.841351      7.837740    -0.003611    Cartesian   -0.05
    597 z          7.841351      7.837740    -0.003611    Cartesian   -0.05
    598 x         -3.920675     -3.922495    -0.001819    Cartesian    0.05
    598 y          7.841351      7.839307    -0.002044    Cartesian   -0.03
    598 z         15.682702     15.678261    -0.004441    Cartesian   -0.03
    599 x         11.762026     11.755850    -0.006176    Cartesian   -0.05
    599 y          7.841351      7.840150    -0.001201    Cartesian   -0.02
    599 z         15.682702     15.681090    -0.001612    Cartesian   -0.01
    600 x        -13.722364    -13.719916     0.002448    Cartesian   -0.02
    600 y          5.881013      5.879438    -0.001575    Cartesian   -0.03
    600 z          5.881013      5.879438    -0.001575    Cartesian   -0.03
    601 x         -9.801689     -9.801064     0.000625    Cartesian   -0.01
    601 y         -1.960338     -1.960117     0.000220    Cartesian   -0.01
    601 z         13.722364     13.720554    -0.001810    Cartesian   -0.01
    602 x         -9.801689     -9.799571     0.002118    Cartesian   -0.02
    602 y          9.801689      9.799132    -0.002557    Cartesian   -0.03
    602 z          9.801689      9.799132    -0.002557    Cartesian   -0.03
    603 x         19.603377     19.598145    -0.005232    Cartesian   -0.03
    603 y          7.841351      7.847123     0.005772    Cartesian    0.07
    603 z          7.841351      7.847123     0.005772    Cartesian    0.07
    604 x        -15.682702    -15.677234     0.005468    Cartesian   -0.03
    604 y          0.000000      0.000000     0.000000    Cartesian    0.00
    604 z          0.000000      0.000000     0.000000    Cartesian    0.00
    605 x         -5.881013     -5.880400     0.000614    Cartesian   -0.01
    605 y          9.801689      9.799704    -0.001985    Cartesian   -0.02
    605 z         13.722364     13.719847    -0.002517    Cartesian   -0.02
    606 x        -11.762026    -11.757842     0.004185    Cartesian   -0.04
    606 y          0.000000      0.000000     0.000000    Cartesian    0.00
    606 z         11.762026     11.756734    -0.005293    Cartesian   -0.04
    607 x         -1.960338     -1.960777    -0.000440    Cartesian    0.02
    607 y         17.643040     17.640937    -0.002103    Cartesian   -0.01
    607 z          5.881013      5.880091    -0.000923    Cartesian   -0.02
    608 x         -7.841351     -7.840574     0.000777    Cartesian   -0.01
    608 y          0.000000      0.000000     0.000000    Cartesian    0.00
    608 z         15.682702     15.677236    -0.005466    Cartesian   -0.03
    609 x          1.960338      1.958376    -0.001962    Cartesian   -0.10
    609 y         13.722364     13.721747    -0.000617    Cartesian   -0.00
    609 z         13.722364     13.721747    -0.000617    Cartesian   -0.00
    610 x          5.881013      5.879428    -0.001585    Cartesian   -0.03
    610 y         13.722364     13.721674    -0.000690    Cartesian   -0.01
    610 z         13.722364     13.721674    -0.000690    Cartesian   -0.01
    611 x          9.801689      9.799140    -0.002549    Cartesian   -0.03
    611 y          5.881013      5.880149    -0.000864    Cartesian   -0.01
    611 z         17.643040     17.641404    -0.001636    Cartesian   -0.01
    612 x          3.920675      3.916890    -0.003785    Cartesian   -0.10
    612 y         11.762026     11.759842    -0.002185    Cartesian   -0.02
    612 z         15.682702     15.678980    -0.003722    Cartesian   -0.02
    613 x          3.920675      3.917509    -0.003166    Cartesian   -0.08
    613 y          0.000000      0.000000     0.000000    Cartesian    0.00
    613 z         19.603377     19.599143    -0.004234    Cartesian   -0.02
    614 x         13.722364     13.719365    -0.002999    Cartesian   -0.02
    614 y          9.801689      9.800673    -0.001016    Cartesian   -0.01
    614 z         13.722364     13.721277    -0.001087    Cartesian   -0.01
    615 x         17.643040     17.640995    -0.002045    Cartesian   -0.01
    615 y         -1.960338     -1.960527    -0.000189    Cartesian    0.01
    615 z         13.722364     13.721586    -0.000779    Cartesian   -0.01
    616 x         17.643040     17.639442    -0.003598    Cartesian   -0.02
    616 y          9.801689      9.801595    -0.000094    Cartesian   -0.00
    616 z          9.801689      9.801595    -0.000094    Cartesian   -0.00
    617 x         21.563715     21.561695    -0.002020    Cartesian   -0.01
    617 y          5.881013      5.882835     0.001822    Cartesian    0.03
    617 z          5.881013      5.882835     0.001822    Cartesian    0.03
    618 x         15.682702     15.675521    -0.007181    Cartesian   -0.05
    618 y          0.000000      0.000000     0.000000    Cartesian    0.00
    618 z         15.682702     15.680607    -0.002095    Cartesian   -0.01
    619 x         19.603377     19.596312    -0.007065    Cartesian   -0.04
    619 y          0.000000      0.000000     0.000000    Cartesian    0.00
    619 z         11.762026     11.764641     0.002615    Cartesian    0.02
    620 x        -15.682702    -15.675792     0.006910    Cartesian   -0.04
    620 y          0.000000      0.000000     0.000000    Cartesian    0.00
    620 z          3.920675      3.918903    -0.001772    Cartesian   -0.05
    621 x         23.524053     23.520554    -0.003499    Cartesian   -0.01
    621 y          0.000000      0.000000     0.000000    Cartesian    0.00
    621 z          0.000000      0.000000     0.000000    Cartesian    0.00
    622 x        -11.762026    -11.756890     0.005136    Cartesian   -0.04
    622 y          3.920675      3.919143    -0.001533    Cartesian   -0.04
    622 z         11.762026     11.756725    -0.005301    Cartesian   -0.05
    623 x         -7.841351     -7.840119     0.001232    Cartesian   -0.02
    623 y          3.920675      3.919047    -0.001629    Cartesian   -0.04
    623 z         15.682702     15.676514    -0.006188    Cartesian   -0.04
    624 x          0.000000     -0.002035    -0.002035    Cartesian    0.00
    624 y         15.682702     15.678045    -0.004657    Cartesian   -0.03
    624 z         11.762026     11.758523    -0.003504    Cartesian   -0.03
    625 x          0.000000     -0.002058    -0.002058    Cartesian    0.00
    625 y          0.000000      0.000000     0.000000    Cartesian    0.00
    625 z         19.603377     19.596723    -0.006655    Cartesian   -0.03
    626 x          3.920675      3.918045    -0.002630    Cartesian   -0.07
    626 y          3.920675      3.919558    -0.001118    Cartesian   -0.03
    626 z         19.603377     19.597591    -0.005787    Cartesian   -0.03
--------------------------------------------------------------------------------


  Time to end of optimisation  =      153.6961 seconds


  Peak dynamic memory used =    1727.30 MB 


  Timing analysis for GULP :

--------------------------------------------------------------------------------
  Task / Subroutine                                          Time (Seconds)
--------------------------------------------------------------------------------
  Calculation of reciprocal space energy and derivatives          0.0002
  Calculation of reciprocal space energy using symmetry           0.0004
  Calculation of real space energy and derivatives                0.0016
  Calculation of real space energy using symmetry                 0.0036
  Calculation for region 1 energy and derivatives (2-b)          74.5941
  Calculation for region 2a energy                               20.1495
  Calculation for region 2b energy                                0.0039
  Calculation and manipulation of Hessian matrix                 53.4178
  Calculation of matrix inversion                                 4.5395
  Symmetry generation of equivalent positions                     0.0020
--------------------------------------------------------------------------------
  Total CPU time                                                153.6961
--------------------------------------------------------------------------------


  Dump file written as Li3OCl.grs


  Job Finished at 18:27.57 20th October    2020                               

