********************************************************************************
*                       GENERAL UTILITY LATTICE PROGRAM                        *
*                                 Julian Gale                                  *
*                       Curtin Institute for Computation                       *
*                    School of Molecular and Life Sciences                     *
*                    Curtin University, Western Australia                      *
********************************************************************************
* Version = 5.2.0 * Last modified =  10th September 2020                       *
********************************************************************************
*  optimise     - perform optimisation run                                     *
*  conp         - constant pressure calculation                                *
*  property     - calculate properties for final geometry                      *
*  defect       - perform defect calculation after bulk run                    *
*  compare      - compare initial and final structures                         *
********************************************************************************

  Job Started  at 17:36.53 20th October    2020                               

  Number of CPUs =     1


  Total number of configurations input =      1

********************************************************************************
*  Input for Configuration =   1                                               *
********************************************************************************

  Formula = ClOLi3                                                      

  Number of irreducible atoms/shells =       5


  Total number atoms/shells =       7

  Dimensionality = 3               :  Bulk   


  Symmetry :

  Crystal family                   :  Cubic       
  Crystal class  (Groth - 1921)    :  Cubic Hexakisoctahedral              

  Space group (centrosymmetric)    :  P M 3 M         

  Patterson group                  :  P m -3 m 

  Cartesian lattice vectors (Angstroms) :

        3.918873    0.000000    0.000000
        0.000000    3.918873    0.000000
        0.000000    0.000000    3.918873

  Cell parameters (Angstroms/Degrees):

  a =       3.9189    alpha =  90.0000
  b =       3.9189    beta  =  90.0000
  c =       3.9189    gamma =  90.0000

  Initial cell volume =          60.184349 Angs**3

  Temperature of configuration =   0.00     K 

  Pressure of configuration =         0.000 GPa 

  Fractional coordinates of asymmetric unit :

--------------------------------------------------------------------------------
   No.  Atomic       x           y          z         Charge      Occupancy
        Label      (Frac)      (Frac)     (Frac)        (e)         (Frac)  
--------------------------------------------------------------------------------
      1 Cl    c    0.000000    0.000000    0.000000     1.48500    1.000000    
      2 O     c    0.500000    0.500000    0.500000     0.18300    1.000000    
      3 Li    c    0.500000    0.500000    0.000000     1.00000    1.000000    
      4 Cl    s    0.000000    0.000000    0.000000    -2.48500    1.000000    
      5 O     s    0.500000    0.500000    0.500000    -2.18300    1.000000    
--------------------------------------------------------------------------------


  Constraints : 

--------------------------------------------------------------------------------
  Constraint no.      Unconstrained     Constrained    Coefficient    Offset
                         Variable         Variable
--------------------------------------------------------------------------------
           1              Strain 1        Strain 2       1.00000      0.0000
           2              Strain 1        Strain 3       1.00000      0.0000
--------------------------------------------------------------------------------


********************************************************************************
*  General input information                                                   *
********************************************************************************

  Species output for all configurations : 

--------------------------------------------------------------------------------
  Species    Type    Atomic    Atomic    Charge       Radii (Angs)     Library
                     Number     Mass       (e)     Cova   Ionic  VDW   Symbol
--------------------------------------------------------------------------------
    Li       Core        3       6.94   1.000000   0.680  0.000  1.800          
    O        Core        8      16.00   0.183000   0.730  0.000  1.360          
    O        Shell       8       0.00  -2.183000   0.730  0.000  1.360          
    Cl       Core       17      35.45   1.485000   0.990  0.000  1.650          
    Cl       Shell      17       0.00  -2.485000   0.990  0.000  1.650          
--------------------------------------------------------------------------------


  Lattice summation method               =    Ewald          (3-D)
                                         =    Parry          (2-D)
                                         =    Saunders et al (1-D)
  Accuracy factor for lattice sums       =   12.000


  Analytic derivatives to be used

  Time limit = Infinity

  Maximum range for interatomic potentials =    100000.000000 Angstroms

  General interatomic potentials :

--------------------------------------------------------------------------------
Atom  Types   Potential      Parameter       Value         Units   Cutoffs(Ang)
  1     2                                                            Min /  Max 
--------------------------------------------------------------------------------
O    c O    s Spring (c-s)  Spring k 2       593.72000    eV*Ang^-2 0.000  0.800
                            Spring k 4       0.0000000    eV*Ang^-4 
--------------------------------------------------------------------------------
Cl   c Cl   s Spring (c-s)  Spring k 2       29.380000    eV*Ang^-2 0.000  0.800
                            Spring k 4       0.0000000    eV*Ang^-4 
--------------------------------------------------------------------------------
Li   c Li   c Buckingham    Buckingham A     360.53000    eV        0.000 12.000
                            Buckingham rho  0.16100000    Ang       
                            Buckingham C     0.0000000    eV*Ang^6  
--------------------------------------------------------------------------------
Li   c O    s Buckingham    Buckingham A     292.30000    eV        0.000 12.000
                            Buckingham rho  0.34720000    Ang       
                            Buckingham C     0.0000000    eV*Ang^6  
--------------------------------------------------------------------------------
Li   c Cl   s Buckingham    Buckingham A     421.04000    eV        0.000 12.000
                            Buckingham rho  0.33400000    Ang       
                            Buckingham C     0.0000000    eV*Ang^6  
--------------------------------------------------------------------------------
O    s O    s Buckingham    Buckingham A     22764.300    eV        0.000 12.000
                            Buckingham rho  0.14900000    Ang       
                            Buckingham C     13.190000    eV*Ang^6  
--------------------------------------------------------------------------------
O    s Cl   s Buckingham    Buckingham A     8286.9100    eV        0.000 12.000
                            Buckingham rho  0.25900000    Ang       
                            Buckingham C     62.200000    eV*Ang^6  
--------------------------------------------------------------------------------
Cl   s Cl   s Buckingham    Buckingham A     1227.2000    eV        0.000 12.000
                            Buckingham rho  0.32100000    Ang       
                            Buckingham C     14.530000    eV*Ang^6  
--------------------------------------------------------------------------------

********************************************************************************
*  Output for configuration   1                                                *
********************************************************************************


  Components of energy : 

--------------------------------------------------------------------------------
  Interatomic potentials     =           7.26836263 eV    
  Monopole - monopole (real) =         -11.53475722 eV    
  Monopole - monopole (recip)=         -33.94580548 eV    
  Monopole - monopole (total)=         -45.48056271 eV    
--------------------------------------------------------------------------------
  Total lattice energy       =         -38.21220008 eV    
--------------------------------------------------------------------------------
  Total lattice energy       =           -3686.8932 kJ/(mole unit cells)
--------------------------------------------------------------------------------


  Number of variables =        1

  Maximum number of calculations  =          1000
  Maximum Hessian update interval =            10
  Maximum step size               =   1.000000000
  Maximum parameter tolerance     =   0.000010000
  Maximum function  tolerance     =   0.000010000
  Maximum gradient  tolerance     =   0.001000000
  Maximum gradient  component     =   0.010000000

  Symmetry constrained optimisation

  Symmetry used for second derivatives

  Cell parameters to be optimised using strains

  Newton-Raphson optimiser to be used

  BFGS hessian update to be used

  Lower half triangular hessian to be used

  Start of bulk optimisation :

  Cycle:      0 Energy:       -38.212200  Gnorm:      0.095699  CPU:    0.009
  ** Hessian calculated **
  Cycle:      1 Energy:       -38.212222  Gnorm:      0.000105  CPU:    0.011


  **** Optimisation achieved ****


  Final energy =     -38.21222207 eV
  Final Gnorm  =       0.00000016

  Components of energy : 

--------------------------------------------------------------------------------
  Interatomic potentials     =           7.24743141 eV    
  Monopole - monopole (real) =         -11.52945423 eV    
  Monopole - monopole (recip)=         -33.93019924 eV    
  Monopole - monopole (total)=         -45.45965348 eV    
--------------------------------------------------------------------------------
  Total lattice energy       =         -38.21222207 eV    
--------------------------------------------------------------------------------
  Total lattice energy       =           -3686.8953 kJ/(mole unit cells)
--------------------------------------------------------------------------------

  Final asymmetric unit coordinates :

--------------------------------------------------------------------------------
   No.  Atomic        x           y           z         Radius
        Label       (Frac)      (Frac)      (Frac)       (Angs) 
--------------------------------------------------------------------------------
     1  Cl    c     0.000000    0.000000    0.000000    0.000000
     2  O     c     0.500000    0.500000    0.500000    0.000000
     3  Li    c     0.500000    0.500000    0.000000    0.000000
     4  Cl    s     0.000000    0.000000    0.000000    0.000000
     5  O     s     0.500000    0.500000    0.500000    0.000000
--------------------------------------------------------------------------------

  Final Cartesian lattice vectors (Angstroms) :

        3.920675    0.000000    0.000000
        0.000000    3.920675    0.000000
        0.000000    0.000000    3.920675


  Final cell parameters and derivatives :

--------------------------------------------------------------------------------
       a            3.920675 Angstrom     dE/de1(xx)    -0.000000 eV/strain
       b            3.920675 Angstrom     dE/de2(yy)     0.000000 eV/strain
       c            3.920675 Angstrom     dE/de3(zz)     0.000000 eV/strain
       alpha       90.000000 Degrees      dE/de4(yz)     0.000000 eV/strain
       beta        90.000000 Degrees      dE/de5(xz)     0.000000 eV/strain
       gamma       90.000000 Degrees      dE/de6(xy)     0.000000 eV/strain
--------------------------------------------------------------------------------

  Primitive cell volume =            60.267433 Angs**3

  Density of cell =      1.991276 g/cm**3

  Non-primitive cell volume =            60.267433 Angs**3


  Final internal derivatives :

--------------------------------------------------------------------------------
   No.  Atomic          a             b             c           Radius
        Label          (eV)          (eV)          (eV)        (eV/Angs)
--------------------------------------------------------------------------------
      1 Cl    c       0.000000      0.000000      0.000000      0.000000
      2 O     c       0.000000      0.000000      0.000000      0.000000
      3 Li    c       0.000000      0.000000      0.000000      0.000000
      4 Cl    s       0.000000      0.000000      0.000000      0.000000
      5 O     s       0.000000      0.000000      0.000000      0.000000
--------------------------------------------------------------------------------
  Maximum abs         0.000000      0.000000      0.000000      0.000000
--------------------------------------------------------------------------------

  Comparison of initial and final structures : 

--------------------------------------------------------------------------------
  Parameter   Initial value   Final value   Difference    Units      Percent
--------------------------------------------------------------------------------
    Volume        60.184349     60.267433     0.083084    Angs**3      0.14
    a              3.918873      3.920675     0.001802    Angstroms    0.05
    b              3.918873      3.920675     0.001802    Angstroms    0.05
    c              3.918873      3.920675     0.001802    Angstroms    0.05
    alpha         90.000000     90.000000     0.000000    Degrees      0.00
    beta          90.000000     90.000000     0.000000    Degrees      0.00
    gamma         90.000000     90.000000     0.000000    Degrees      0.00
      1 x          0.000000      0.000000     0.000000    Fractional   0.00
      1 y          0.000000      0.000000     0.000000    Fractional   0.00
      1 z          0.000000      0.000000     0.000000    Fractional   0.00
      2 x          0.500000      0.500000     0.000000    Fractional   0.00
      2 y          0.500000      0.500000     0.000000    Fractional   0.00
      2 z          0.500000      0.500000     0.000000    Fractional   0.00
      3 x          0.500000      0.500000     0.000000    Fractional   0.00
      3 y          0.500000      0.500000     0.000000    Fractional   0.00
      3 z          0.000000      0.000000     0.000000    Fractional   0.00
      4 x          0.000000      0.000000     0.000000    Fractional   0.00
      4 y          0.000000      0.000000     0.000000    Fractional   0.00
      4 z          0.000000      0.000000     0.000000    Fractional   0.00
      5 x          0.500000      0.500000     0.000000    Fractional   0.00
      5 y          0.500000      0.500000     0.000000    Fractional   0.00
      5 z          0.500000      0.500000     0.000000    Fractional   0.00
--------------------------------------------------------------------------------


  Born effective charge tensors : 

-------------------------------------------------------------------------------
  Atom             x           y             z
-------------------------------------------------------------------------------
    1 Cl    x      -0.9489     -0.0000     -0.0000
            y      -0.0000     -0.9489     -0.0000
            z      -0.0000     -0.0000     -0.9489
-------------------------------------------------------------------------------
    2 O     x      -2.4688      0.0000      0.0000
            y       0.0000     -2.4688      0.0000
            z       0.0000      0.0000     -2.4688
-------------------------------------------------------------------------------
    3 Li    x       1.3129      0.0000     -0.0000
            y       0.0000      1.3129      0.0000
            z      -0.0000      0.0000      0.7919
-------------------------------------------------------------------------------




  Elastic Constant Matrix: (Units=GPa)

-------------------------------------------------------------------------------
  Indices      1         2         3         4         5         6    
-------------------------------------------------------------------------------
       1     94.3368   44.9178   44.9178    0.0000   -0.0000    0.0000
       2     44.9178   94.3368   44.9178   -0.0000    0.0000   -0.0000
       3     44.9178   44.9178   94.3368    0.0000   -0.0000    0.0000
       4      0.0000   -0.0000    0.0000   44.9178   -0.0000    0.0000
       5     -0.0000    0.0000   -0.0000   -0.0000   44.9178    0.0000
       6      0.0000   -0.0000    0.0000    0.0000    0.0000   44.9178
-------------------------------------------------------------------------------


  Elastic Compliance Matrix: (Units=1/GPa)

-------------------------------------------------------------------------------
  Indices      1         2         3         4         5         6    
-------------------------------------------------------------------------------
       1    0.015300 -0.004935 -0.004935 -0.000000  0.000000 -0.000000
       2   -0.004935  0.015300 -0.004935  0.000000 -0.000000  0.000000
       3   -0.004935 -0.004935  0.015300 -0.000000  0.000000 -0.000000
       4   -0.000000  0.000000 -0.000000  0.022263  0.000000 -0.000000
       5    0.000000 -0.000000  0.000000  0.000000  0.022263 -0.000000
       6   -0.000000  0.000000 -0.000000 -0.000000 -0.000000  0.022263
-------------------------------------------------------------------------------

  Mechanical properties :

-------------------------------------------------------------------------------
  Convention :                    Reuss         Voigt         Hill
-------------------------------------------------------------------------------
  Bulk  Modulus (GPa)     =      61.39080      61.39080      61.39080
  Shear Modulus (GPa)     =      33.84570      36.83448      35.34009
-------------------------------------------------------------------------------
  Velocity S-wave (km/s)  =       4.12274       4.30092       4.21277
  Velocity P-wave (km/s)  =       7.31386       7.44942       7.38195
-------------------------------------------------------------------------------
  Compressibility (1/GPa) =    0.01628909
-------------------------------------------------------------------------------
  Stress axis :                     x             y             z
-------------------------------------------------------------------------------
  Youngs Moduli (GPa)     =      65.35947      65.35947      65.35947
-------------------------------------------------------------------------------
  Poissons Ratio (x)      =                     0.32256       0.32256
  Poissons Ratio (y)      =       0.32256                     0.32256
  Poissons Ratio (z)      =       0.32256       0.32256
-------------------------------------------------------------------------------


  Piezoelectric Strain Matrix: (Units=C/m**2)

-------------------------------------------------------------------------------
  Indices      1         2         3         4         5         6    
-------------------------------------------------------------------------------
       x    -0.00000   0.00000   0.00000  -0.00000  -0.00000   0.00000
       y    -0.00000   0.00000   0.00000  -0.00000  -0.00000  -0.00000
       z     0.00000   0.00000   0.00000   0.00000  -0.00000  -0.00000
-------------------------------------------------------------------------------


  Piezoelectric Stress Matrix: (Units=10**-11 C/N)

-------------------------------------------------------------------------------
  Indices      1         2         3         4         5         6    
-------------------------------------------------------------------------------
       x    -0.00000   0.00000   0.00000  -0.00000  -0.00000   0.00000
       y    -0.00000   0.00000   0.00000  -0.00000  -0.00000  -0.00000
       z    -0.00000  -0.00000   0.00000   0.00000  -0.00000  -0.00000
-------------------------------------------------------------------------------


  Static dielectric constant tensor : 

-------------------------------------------------------------------------------
              x         y         z
-------------------------------------------------------------------------------
       x    12.11703   0.00000  -0.00000
       y     0.00000  12.11703  -0.00000
       z    -0.00000  -0.00000  12.11703
--------------------------------------------------------------------------------

  High frequency dielectric constant tensor : 

-------------------------------------------------------------------------------
              x         y         z
-------------------------------------------------------------------------------
       x     1.74104   0.00000   0.00000
       y     0.00000   1.74104   0.00000
       z     0.00000   0.00000   1.74104
-------------------------------------------------------------------------------

  Static refractive indices : 

-------------------------------------------------------------------------------
    1 =    3.48095      2 =    3.48095      3 =    3.48095
-------------------------------------------------------------------------------

  High frequency refractive indices : 

-------------------------------------------------------------------------------
    1 =    1.31948      2 =    1.31948      3 =    1.31948
-------------------------------------------------------------------------------


  Time to end of optimisation =       0.0151 seconds

********************************************************************************
*  Defect calculation for configuration   1 :                                  *
********************************************************************************

  Total number of defects =      3

  Total charge on defect  =   1.00

  Defect centre is at   0.3919   0.0000   0.0000  Angs

  Region 1 radius =  20.0000      Number of ions =   3896

  Number of symmetry inequivalent region 1 ions  =    631

  Region 2 radius =  24.0000      Number of ions =   2860

  Number of symmetry inequivalent region 2a ions =    416

  Region 2a mode = 4 : screened electrostatics due to region 1 
                       neglect correction to region 1 forces from 2a
                       region 2a displacements based on defects only

  Region 2a ions will only interact with defects in region 1

  Vacancies:

--------------------------------------------------------------------------------
    Specification type     Symbol/Number         x          y          z
--------------------------------------------------------------------------------
    Cartesian                                0.000000   0.000000   0.000000
    Cartesian                                3.918873   0.000000   0.000000
--------------------------------------------------------------------------------

  Interstitials:

--------------------------------------------------------------------------------
    Specification type     Symbol/Number         x          y          z
--------------------------------------------------------------------------------
    Atom/Fractional         Cl               0.391887   0.000000   0.000000
--------------------------------------------------------------------------------


  Symmetry reduced region 1 (Relative to defect centre) :

--------------------------------------------------------------------------------
   No.   Atomic       x            y             z       Radius  Multiplicity   
         Label      (Angs)       (Angs)        (Angs)    (Angs)     
--------------------------------------------------------------------------------
     1  Cl    c      1.1446       0.0000       0.0000    0.0000     1    Defect
     2  Li    c      1.5685 *    -1.9603 *     0.0000    0.0000     4          
     3  Li    c     -0.3919 *    -1.9603 *    -1.9603    0.0000     4          
     4  Li    c     -2.3522 *    -1.9603 *     0.0000    0.0000     4          
     5  O     c      1.5685 *    -1.9603 *    -1.9603    0.0000     4          
     6  O     c     -2.3522 *    -1.9603 *    -1.9603    0.0000     4          
     7  Cl    c     -0.3919 *     0.0000       3.9207 *  0.0000     4          
     8  Cl    c     -4.3126 *     0.0000       0.0000    0.0000     1          
     9  Li    c      3.5288 *    -1.9603 *    -1.9603    0.0000     4          
    10  Li    c      1.5685 *    -1.9603 *     3.9207 *  0.0000     8          
    11  Li    c     -2.3522 *    -1.9603 *     3.9207 *  0.0000     8          
    12  Li    c     -4.3126 *    -1.9603 *    -1.9603    0.0000     4          
    13  Cl    c      3.5288 *     0.0000       3.9207 *  0.0000     4          
    14  Cl    c     -0.3919 *     3.9207 *     3.9207    0.0000     4          
    15  Cl    c     -4.3126 *     0.0000       3.9207 *  0.0000     4          
    16  Li    c      5.4891 *    -1.9603 *     0.0000    0.0000     4          
    17  Li    c      1.5685 *     5.8810 *     0.0000    0.0000     4          
    18  O     c      5.4891 *    -1.9603 *    -1.9603    0.0000     4          
    19  Li    c     -0.3919 *    -1.9603 *     5.8810 *  0.0000     8          
    20  Li    c     -2.3522 *     5.8810 *     0.0000    0.0000     4          
    21  O     c      1.5685 *     5.8810 *    -1.9603 *  0.0000     8          
    22  Li    c     -6.2729 *    -1.9603 *     0.0000    0.0000     4          
    23  Cl    c      3.5288 *     3.9207 *     3.9207    0.0000     4          
    24  O     c     -2.3522 *    -1.9603 *     5.8810 *  0.0000     8          
    25  O     c     -6.2729 *    -1.9603 *    -1.9603    0.0000     4          
    26  Cl    c     -4.3126 *     3.9207 *     3.9207    0.0000     4          
    27  Li    c      5.4891 *    -1.9603 *     3.9207 *  0.0000     8          
    28  Li    c      3.5288 *     5.8810 *    -1.9603 *  0.0000     8          
    29  Li    c      1.5685 *     5.8810 *     3.9207 *  0.0000     8          
    30  Li    c     -2.3522 *     5.8810 *     3.9207 *  0.0000     8          
    31  Cl    c      7.4495 *     0.0000       0.0000    0.0000     1          
    32  Li    c     -4.3126 *     5.8810 *    -1.9603 *  0.0000     8          
    33  Li    c     -6.2729 *    -1.9603 *     3.9207 *  0.0000     8          
    34  Cl    c     -0.3919 *     0.0000       7.8414 *  0.0000     4          
    35  Li    c      7.4495 *    -1.9603 *    -1.9603    0.0000     4          
    36  Li    c      5.4891 *     5.8810 *     0.0000    0.0000     4          
    37  Cl    c     -8.2332 *     0.0000       0.0000    0.0000     1          
    38  Li    c      1.5685 *    -1.9603 *     7.8414 *  0.0000     8          
    39  O     c      5.4891 *    -1.9603 *     5.8810 *  0.0000     8          
    40  Li    c     -0.3919 *     5.8810 *     5.8810    0.0000     4          
    41  Li    c     -2.3522 *    -1.9603 *     7.8414 *  0.0000     8          
    42  Cl    c      7.4495 *     0.0000       3.9207 *  0.0000     4          
    43  O     c      1.5685 *     5.8810 *     5.8810    0.0000     4          
    44  Li    c     -6.2729 *     5.8810 *     0.0000    0.0000     4          
    45  Cl    c      3.5288 *     0.0000       7.8414 *  0.0000     4          
    46  O     c     -2.3522 *     5.8810 *     5.8810    0.0000     4          
    47  Li    c     -8.2332 *    -1.9603 *    -1.9603    0.0000     4          
    48  Cl    c     -0.3919 *     3.9207 *     7.8414 *  0.0000     8          
    49  O     c     -6.2729 *    -1.9603 *     5.8810 *  0.0000     8          
    50  Cl    c     -4.3126 *     0.0000       7.8414 *  0.0000     4          
    51  Li    c      5.4891 *     3.9207 *     5.8810 *  0.0000     8          
    52  Li    c      3.5288 *     5.8810 *     5.8810    0.0000     4          
    53  Cl    c     -8.2332 *     0.0000       3.9207 *  0.0000     4          
    54  Cl    c      7.4495 *     3.9207 *     3.9207    0.0000     4          
    55  Li    c     -4.3126 *     5.8810 *     5.8810    0.0000     4          
    56  Li    c     -6.2729 *     3.9207 *     5.8810 *  0.0000     8          
    57  Cl    c      3.5288 *     3.9207 *     7.8414 *  0.0000     8          
    58  Li    c      9.4098 *    -1.9603 *     0.0000    0.0000     4          
    59  Li    c      7.4495 *    -1.9603 *     5.8810 *  0.0000     8          
    60  Cl    c     -4.3126 *     3.9207 *     7.8414 *  0.0000     8          
    61  Li    c      5.4891 *    -1.9603 *     7.8414 *  0.0000     8          
    62  O     c      9.4098 *    -1.9603 *    -1.9603    0.0000     4          
    63  Cl    c     -8.2332 *     3.9207 *     3.9207    0.0000     4          
    64  Li    c      1.5685 *     5.8810 *     7.8414 *  0.0000     8          
    65  Li    c      1.5685 *     9.8017 *     0.0000    0.0000     4          
    66  O     c      5.4891 *     5.8810 *     5.8810    0.0000     4          
    67  Li    c     -0.3919 *    -1.9603 *     9.8017 *  0.0000     8          
    68  Li    c     -2.3522 *     5.8810 *     7.8414 *  0.0000     8          
    69  Li    c     -2.3522 *     9.8017 *     0.0000    0.0000     4          
    70  O     c      1.5685 *    -1.9603 *     9.8017 *  0.0000     8          
    71  Li    c     -6.2729 *    -1.9603 *     7.8414 *  0.0000     8          
    72  O     c     -2.3522 *    -1.9603 *     9.8017 *  0.0000     8          
    73  Li    c     -8.2332 *    -1.9603 *     5.8810 *  0.0000     8          
    74  Li    c    -10.1936 *    -1.9603 *     0.0000    0.0000     4          
    75  Li    c      9.4098 *    -1.9603 *     3.9207 *  0.0000     8          
    76  O     c     -6.2729 *     5.8810 *     5.8810    0.0000     4          
    77  O     c    -10.1936 *    -1.9603 *    -1.9603    0.0000     4          
    78  Li    c      3.5288 *    -1.9603 *     9.8017 *  0.0000     8          
    79  Li    c      1.5685 *     3.9207 *     9.8017 *  0.0000     8          
    80  Li    c     -2.3522 *     9.8017 *     3.9207 *  0.0000     8          
    81  Cl    c      7.4495 *     0.0000       7.8414 *  0.0000     4          
    82  Li    c     -4.3126 *    -1.9603 *     9.8017 *  0.0000     8          
    83  Li    c    -10.1936 *    -1.9603 *     3.9207 *  0.0000     8          
    84  Cl    c     -0.3919 *     7.8414 *     7.8414    0.0000     4          
    85  Li    c      9.4098 *     5.8810 *     0.0000    0.0000     4          
    86  Li    c      7.4495 *     5.8810 *     5.8810    0.0000     4          
    87  Li    c      5.4891 *     5.8810 *     7.8414 *  0.0000     8          
    88  Li    c      5.4891 *     9.8017 *     0.0000    0.0000     4          
    89  O     c      9.4098 *    -1.9603 *     5.8810 *  0.0000     8          
    90  Cl    c     -8.2332 *     0.0000       7.8414 *  0.0000     4          
    91  Cl    c     11.3701 *     0.0000       0.0000    0.0000     1          
    92  O     c      5.4891 *    -1.9603 *     9.8017 *  0.0000     8          
    93  Li    c     -0.3919 *     5.8810 *     9.8017 *  0.0000     8          
    94  Cl    c      7.4495 *     3.9207 *     7.8414 *  0.0000     8          
    95  O     c      1.5685 *     5.8810 *     9.8017 *  0.0000     8          
    96  Li    c     -6.2729 *     5.8810 *     7.8414 *  0.0000     8          
    97  Li    c     -6.2729 *     9.8017 *     0.0000    0.0000     4          
    98  Cl    c      3.5288 *     7.8414 *     7.8414    0.0000     4          
    99  O     c     -2.3522 *     5.8810 *     9.8017 *  0.0000     8          
   100  Li    c     -8.2332 *     5.8810 *     5.8810    0.0000     4          
   101  Li    c     11.3701 *    -1.9603 *    -1.9603    0.0000     4          
   102  Li    c    -10.1936 *     5.8810 *     0.0000    0.0000     4          
   103  Cl    c     -0.3919 *     0.0000      11.7620 *  0.0000     4          
   104  Li    c      9.4098 *     5.8810 *     3.9207 *  0.0000     8          
   105  O     c     -6.2729 *    -1.9603 *     9.8017 *  0.0000     8          
   106  Cl    c     -4.3126 *     7.8414 *     7.8414    0.0000     4          
   107  Li    c      5.4891 *     9.8017 *     3.9207 *  0.0000     8          
   108  O     c    -10.1936 *    -1.9603 *     5.8810 *  0.0000     8          
   109  Li    c      3.5288 *     5.8810 *     9.8017 *  0.0000     8          
   110  Cl    c     -8.2332 *     7.8414 *     3.9207 *  0.0000     8          
   111  Li    c      1.5685 *    -1.9603 *    11.7620 *  0.0000     8          
   112  Cl    c     11.3701 *     0.0000       3.9207 *  0.0000     4          
   113  Cl    c    -12.1539 *     0.0000       0.0000    0.0000     1          
   114  Li    c     -2.3522 *    -1.9603 *    11.7620 *  0.0000     8          
   115  Li    c     -4.3126 *     5.8810 *     9.8017 *  0.0000     8          
   116  Li    c     -6.2729 *     9.8017 *     3.9207 *  0.0000     8          
   117  Cl    c      3.5288 *     0.0000      11.7620 *  0.0000     4          
   118  Li    c    -10.1936 *     5.8810 *     3.9207 *  0.0000     8          
   119  Cl    c     -0.3919 *    11.7620 *     3.9207 *  0.0000     8          
   120  Li    c      9.4098 *    -1.9603 *     7.8414 *  0.0000     8          
   121  Li    c    -12.1539 *    -1.9603 *    -1.9603    0.0000     4          
   122  Li    c      7.4495 *     9.8017 *    -1.9603 *  0.0000     8          
   123  Cl    c     -4.3126 *     0.0000      11.7620 *  0.0000     4          
   124  O     c      9.4098 *     5.8810 *     5.8810    0.0000     4          
   125  Li    c      1.5685 *     9.8017 *     7.8414 *  0.0000     8          
   126  Cl    c     11.3701 *     3.9207 *     3.9207    0.0000     4          
   127  O     c      5.4891 *     5.8810 *     9.8017 *  0.0000     8          
   128  Cl    c    -12.1539 *     0.0000       3.9207 *  0.0000     4          
   129  Li    c     -2.3522 *     9.8017 *     7.8414 *  0.0000     8          
   130  Cl    c      3.5288 *     3.9207 *    11.7620 *  0.0000     8          
   131  Li    c     -8.2332 *     9.8017 *    -1.9603 *  0.0000     8          
   132  Li    c     11.3701 *    -1.9603 *     5.8810 *  0.0000     8          
   133  Li    c    -10.1936 *    -1.9603 *     7.8414 *  0.0000     8          
   134  O     c     -6.2729 *     5.8810 *     9.8017 *  0.0000     8          
   135  Cl    c     -4.3126 *    11.7620 *     3.9207 *  0.0000     8          
   136  Li    c      5.4891 *    -1.9603 *    11.7620 *  0.0000     8          
   137  O     c    -10.1936 *     5.8810 *     5.8810    0.0000     4          
   138  Li    c      1.5685 *     5.8810 *    11.7620 *  0.0000     8          
   139  Cl    c    -12.1539 *     3.9207 *     3.9207    0.0000     4          
   140  Li    c     -2.3522 *     5.8810 *    11.7620 *  0.0000     8          
   141  Cl    c      7.4495 *     7.8414 *     7.8414    0.0000     4          
   142  Li    c     -6.2729 *    -1.9603 *    11.7620 *  0.0000     8          
   143  Li    c     13.3305 *    -1.9603 *     0.0000    0.0000     4          
   144  Li    c      9.4098 *     5.8810 *     7.8414 *  0.0000     8          
   145  Li    c      9.4098 *     9.8017 *     0.0000    0.0000     4          
   146  O     c     13.3305 *    -1.9603 *    -1.9603    0.0000     4          
   147  Li    c    -12.1539 *    -1.9603 *     5.8810 *  0.0000     8          
   148  Li    c      7.4495 *     9.8017 *     5.8810 *  0.0000     8          
   149  Li    c      5.4891 *     9.8017 *     7.8414 *  0.0000     8          
   150  O     c      9.4098 *    -1.9603 *     9.8017 *  0.0000     8          
   151  Cl    c     -8.2332 *     7.8414 *     7.8414    0.0000     4          
   152  Li    c      1.5685 *    13.7224 *     0.0000    0.0000     4          
   153  Cl    c     11.3701 *     0.0000       7.8414 *  0.0000     4          
   154  Li    c     -0.3919 *    13.7224 *    -1.9603 *  0.0000     8          
   155  Li    c     -0.3919 *     9.8017 *     9.8017    0.0000     4          
   156  Li    c     -2.3522 *    13.7224 *     0.0000    0.0000     4          
   157  Cl    c      7.4495 *     0.0000      11.7620 *  0.0000     4          
   158  O     c      1.5685 *    -1.9603 *    13.7224 *  0.0000     8          
   159  O     c      1.5685 *     9.8017 *     9.8017    0.0000     4          
   160  Li    c     -6.2729 *     9.8017 *     7.8414 *  0.0000     8          
   161  Li    c     13.3305 *    -1.9603 *     3.9207 *  0.0000     8          
   162  O     c     -2.3522 *    -1.9603 *    13.7224 *  0.0000     8          
   163  O     c     -2.3522 *     9.8017 *     9.8017    0.0000     4          
   164  Li    c     -8.2332 *     5.8810 *     9.8017 *  0.0000     8          
   165  Li    c     11.3701 *     5.8810 *     5.8810    0.0000     4          
   166  Li    c    -10.1936 *     5.8810 *     7.8414 *  0.0000     8          
   167  Li    c    -10.1936 *     9.8017 *     0.0000    0.0000     4          
   168  Cl    c     -0.3919 *    11.7620 *     7.8414 *  0.0000     8          
   169  Li    c      9.4098 *     9.8017 *     3.9207 *  0.0000     8          
   170  Li    c    -14.1143 *    -1.9603 *     0.0000    0.0000     4          
   171  Li    c      5.4891 *     5.8810 *    11.7620 *  0.0000     8          
   172  O     c    -10.1936 *    -1.9603 *     9.8017 *  0.0000     8          
   173  Li    c      3.5288 *    -1.9603 *    13.7224 *  0.0000     8          
   174  Li    c      3.5288 *     9.8017 *     9.8017    0.0000     4          
   175  Cl    c     -8.2332 *     0.0000      11.7620 *  0.0000     4          
   176  Li    c      1.5685 *    13.7224 *     3.9207 *  0.0000     8          
   177  Cl    c     11.3701 *     3.9207 *     7.8414 *  0.0000     8          
   178  O     c    -14.1143 *    -1.9603 *    -1.9603    0.0000     4          
   179  Cl    c    -12.1539 *     0.0000       7.8414 *  0.0000     4          
   180  Li    c     -2.3522 *    13.7224 *     3.9207 *  0.0000     8          
   181  Cl    c      7.4495 *     3.9207 *    11.7620 *  0.0000     8          
   182  Li    c     -4.3126 *    -1.9603 *    13.7224 *  0.0000     8          
   183  Li    c     -4.3126 *     9.8017 *     9.8017    0.0000     4          
   184  Li    c     -6.2729 *     5.8810 *    11.7620 *  0.0000     8          
   185  Cl    c      3.5288 *     7.8414 *    11.7620 *  0.0000     8          
   186  Li    c     13.3305 *     5.8810 *     0.0000    0.0000     4          
   187  Li    c    -10.1936 *     9.8017 *     3.9207 *  0.0000     8          
   188  O     c     13.3305 *    -1.9603 *     5.8810 *  0.0000     8          
   189  Li    c    -12.1539 *     5.8810 *     5.8810    0.0000     4          
   190  Li    c    -14.1143 *    -1.9603 *     3.9207 *  0.0000     8          
   191  Cl    c     -4.3126 *    11.7620 *     7.8414 *  0.0000     8          
   192  Li    c      5.4891 *    13.7224 *     0.0000    0.0000     4          
   193  O     c      9.4098 *     5.8810 *     9.8017 *  0.0000     8          
   194  Cl    c     -8.2332 *    11.7620 *     3.9207 *  0.0000     8          
   195  O     c      5.4891 *    -1.9603 *    13.7224 *  0.0000     8          
   196  O     c      5.4891 *     9.8017 *     9.8017    0.0000     4          
   197  Li    c     -0.3919 *    13.7224 *     5.8810 *  0.0000     8          
   198  Cl    c    -12.1539 *     3.9207 *     7.8414 *  0.0000     8          
   199  O     c      1.5685 *     5.8810 *    13.7224 *  0.0000     8          
   200  Li    c     -6.2729 *    13.7224 *     0.0000    0.0000     4          
   201  Li    c     13.3305 *     5.8810 *     3.9207 *  0.0000     8          
   202  O     c     -2.3522 *     5.8810 *    13.7224 *  0.0000     8          
   203  Li    c     11.3701 *    -1.9603 *     9.8017 *  0.0000     8          
   204  Li    c      9.4098 *    11.7620 *    -1.9603 *  0.0000     8          
   205  O     c     -6.2729 *    -1.9603 *    13.7224 *  0.0000     8          
   206  O     c     -6.2729 *     9.8017 *     9.8017    0.0000     4          
   207  Li    c    -14.1143 *     5.8810 *     0.0000    0.0000     4          
   208  Li    c      5.4891 *    13.7224 *     3.9207 *  0.0000     8          
   209  Cl    c     15.2908 *     0.0000       0.0000    0.0000     1          
   210  O     c    -10.1936 *     5.8810 *     9.8017 *  0.0000     8          
   211  Li    c      3.5288 *     5.8810 *    13.7224 *  0.0000     8          
   212  Li    c      1.5685 *     9.8017 *    11.7620 *  0.0000     8          
   213  O     c    -14.1143 *    -1.9603 *     5.8810 *  0.0000     8          
   214  Li    c     -2.3522 *     9.8017 *    11.7620 *  0.0000     8          
   215  Li    c     -4.3126 *     5.8810 *    13.7224 *  0.0000     8          
   216  Li    c     15.2908 *    -1.9603 *    -1.9603    0.0000     4          
   217  Li    c     -6.2729 *    13.7224 *     3.9207 *  0.0000     8          
   218  Li    c     13.3305 *    -1.9603 *     7.8414 *  0.0000     8          
   219  Li    c    -10.1936 *    11.7620 *    -1.9603 *  0.0000     8          
   220  Cl    c     -0.3919 *     0.0000      15.6827 *  0.0000     4          
   221  Li    c      9.4098 *     9.8017 *     7.8414 *  0.0000     8          
   222  O     c     13.3305 *     5.8810 *     5.8810    0.0000     4          
   223  Li    c    -12.1539 *    -1.9603 *     9.8017 *  0.0000     8          
   224  Li    c      7.4495 *    13.7224 *    -1.9603 *  0.0000     8          
   225  Li    c      7.4495 *     9.8017 *     9.8017    0.0000     4          
   226  Li    c    -14.1143 *     5.8810 *     3.9207 *  0.0000     8          
   227  Cl    c     15.2908 *     0.0000       3.9207 *  0.0000     4          
   228  Li    c      1.5685 *    -1.9603 *    15.6827 *  0.0000     8          
   229  Li    c      1.5685 *    13.7224 *     7.8414 *  0.0000     8          
   230  Cl    c     11.3701 *     7.8414 *     7.8414    0.0000     4          
   231  O     c      5.4891 *     5.8810 *    13.7224 *  0.0000     8          
   232  Li    c     -2.3522 *    -1.9603 *    15.6827 *  0.0000     8          
   233  Li    c     -2.3522 *    13.7224 *     7.8414 *  0.0000     8          
   234  Cl    c      7.4495 *     7.8414 *    11.7620 *  0.0000     8          
   235  Cl    c    -16.0746 *     0.0000       0.0000    0.0000     1          
   236  Cl    c      3.5288 *     0.0000      15.6827 *  0.0000     4          
   237  Li    c     -8.2332 *    13.7224 *    -1.9603 *  0.0000     8          
   238  Li    c     -8.2332 *     9.8017 *     9.8017    0.0000     4          
   239  Li    c     11.3701 *     5.8810 *     9.8017 *  0.0000     8          
   240  Li    c    -10.1936 *     9.8017 *     7.8414 *  0.0000     8          
   241  Cl    c     -0.3919 *     3.9207 *    15.6827 *  0.0000     8          
   242  Li    c      9.4098 *    11.7620 *     5.8810 *  0.0000     8          
   243  O     c     -6.2729 *     5.8810 *    13.7224 *  0.0000     8          
   244  Li    c    -14.1143 *    -1.9603 *     7.8414 *  0.0000     8          
   245  Cl    c     -4.3126 *     0.0000      15.6827 *  0.0000     4          
   246  Li    c      5.4891 *     9.8017 *    11.7620 *  0.0000     8          
   247  Cl    c     15.2908 *     3.9207 *     3.9207    0.0000     4          
   248  Li    c    -16.0746 *    -1.9603 *    -1.9603    0.0000     4          
   249  Cl    c     -8.2332 *     7.8414 *    11.7620 *  0.0000     8          
   250  Cl    c     11.3701 *     0.0000      11.7620 *  0.0000     4          
   251  O     c    -14.1143 *     5.8810 *     5.8810    0.0000     4          
   252  Cl    c    -12.1539 *     7.8414 *     7.8414    0.0000     4          
   253  Li    c     15.2908 *    -1.9603 *     5.8810 *  0.0000     8          
   254  Cl    c    -16.0746 *     0.0000       3.9207 *  0.0000     4          
   255  Li    c     -6.2729 *     9.8017 *    11.7620 *  0.0000     8          
   256  Cl    c      3.5288 *     3.9207 *    15.6827 *  0.0000     8          
   257  Li    c     13.3305 *     5.8810 *     7.8414 *  0.0000     8          
   258  Li    c     13.3305 *     9.8017 *     0.0000    0.0000     4          
   259  Li    c    -10.1936 *     5.8810 *    11.7620 *  0.0000     8          
   260  Cl    c     -0.3919 *    11.7620 *    11.7620    0.0000     4          
   261  Li    c      9.4098 *    13.7224 *     0.0000    0.0000     4          
   262  O     c     13.3305 *    -1.9603 *     9.8017 *  0.0000     8          
   263  Li    c    -12.1539 *     5.8810 *     9.8017 *  0.0000     8          
   264  Li    c      7.4495 *     5.8810 *    13.7224 *  0.0000     8          
   265  Cl    c     -4.3126 *     3.9207 *    15.6827 *  0.0000     8          
   266  Li    c      5.4891 *    -1.9603 *    15.6827 *  0.0000     8          
   267  Li    c      5.4891 *    13.7224 *     7.8414 *  0.0000     8          
   268  O     c      9.4098 *    -1.9603 *    13.7224 *  0.0000     8          
   269  O     c      9.4098 *     9.8017 *     9.8017    0.0000     4          
   270  Li    c      1.5685 *     5.8810 *    15.6827 *  0.0000     8          
   271  Cl    c     11.3701 *     3.9207 *    11.7620 *  0.0000     8          
   272  Li    c     -0.3919 *     9.8017 *    13.7224 *  0.0000     8          
   273  Cl    c    -12.1539 *     0.0000      11.7620 *  0.0000     4          
   274  Li    c     -2.3522 *     5.8810 *    15.6827 *  0.0000     8          
   275  O     c      1.5685 *     9.8017 *    13.7224 *  0.0000     8          
   276  Cl    c    -16.0746 *     3.9207 *     3.9207    0.0000     4          
   277  Li    c     -6.2729 *    -1.9603 *    15.6827 *  0.0000     8          
   278  Li    c     -6.2729 *    13.7224 *     7.8414 *  0.0000     8          
   279  Cl    c      3.5288 *    11.7620 *    11.7620    0.0000     4          
   280  Li    c     13.3305 *     3.9207 *     9.8017 *  0.0000     8          
   281  O     c     -2.3522 *     9.8017 *    13.7224 *  0.0000     8          
   282  Li    c     -8.2332 *    13.7224 *     5.8810 *  0.0000     8          
   283  Li    c    -10.1936 *    13.7224 *     0.0000    0.0000     4          
   284  Li    c      9.4098 *     3.9207 *    13.7224 *  0.0000     8          
   285  Li    c    -14.1143 *     5.8810 *     7.8414 *  0.0000     8          
   286  Li    c    -14.1143 *     9.8017 *     0.0000    0.0000     4          
   287  Cl    c     -4.3126 *    11.7620 *    11.7620    0.0000     4          
   288  Cl    c     15.2908 *     0.0000       7.8414 *  0.0000     4          
   289  O     c    -10.1936 *    -1.9603 *    13.7224 *  0.0000     8          
   290  O     c    -10.1936 *     9.8017 *     9.8017    0.0000     4          
   291  Li    c    -16.0746 *     5.8810 *    -1.9603 *  0.0000     8          
   292  Li    c      3.5288 *     9.8017 *    13.7224 *  0.0000     8          
   293  O     c    -14.1143 *     9.8017 *    -1.9603 *  0.0000     8          
   294  Cl    c    -12.1539 *     3.9207 *    11.7620 *  0.0000     8          
   295  Cl    c      7.4495 *     0.0000      15.6827 *  0.0000     4          
   296  Li    c     17.2512 *    -1.9603 *     0.0000    0.0000     4          
   297  Li    c     -4.3126 *     9.8017 *    13.7224 *  0.0000     8          
   298  Li    c     15.2908 *     5.8810 *     5.8810    0.0000     4          
   299  O     c     17.2512 *    -1.9603 *    -1.9603    0.0000     4          
   300  Li    c    -10.1936 *    13.7224 *     3.9207 *  0.0000     8          
   301  Cl    c     -0.3919 *     7.8414 *    15.6827 *  0.0000     8          
   302  O     c     13.3305 *     5.8810 *     9.8017 *  0.0000     8          
   303  Li    c    -14.1143 *     9.8017 *     3.9207 *  0.0000     8          
   304  Li    c      5.4891 *     5.8810 *    15.6827 *  0.0000     8          
   305  Cl    c     15.2908 *     3.9207 *     7.8414 *  0.0000     8          
   306  O     c      9.4098 *     5.8810 *    13.7224 *  0.0000     8          
   307  Cl    c     -8.2332 *     0.0000      15.6827 *  0.0000     4          
   308  Li    c      1.5685 *    17.6430 *     0.0000    0.0000     4          
   309  O     c      5.4891 *     9.8017 *    13.7224 *  0.0000     8          
   310  Li    c     -0.3919 *    -1.9603 *    17.6430 *  0.0000     8          
   311  Li    c     -2.3522 *    17.6430 *     0.0000    0.0000     4          
   312  Cl    c      7.4495 *     3.9207 *    15.6827 *  0.0000     8          
   313  Li    c     17.2512 *    -1.9603 *     3.9207 *  0.0000     8          
   314  O     c      1.5685 *    -1.9603 *    17.6430 *  0.0000     8          
   315  Cl    c    -16.0746 *     0.0000       7.8414 *  0.0000     4          
   316  Li    c     -6.2729 *     5.8810 *    15.6827 *  0.0000     8          
   317  Cl    c      3.5288 *     7.8414 *    15.6827 *  0.0000     8          
   318  Li    c     13.3305 *    11.7620 *    -1.9603 *  0.0000     8          
   319  O     c     -2.3522 *    -1.9603 *    17.6430 *  0.0000     8          
   320  Li    c     11.3701 *    13.7224 *    -1.9603 *  0.0000     8          
   321  Li    c     11.3701 *     9.8017 *     9.8017    0.0000     4          
   322  Li    c      9.4098 *     9.8017 *    11.7620 *  0.0000     8          
   323  O     c     -6.2729 *     9.8017 *    13.7224 *  0.0000     8          
   324  Cl    c     -4.3126 *     7.8414 *    15.6827 *  0.0000     8          
   325  O     c    -10.1936 *     5.8810 *    13.7224 *  0.0000     8          
   326  Li    c    -16.0746 *     5.8810 *     5.8810    0.0000     4          
   327  Li    c      3.5288 *    17.6430 *    -1.9603 *  0.0000     8          
   328  Li    c    -18.0349 *    -1.9603 *     0.0000    0.0000     4          
   329  Cl    c     -8.2332 *     3.9207 *    15.6827 *  0.0000     8          
   330  Li    c      1.5685 *    13.7224 *    11.7620 *  0.0000     8          
   331  Li    c      1.5685 *    17.6430 *     3.9207 *  0.0000     8          
   332  Cl    c     11.3701 *     7.8414 *    11.7620 *  0.0000     8          
   333  O     c    -14.1143 *     9.8017 *     5.8810 *  0.0000     8          
   334  Li    c     -2.3522 *    13.7224 *    11.7620 *  0.0000     8          
   335  Li    c     -2.3522 *    17.6430 *     3.9207 *  0.0000     8          
   336  Cl    c      7.4495 *    11.7620 *    11.7620    0.0000     4          
   337  Li    c     17.2512 *     5.8810 *     0.0000    0.0000     4          
   338  O     c    -18.0349 *    -1.9603 *    -1.9603    0.0000     4          
   339  Li    c     -4.3126 *    -1.9603 *    17.6430 *  0.0000     8          
   340  Li    c     15.2908 *    -1.9603 *     9.8017 *  0.0000     8          
   341  Cl    c    -16.0746 *     3.9207 *     7.8414 *  0.0000     8          
   342  Li    c     13.3305 *     7.8414 *     9.8017 *  0.0000     8          
   343  O     c     17.2512 *    -1.9603 *     5.8810 *  0.0000     8          
   344  Li    c    -10.1936 *    11.7620 *     9.8017 *  0.0000     8          
   345  Li    c      9.4098 *    -1.9603 *    15.6827 *  0.0000     8          
   346  Li    c      9.4098 *     7.8414 *    13.7224 *  0.0000     8          
   347  Li    c    -12.1539 *    -1.9603 *    13.7224 *  0.0000     8          
   348  Li    c    -12.1539 *     9.8017 *     9.8017    0.0000     4          
   349  Li    c      7.4495 *     9.8017 *    13.7224 *  0.0000     8          
   350  Li    c    -14.1143 *    -1.9603 *    11.7620 *  0.0000     8          
   351  Li    c      5.4891 *    17.6430 *     0.0000    0.0000     4          
   352  Li    c    -18.0349 *    -1.9603 *     3.9207 *  0.0000     8          
   353  Cl    c     -8.2332 *    11.7620 *    11.7620    0.0000     4          
   354  Li    c      1.5685 *     9.8017 *    15.6827 *  0.0000     8          
   355  O     c      5.4891 *    17.6430 *    -1.9603 *  0.0000     8          
   356  Li    c     -0.3919 *     5.8810 *    17.6430 *  0.0000     8          
   357  Cl    c    -12.1539 *     7.8414 *    11.7620 *  0.0000     8          
   358  Li    c     -2.3522 *     9.8017 *    15.6827 *  0.0000     8          
   359  Li    c     17.2512 *     3.9207 *     5.8810 *  0.0000     8          
   360  O     c      1.5685 *     5.8810 *    17.6430 *  0.0000     8          
   361  Li    c     -6.2729 *    17.6430 *     0.0000    0.0000     4          
   362  Li    c     13.3305 *    11.7620 *     5.8810 *  0.0000     8          
   363  O     c     -2.3522 *     5.8810 *    17.6430 *  0.0000     8          
   364  Li    c     -8.2332 *     9.8017 *    13.7224 *  0.0000     8          
   365  Li    c     11.3701 *    13.7224 *     5.8810 *  0.0000     8          
   366  Li    c    -10.1936 *    -1.9603 *    15.6827 *  0.0000     8          
   367  Li    c    -10.1936 *    13.7224 *     7.8414 *  0.0000     8          
   368  O     c     -6.2729 *    -1.9603 *    17.6430 *  0.0000     8          
   369  Li    c    -14.1143 *     9.8017 *     7.8414 *  0.0000     8          
   370  Li    c      5.4891 *    13.7224 *    11.7620 *  0.0000     8          
   371  Li    c      5.4891 *    17.6430 *     3.9207 *  0.0000     8          
   372  Cl    c     15.2908 *     7.8414 *     7.8414    0.0000     4          
   373  Li    c    -16.0746 *    -1.9603 *     9.8017 *  0.0000     8          
   374  Li    c      3.5288 *    17.6430 *     5.8810 *  0.0000     8          
   375  Li    c    -18.0349 *     5.8810 *     0.0000    0.0000     4          
   376  Cl    c      7.4495 *     7.8414 *    15.6827 *  0.0000     8          
   377  Li    c     17.2512 *    -1.9603 *     7.8414 *  0.0000     8          
   378  O     c    -18.0349 *     5.8810 *    -1.9603 *  0.0000     8          
   379  Li    c     -4.3126 *    17.6430 *     5.8810 *  0.0000     8          
   380  Li    c     15.2908 *     5.8810 *     9.8017 *  0.0000     8          
   381  Li    c     -6.2729 *    13.7224 *    11.7620 *  0.0000     8          
   382  Li    c     -6.2729 *    17.6430 *     3.9207 *  0.0000     8          
   383  Li    c     13.3305 *    13.7224 *     0.0000    0.0000     4          
   384  O     c     17.2512 *     5.8810 *     5.8810    0.0000     4          
   385  Li    c      9.4098 *     5.8810 *    15.6827 *  0.0000     8          
   386  Cl    c     19.2115 *     0.0000       0.0000    0.0000     1          
   387  O     c     13.3305 *    -1.9603 *    13.7224 *  0.0000     8          
   388  O     c     13.3305 *     9.8017 *     9.8017    0.0000     4          
   389  Li    c    -12.1539 *     5.8810 *    13.7224 *  0.0000     8          
   390  Li    c      7.4495 *    -1.9603 *    17.6430 *  0.0000     8          
   391  Li    c    -14.1143 *     5.8810 *    11.7620 *  0.0000     8          
   392  Li    c      5.4891 *     9.8017 *    15.6827 *  0.0000     8          
   393  Cl    c     15.2908 *     0.0000      11.7620 *  0.0000     4          
   394  O     c      9.4098 *     9.8017 *    13.7224 *  0.0000     8          
   395  Li    c    -18.0349 *     5.8810 *     3.9207 *  0.0000     8          
   396  Cl    c     -8.2332 *     7.8414 *    15.6827 *  0.0000     8          
   397  Li    c      1.5685 *    17.6430 *     7.8414 *  0.0000     8          
   398  Cl    c     11.3701 *     0.0000      15.6827 *  0.0000     4          
   399  O     c      5.4891 *    17.6430 *     5.8810 *  0.0000     8          
   400  Li    c     -0.3919 *    13.7224 *    13.7224    0.0000     4          
   401  Li    c     19.2115 *    -1.9603 *    -1.9603    0.0000     4          
   402  Li    c     -2.3522 *    17.6430 *     7.8414 *  0.0000     8          
   403  O     c      1.5685 *    13.7224 *    13.7224    0.0000     4          
   404  Cl    c    -16.0746 *     7.8414 *     7.8414    0.0000     4          
   405  Li    c     -6.2729 *     9.8017 *    15.6827 *  0.0000     8          
   406  Li    c     13.3305 *     3.9207 *    13.7224 *  0.0000     8          
   407  O     c     -2.3522 *    13.7224 *    13.7224    0.0000     4          
   408  Li    c     -8.2332 *    -1.9603 *    17.6430 *  0.0000     8          
   409  Li    c    -10.1936 *     5.8810 *    15.6827 *  0.0000     8          
   410  Cl    c     -0.3919 *    11.7620 *    15.6827 *  0.0000     8          
   411  Cl    c     -0.3919 *     0.0000      19.6034 *  0.0000     4          
   412  Cl    c     19.2115 *     0.0000       3.9207 *  0.0000     4          
   413  O     c     -6.2729 *     5.8810 *    17.6430 *  0.0000     8          
   414  Li    c    -14.1143 *    13.7224 *     0.0000    0.0000     4          
   415  Cl    c     15.2908 *     3.9207 *    11.7620 *  0.0000     8          
   416  O     c    -10.1936 *     9.8017 *    13.7224 *  0.0000     8          
   417  Li    c    -16.0746 *     5.8810 *     9.8017 *  0.0000     8          
   418  Li    c      3.5288 *    13.7224 *    13.7224    0.0000     4          
   419  Li    c    -18.0349 *    -1.9603 *     7.8414 *  0.0000     8          
   420  Li    c      1.5685 *    -1.9603 *    19.6034 *  0.0000     8          
   421  Cl    c     11.3701 *     3.9207 *    15.6827 *  0.0000     8          
   422  O     c    -14.1143 *    13.7224 *    -1.9603 *  0.0000     8          
   423  O     c    -14.1143 *     9.8017 *     9.8017    0.0000     4          
   424  Cl    c    -12.1539 *     0.0000      15.6827 *  0.0000     4          
   425  Li    c     -2.3522 *    -1.9603 *    19.6034 *  0.0000     8          
   426  Li    c     17.2512 *     9.8017 *     0.0000    0.0000     4          
   427  Li    c     17.2512 *     7.8414 *     5.8810 *  0.0000     8          
   428  O     c    -18.0349 *     5.8810 *     5.8810    0.0000     4          
   429  Li    c     -4.3126 *    13.7224 *    13.7224    0.0000     4          
   430  Cl    c    -16.0746 *     0.0000      11.7620 *  0.0000     4          
   431  Cl    c      3.5288 *    11.7620 *    15.6827 *  0.0000     8          
   432  Cl    c      3.5288 *     0.0000      19.6034 *  0.0000     4          
   433  O     c     17.2512 *     9.8017 *    -1.9603 *  0.0000     8          
   434  Cl    c    -19.9953 *     0.0000       0.0000    0.0000     1          
   435  Cl    c     -0.3919 *     3.9207 *    19.6034 *  0.0000     8          
   436  Li    c      9.4098 *    17.6430 *     0.0000    0.0000     4          
   437  Cl    c     19.2115 *     3.9207 *     3.9207    0.0000     4          
   438  Cl    s      1.1446       0.0000       0.0000    0.0000     1    Defect
   439  O     s      1.5685 *    -1.9603 *    -1.9603    0.0000     4          
   440  O     s     -2.3522 *    -1.9603 *    -1.9603    0.0000     4          
   441  Cl    s     -0.3919 *     0.0000       3.9207 *  0.0000     4          
   442  Cl    s     -4.3126 *     0.0000       0.0000    0.0000     1          
   443  Cl    s      3.5288 *     0.0000       3.9207 *  0.0000     4          
   444  Cl    s     -0.3919 *     3.9207 *     3.9207    0.0000     4          
   445  Cl    s     -4.3126 *     0.0000       3.9207 *  0.0000     4          
   446  O     s      5.4891 *    -1.9603 *    -1.9603    0.0000     4          
   447  O     s      1.5685 *     5.8810 *    -1.9603 *  0.0000     8          
   448  Cl    s      3.5288 *     3.9207 *     3.9207    0.0000     4          
   449  O     s     -2.3522 *    -1.9603 *     5.8810 *  0.0000     8          
   450  O     s     -6.2729 *    -1.9603 *    -1.9603    0.0000     4          
   451  Cl    s     -4.3126 *     3.9207 *     3.9207    0.0000     4          
   452  Cl    s      7.4495 *     0.0000       0.0000    0.0000     1          
   453  Cl    s     -0.3919 *     0.0000       7.8414 *  0.0000     4          
   454  Cl    s     -8.2332 *     0.0000       0.0000    0.0000     1          
   455  O     s      5.4891 *    -1.9603 *     5.8810 *  0.0000     8          
   456  Cl    s      7.4495 *     0.0000       3.9207 *  0.0000     4          
   457  O     s      1.5685 *     5.8810 *     5.8810    0.0000     4          
   458  Cl    s      3.5288 *     0.0000       7.8414 *  0.0000     4          
   459  O     s     -2.3522 *     5.8810 *     5.8810    0.0000     4          
   460  Cl    s     -0.3919 *     3.9207 *     7.8414 *  0.0000     8          
   461  O     s     -6.2729 *    -1.9603 *     5.8810 *  0.0000     8          
   462  Cl    s     -4.3126 *     0.0000       7.8414 *  0.0000     4          
   463  Cl    s     -8.2332 *     0.0000       3.9207 *  0.0000     4          
   464  Cl    s      7.4495 *     3.9207 *     3.9207    0.0000     4          
   465  Cl    s      3.5288 *     3.9207 *     7.8414 *  0.0000     8          
   466  Cl    s     -4.3126 *     3.9207 *     7.8414 *  0.0000     8          
   467  O     s      9.4098 *    -1.9603 *    -1.9603    0.0000     4          
   468  Cl    s     -8.2332 *     3.9207 *     3.9207    0.0000     4          
   469  O     s      5.4891 *     5.8810 *     5.8810    0.0000     4          
   470  O     s      1.5685 *    -1.9603 *     9.8017 *  0.0000     8          
   471  O     s     -2.3522 *    -1.9603 *     9.8017 *  0.0000     8          
   472  O     s     -6.2729 *     5.8810 *     5.8810    0.0000     4          
   473  O     s    -10.1936 *    -1.9603 *    -1.9603    0.0000     4          
   474  Cl    s      7.4495 *     0.0000       7.8414 *  0.0000     4          
   475  Cl    s     -0.3919 *     7.8414 *     7.8414    0.0000     4          
   476  O     s      9.4098 *    -1.9603 *     5.8810 *  0.0000     8          
   477  Cl    s     -8.2332 *     0.0000       7.8414 *  0.0000     4          
   478  Cl    s     11.3701 *     0.0000       0.0000    0.0000     1          
   479  O     s      5.4891 *    -1.9603 *     9.8017 *  0.0000     8          
   480  Cl    s      7.4495 *     3.9207 *     7.8414 *  0.0000     8          
   481  O     s      1.5685 *     5.8810 *     9.8017 *  0.0000     8          
   482  Cl    s      3.5288 *     7.8414 *     7.8414    0.0000     4          
   483  O     s     -2.3522 *     5.8810 *     9.8017 *  0.0000     8          
   484  Cl    s     -0.3919 *     0.0000      11.7620 *  0.0000     4          
   485  O     s     -6.2729 *    -1.9603 *     9.8017 *  0.0000     8          
   486  Cl    s     -4.3126 *     7.8414 *     7.8414    0.0000     4          
   487  O     s    -10.1936 *    -1.9603 *     5.8810 *  0.0000     8          
   488  Cl    s     -8.2332 *     7.8414 *     3.9207 *  0.0000     8          
   489  Cl    s     11.3701 *     0.0000       3.9207 *  0.0000     4          
   490  Cl    s    -12.1539 *     0.0000       0.0000    0.0000     1          
   491  Cl    s      3.5288 *     0.0000      11.7620 *  0.0000     4          
   492  Cl    s     -0.3919 *    11.7620 *     3.9207 *  0.0000     8          
   493  Cl    s     -4.3126 *     0.0000      11.7620 *  0.0000     4          
   494  O     s      9.4098 *     5.8810 *     5.8810    0.0000     4          
   495  Cl    s     11.3701 *     3.9207 *     3.9207    0.0000     4          
   496  O     s      5.4891 *     5.8810 *     9.8017 *  0.0000     8          
   497  Cl    s    -12.1539 *     0.0000       3.9207 *  0.0000     4          
   498  Cl    s      3.5288 *     3.9207 *    11.7620 *  0.0000     8          
   499  O     s     -6.2729 *     5.8810 *     9.8017 *  0.0000     8          
   500  Cl    s     -4.3126 *    11.7620 *     3.9207 *  0.0000     8          
   501  O     s    -10.1936 *     5.8810 *     5.8810    0.0000     4          
   502  Cl    s    -12.1539 *     3.9207 *     3.9207    0.0000     4          
   503  Cl    s      7.4495 *     7.8414 *     7.8414    0.0000     4          
   504  O     s     13.3305 *    -1.9603 *    -1.9603    0.0000     4          
   505  O     s      9.4098 *    -1.9603 *     9.8017 *  0.0000     8          
   506  Cl    s     -8.2332 *     7.8414 *     7.8414    0.0000     4          
   507  Cl    s     11.3701 *     0.0000       7.8414 *  0.0000     4          
   508  Cl    s      7.4495 *     0.0000      11.7620 *  0.0000     4          
   509  O     s      1.5685 *    -1.9603 *    13.7224 *  0.0000     8          
   510  O     s      1.5685 *     9.8017 *     9.8017    0.0000     4          
   511  O     s     -2.3522 *    -1.9603 *    13.7224 *  0.0000     8          
   512  O     s     -2.3522 *     9.8017 *     9.8017    0.0000     4          
   513  Cl    s     -0.3919 *    11.7620 *     7.8414 *  0.0000     8          
   514  O     s    -10.1936 *    -1.9603 *     9.8017 *  0.0000     8          
   515  Cl    s     -8.2332 *     0.0000      11.7620 *  0.0000     4          
   516  Cl    s     11.3701 *     3.9207 *     7.8414 *  0.0000     8          
   517  O     s    -14.1143 *    -1.9603 *    -1.9603    0.0000     4          
   518  Cl    s    -12.1539 *     0.0000       7.8414 *  0.0000     4          
   519  Cl    s      7.4495 *     3.9207 *    11.7620 *  0.0000     8          
   520  Cl    s      3.5288 *     7.8414 *    11.7620 *  0.0000     8          
   521  O     s     13.3305 *    -1.9603 *     5.8810 *  0.0000     8          
   522  Cl    s     -4.3126 *    11.7620 *     7.8414 *  0.0000     8          
   523  O     s      9.4098 *     5.8810 *     9.8017 *  0.0000     8          
   524  Cl    s     -8.2332 *    11.7620 *     3.9207 *  0.0000     8          
   525  O     s      5.4891 *    -1.9603 *    13.7224 *  0.0000     8          
   526  O     s      5.4891 *     9.8017 *     9.8017    0.0000     4          
   527  Cl    s    -12.1539 *     3.9207 *     7.8414 *  0.0000     8          
   528  O     s      1.5685 *     5.8810 *    13.7224 *  0.0000     8          
   529  O     s     -2.3522 *     5.8810 *    13.7224 *  0.0000     8          
   530  O     s     -6.2729 *    -1.9603 *    13.7224 *  0.0000     8          
   531  O     s     -6.2729 *     9.8017 *     9.8017    0.0000     4          
   532  Cl    s     15.2908 *     0.0000       0.0000    0.0000     1          
   533  O     s    -10.1936 *     5.8810 *     9.8017 *  0.0000     8          
   534  O     s    -14.1143 *    -1.9603 *     5.8810 *  0.0000     8          
   535  Cl    s     -0.3919 *     0.0000      15.6827 *  0.0000     4          
   536  O     s     13.3305 *     5.8810 *     5.8810    0.0000     4          
   537  Cl    s     15.2908 *     0.0000       3.9207 *  0.0000     4          
   538  Cl    s     11.3701 *     7.8414 *     7.8414    0.0000     4          
   539  O     s      5.4891 *     5.8810 *    13.7224 *  0.0000     8          
   540  Cl    s      7.4495 *     7.8414 *    11.7620 *  0.0000     8          
   541  Cl    s    -16.0746 *     0.0000       0.0000    0.0000     1          
   542  Cl    s      3.5288 *     0.0000      15.6827 *  0.0000     4          
   543  Cl    s     -0.3919 *     3.9207 *    15.6827 *  0.0000     8          
   544  O     s     -6.2729 *     5.8810 *    13.7224 *  0.0000     8          
   545  Cl    s     -4.3126 *     0.0000      15.6827 *  0.0000     4          
   546  Cl    s     15.2908 *     3.9207 *     3.9207    0.0000     4          
   547  Cl    s     -8.2332 *     7.8414 *    11.7620 *  0.0000     8          
   548  Cl    s     11.3701 *     0.0000      11.7620 *  0.0000     4          
   549  O     s    -14.1143 *     5.8810 *     5.8810    0.0000     4          
   550  Cl    s    -12.1539 *     7.8414 *     7.8414    0.0000     4          
   551  Cl    s    -16.0746 *     0.0000       3.9207 *  0.0000     4          
   552  Cl    s      3.5288 *     3.9207 *    15.6827 *  0.0000     8          
   553  Cl    s     -0.3919 *    11.7620 *    11.7620    0.0000     4          
   554  O     s     13.3305 *    -1.9603 *     9.8017 *  0.0000     8          
   555  Cl    s     -4.3126 *     3.9207 *    15.6827 *  0.0000     8          
   556  O     s      9.4098 *    -1.9603 *    13.7224 *  0.0000     8          
   557  O     s      9.4098 *     9.8017 *     9.8017    0.0000     4          
   558  Cl    s     11.3701 *     3.9207 *    11.7620 *  0.0000     8          
   559  Cl    s    -12.1539 *     0.0000      11.7620 *  0.0000     4          
   560  O     s      1.5685 *     9.8017 *    13.7224 *  0.0000     8          
   561  Cl    s    -16.0746 *     3.9207 *     3.9207    0.0000     4          
   562  Cl    s      3.5288 *    11.7620 *    11.7620    0.0000     4          
   563  O     s     -2.3522 *     9.8017 *    13.7224 *  0.0000     8          
   564  Cl    s     -4.3126 *    11.7620 *    11.7620    0.0000     4          
   565  Cl    s     15.2908 *     0.0000       7.8414 *  0.0000     4          
   566  O     s    -10.1936 *    -1.9603 *    13.7224 *  0.0000     8          
   567  O     s    -10.1936 *     9.8017 *     9.8017    0.0000     4          
   568  O     s    -14.1143 *     9.8017 *    -1.9603 *  0.0000     8          
   569  Cl    s    -12.1539 *     3.9207 *    11.7620 *  0.0000     8          
   570  Cl    s      7.4495 *     0.0000      15.6827 *  0.0000     4          
   571  O     s     17.2512 *    -1.9603 *    -1.9603    0.0000     4          
   572  Cl    s     -0.3919 *     7.8414 *    15.6827 *  0.0000     8          
   573  O     s     13.3305 *     5.8810 *     9.8017 *  0.0000     8          
   574  Cl    s     15.2908 *     3.9207 *     7.8414 *  0.0000     8          
   575  O     s      9.4098 *     5.8810 *    13.7224 *  0.0000     8          
   576  Cl    s     -8.2332 *     0.0000      15.6827 *  0.0000     4          
   577  O     s      5.4891 *     9.8017 *    13.7224 *  0.0000     8          
   578  Cl    s      7.4495 *     3.9207 *    15.6827 *  0.0000     8          
   579  O     s      1.5685 *    -1.9603 *    17.6430 *  0.0000     8          
   580  Cl    s    -16.0746 *     0.0000       7.8414 *  0.0000     4          
   581  Cl    s      3.5288 *     7.8414 *    15.6827 *  0.0000     8          
   582  O     s     -2.3522 *    -1.9603 *    17.6430 *  0.0000     8          
   583  O     s     -6.2729 *     9.8017 *    13.7224 *  0.0000     8          
   584  Cl    s     -4.3126 *     7.8414 *    15.6827 *  0.0000     8          
   585  O     s    -10.1936 *     5.8810 *    13.7224 *  0.0000     8          
   586  Cl    s     -8.2332 *     3.9207 *    15.6827 *  0.0000     8          
   587  Cl    s     11.3701 *     7.8414 *    11.7620 *  0.0000     8          
   588  O     s    -14.1143 *     9.8017 *     5.8810 *  0.0000     8          
   589  Cl    s      7.4495 *    11.7620 *    11.7620    0.0000     4          
   590  O     s    -18.0349 *    -1.9603 *    -1.9603    0.0000     4          
   591  Cl    s    -16.0746 *     3.9207 *     7.8414 *  0.0000     8          
   592  O     s     17.2512 *    -1.9603 *     5.8810 *  0.0000     8          
   593  Cl    s     -8.2332 *    11.7620 *    11.7620    0.0000     4          
   594  O     s      5.4891 *    17.6430 *    -1.9603 *  0.0000     8          
   595  Cl    s    -12.1539 *     7.8414 *    11.7620 *  0.0000     8          
   596  O     s      1.5685 *     5.8810 *    17.6430 *  0.0000     8          
   597  O     s     -2.3522 *     5.8810 *    17.6430 *  0.0000     8          
   598  O     s     -6.2729 *    -1.9603 *    17.6430 *  0.0000     8          
   599  Cl    s     15.2908 *     7.8414 *     7.8414    0.0000     4          
   600  Cl    s      7.4495 *     7.8414 *    15.6827 *  0.0000     8          
   601  O     s    -18.0349 *     5.8810 *    -1.9603 *  0.0000     8          
   602  O     s     17.2512 *     5.8810 *     5.8810    0.0000     4          
   603  Cl    s     19.2115 *     0.0000       0.0000    0.0000     1          
   604  O     s     13.3305 *    -1.9603 *    13.7224 *  0.0000     8          
   605  O     s     13.3305 *     9.8017 *     9.8017    0.0000     4          
   606  Cl    s     15.2908 *     0.0000      11.7620 *  0.0000     4          
   607  O     s      9.4098 *     9.8017 *    13.7224 *  0.0000     8          
   608  Cl    s     -8.2332 *     7.8414 *    15.6827 *  0.0000     8          
   609  Cl    s     11.3701 *     0.0000      15.6827 *  0.0000     4          
   610  O     s      5.4891 *    17.6430 *     5.8810 *  0.0000     8          
   611  O     s      1.5685 *    13.7224 *    13.7224    0.0000     4          
   612  Cl    s    -16.0746 *     7.8414 *     7.8414    0.0000     4          
   613  O     s     -2.3522 *    13.7224 *    13.7224    0.0000     4          
   614  Cl    s     -0.3919 *    11.7620 *    15.6827 *  0.0000     8          
   615  Cl    s     -0.3919 *     0.0000      19.6034 *  0.0000     4          
   616  Cl    s     19.2115 *     0.0000       3.9207 *  0.0000     4          
   617  O     s     -6.2729 *     5.8810 *    17.6430 *  0.0000     8          
   618  Cl    s     15.2908 *     3.9207 *    11.7620 *  0.0000     8          
   619  O     s    -10.1936 *     9.8017 *    13.7224 *  0.0000     8          
   620  Cl    s     11.3701 *     3.9207 *    15.6827 *  0.0000     8          
   621  O     s    -14.1143 *    13.7224 *    -1.9603 *  0.0000     8          
   622  O     s    -14.1143 *     9.8017 *     9.8017    0.0000     4          
   623  Cl    s    -12.1539 *     0.0000      15.6827 *  0.0000     4          
   624  O     s    -18.0349 *     5.8810 *     5.8810    0.0000     4          
   625  Cl    s    -16.0746 *     0.0000      11.7620 *  0.0000     4          
   626  Cl    s      3.5288 *    11.7620 *    15.6827 *  0.0000     8          
   627  Cl    s      3.5288 *     0.0000      19.6034 *  0.0000     4          
   628  O     s     17.2512 *     9.8017 *    -1.9603 *  0.0000     8          
   629  Cl    s    -19.9953 *     0.0000       0.0000    0.0000     1          
   630  Cl    s     -0.3919 *     3.9207 *    19.6034 *  0.0000     8          
   631  Cl    s     19.2115 *     3.9207 *     3.9207    0.0000     4          
--------------------------------------------------------------------------------


  Constraints on symmetry reduced coordinates :

--------------------------------------------------------------------------------
  Constraint no.      Unconstrained     Constrained    Coefficient    
                         Variable         Variable
--------------------------------------------------------------------------------
           1                 3 y             3 z         1.00000
           2                 5 y             5 z         1.00000
           3                 6 y             6 z         1.00000
           4                 9 y             9 z         1.00000
           5                12 y            12 z         1.00000
           6                14 y            14 z         1.00000
           7                18 y            18 z         1.00000
           8                23 y            23 z         1.00000
           9                25 y            25 z         1.00000
          10                26 y            26 z         1.00000
          11                35 y            35 z         1.00000
          12                40 y            40 z         1.00000
          13                43 y            43 z         1.00000
          14                46 y            46 z         1.00000
          15                47 y            47 z         1.00000
          16                52 y            52 z         1.00000
          17                54 y            54 z         1.00000
          18                55 y            55 z         1.00000
          19                62 y            62 z         1.00000
          20                63 y            63 z         1.00000
          21                66 y            66 z         1.00000
          22                76 y            76 z         1.00000
          23                77 y            77 z         1.00000
          24                84 y            84 z         1.00000
          25                86 y            86 z         1.00000
          26                98 y            98 z         1.00000
          27               100 y           100 z         1.00000
          28               101 y           101 z         1.00000
          29               106 y           106 z         1.00000
          30               121 y           121 z         1.00000
          31               124 y           124 z         1.00000
          32               126 y           126 z         1.00000
          33               137 y           137 z         1.00000
          34               139 y           139 z         1.00000
          35               141 y           141 z         1.00000
          36               146 y           146 z         1.00000
          37               151 y           151 z         1.00000
          38               155 y           155 z         1.00000
          39               159 y           159 z         1.00000
          40               163 y           163 z         1.00000
          41               165 y           165 z         1.00000
          42               174 y           174 z         1.00000
          43               178 y           178 z         1.00000
          44               183 y           183 z         1.00000
          45               189 y           189 z         1.00000
          46               196 y           196 z         1.00000
          47               206 y           206 z         1.00000
          48               216 y           216 z         1.00000
          49               222 y           222 z         1.00000
          50               225 y           225 z         1.00000
          51               230 y           230 z         1.00000
          52               238 y           238 z         1.00000
          53               247 y           247 z         1.00000
          54               248 y           248 z         1.00000
          55               251 y           251 z         1.00000
          56               252 y           252 z         1.00000
          57               260 y           260 z         1.00000
          58               269 y           269 z         1.00000
          59               276 y           276 z         1.00000
          60               279 y           279 z         1.00000
          61               287 y           287 z         1.00000
          62               290 y           290 z         1.00000
          63               298 y           298 z         1.00000
          64               299 y           299 z         1.00000
          65               321 y           321 z         1.00000
          66               326 y           326 z         1.00000
          67               336 y           336 z         1.00000
          68               338 y           338 z         1.00000
          69               348 y           348 z         1.00000
          70               353 y           353 z         1.00000
          71               372 y           372 z         1.00000
          72               384 y           384 z         1.00000
          73               388 y           388 z         1.00000
          74               400 y           400 z         1.00000
          75               401 y           401 z         1.00000
          76               403 y           403 z         1.00000
          77               404 y           404 z         1.00000
[...]
    551 y          0.000000      0.000000     0.000000    Cartesian    0.00
    551 z          3.920675      3.919051    -0.001625    Cartesian   -0.04
    552 x          3.920675      3.921552     0.000876    Cartesian    0.02
    552 y          3.920675      3.920327    -0.000349    Cartesian   -0.01
    552 z         15.682702     15.680444    -0.002258    Cartesian   -0.01
    553 x          0.000000      0.000194     0.000194    Cartesian *******
    553 y         11.762026     11.760839    -0.001188    Cartesian   -0.01
    553 z         11.762026     11.760839    -0.001188    Cartesian   -0.01
    554 x         13.722364     13.721910    -0.000454    Cartesian   -0.00
    554 y         -1.960338     -1.960103     0.000234    Cartesian   -0.01
    554 z          9.801689      9.800713    -0.000976    Cartesian   -0.01
    555 x         -3.920675     -3.918528     0.002147    Cartesian   -0.05
    555 y          3.920675      3.919328    -0.001347    Cartesian   -0.03
    555 z         15.682702     15.679633    -0.003069    Cartesian   -0.02
    556 x          9.801689      9.803332     0.001643    Cartesian    0.02
    556 y         -1.960338     -1.960321     0.000016    Cartesian   -0.00
    556 z         13.722364     13.723826     0.001461    Cartesian    0.01
    557 x          9.801689      9.804517     0.002828    Cartesian    0.03
    557 y          9.801689      9.803092     0.001404    Cartesian    0.01
    557 z          9.801689      9.803092     0.001404    Cartesian    0.01
    558 x         11.762026     11.762110     0.000083    Cartesian    0.00
    558 y          3.920675      3.920217    -0.000459    Cartesian   -0.01
    558 z         11.762026     11.759590    -0.002437    Cartesian   -0.02
    559 x        -11.762026    -11.754646     0.007380    Cartesian   -0.06
    559 y          0.000000      0.000000     0.000000    Cartesian    0.00
    559 z         11.762026     11.755586    -0.006441    Cartesian   -0.05
    560 x          1.960338      1.960613     0.000275    Cartesian    0.01
    560 y          9.801689      9.802898     0.001210    Cartesian    0.01
    560 z         13.722364     13.723663     0.001299    Cartesian    0.01
    561 x        -15.682702    -15.676513     0.006189    Cartesian   -0.04
    561 y          3.920675      3.918776    -0.001900    Cartesian   -0.05
    561 z          3.920675      3.918776    -0.001900    Cartesian   -0.05
    562 x          3.920675      3.922198     0.001522    Cartesian    0.04
    562 y         11.762026     11.761506    -0.000520    Cartesian   -0.00
    562 z         11.762026     11.761506    -0.000520    Cartesian   -0.00
    563 x         -1.960338     -1.961265    -0.000927    Cartesian    0.05
    563 y          9.801689      9.802135     0.000446    Cartesian    0.00
    563 z         13.722364     13.722991     0.000627    Cartesian    0.00
    564 x         -3.920675     -3.920288     0.000387    Cartesian   -0.01
    564 y         11.762026     11.760005    -0.002022    Cartesian   -0.02
    564 z         11.762026     11.760005    -0.002022    Cartesian   -0.02
    565 x         15.682702     15.677785    -0.004917    Cartesian   -0.03
    565 y          0.000000      0.000000     0.000000    Cartesian    0.00
    565 z          7.841351      7.837070    -0.004281    Cartesian   -0.05
    566 x         -9.801689     -9.799574     0.002115    Cartesian   -0.02
    566 y         -1.960338     -1.960428    -0.000090    Cartesian    0.00
    566 z         13.722364     13.720360    -0.002004    Cartesian   -0.01
    567 x         -9.801689     -9.799341     0.002347    Cartesian   -0.02
    567 y          9.801689      9.799409    -0.002280    Cartesian   -0.02
    567 z          9.801689      9.799409    -0.002280    Cartesian   -0.02
    568 x        -13.722364    -13.719089     0.003275    Cartesian   -0.02
    568 y          9.801689      9.799278    -0.002411    Cartesian   -0.02
    568 z         -1.960338     -1.960391    -0.000053    Cartesian    0.00
    569 x        -11.762026    -11.757000     0.005026    Cartesian   -0.04
    569 y          3.920675      3.919768    -0.000908    Cartesian   -0.02
    569 z         11.762026     11.757754    -0.004272    Cartesian   -0.04
    570 x          7.841351      7.842118     0.000767    Cartesian    0.01
    570 y          0.000000      0.000000     0.000000    Cartesian    0.00
    570 z         15.682702     15.680962    -0.001740    Cartesian   -0.01
    571 x         17.643040     17.641399    -0.001640    Cartesian   -0.01
    571 y         -1.960338     -1.959854     0.000484    Cartesian   -0.02
    571 z         -1.960338     -1.959854     0.000484    Cartesian   -0.02
    572 x          0.000000      0.000601     0.000601    Cartesian *******
    572 y          7.841351      7.841017    -0.000334    Cartesian   -0.00
    572 z         15.682702     15.680986    -0.001716    Cartesian   -0.01
    573 x         13.722364     13.722956     0.000592    Cartesian    0.00
    573 y          5.881013      5.880914    -0.000099    Cartesian   -0.00
    573 z          9.801689      9.801294    -0.000395    Cartesian   -0.00
    574 x         15.682702     15.679430    -0.003272    Cartesian   -0.02
    574 y          3.920675      3.919838    -0.000838    Cartesian   -0.02
    574 z          7.841351      7.838388    -0.002963    Cartesian   -0.04
    575 x          9.801689      9.803563     0.001875    Cartesian    0.02
    575 y          5.881013      5.881719     0.000706    Cartesian    0.01
    575 z         13.722364     13.723851     0.001487    Cartesian    0.01
    576 x         -7.841351     -7.839432     0.001919    Cartesian   -0.02
    576 y          0.000000      0.000000     0.000000    Cartesian    0.00
    576 z         15.682702     15.679866    -0.002836    Cartesian   -0.02
    577 x          5.881013      5.882538     0.001525    Cartesian    0.03
    577 y          9.801689      9.803085     0.001396    Cartesian    0.01
    577 z         13.722364     13.724043     0.001679    Cartesian    0.01
    578 x          7.841351      7.842571     0.001220    Cartesian    0.02
    578 y          3.920675      3.920437    -0.000238    Cartesian   -0.01
    578 z         15.682702     15.680801    -0.001901    Cartesian   -0.01
    579 x          1.960338      1.961004     0.000666    Cartesian    0.03
    579 y         -1.960338     -1.960714    -0.000377    Cartesian    0.02
    579 z         17.643040     17.643383     0.000344    Cartesian    0.00
    580 x        -15.682702    -15.677983     0.004719    Cartesian   -0.03
    580 y          0.000000      0.000000     0.000000    Cartesian    0.00
    580 z          7.841351      7.839509    -0.001842    Cartesian   -0.02
    581 x          3.920675      3.921486     0.000810    Cartesian    0.02
    581 y          7.841351      7.841303    -0.000048    Cartesian   -0.00
    581 z         15.682702     15.680957    -0.001745    Cartesian   -0.01
    582 x         -1.960338     -1.960897    -0.000560    Cartesian    0.03
    582 y         -1.960338     -1.960182     0.000156    Cartesian   -0.01
    582 z         17.643040     17.643360     0.000320    Cartesian    0.00
    583 x         -5.881013     -5.880974     0.000039    Cartesian   -0.00
    583 y          9.801689      9.801609    -0.000079    Cartesian   -0.00
    583 z         13.722364     13.722247    -0.000117    Cartesian   -0.00
    584 x         -3.920675     -3.919598     0.001078    Cartesian   -0.03
    584 y          7.841351      7.840605    -0.000746    Cartesian   -0.01
    584 z         15.682702     15.680367    -0.002335    Cartesian   -0.01
    585 x         -9.801689     -9.801057     0.000631    Cartesian   -0.01
    585 y          5.881013      5.879973    -0.001040    Cartesian   -0.02
    585 z         13.722364     13.721445    -0.000919    Cartesian   -0.01
    586 x         -7.841351     -7.839812     0.001539    Cartesian   -0.02
    586 y          3.920675      3.919531    -0.001145    Cartesian   -0.03
    586 z         15.682702     15.679833    -0.002869    Cartesian   -0.02
    587 x         11.762026     11.762588     0.000561    Cartesian    0.00
    587 y          7.841351      7.839757    -0.001594    Cartesian   -0.02
    587 z         11.762026     11.759970    -0.002057    Cartesian   -0.02
    588 x        -13.722364    -13.720455     0.001909    Cartesian   -0.01
    588 y          9.801689      9.800550    -0.001139    Cartesian   -0.01
    588 z          5.881013      5.879770    -0.001244    Cartesian   -0.02
    589 x          7.841351      7.842275     0.000924    Cartesian    0.01
    589 y         11.762026     11.761230    -0.000797    Cartesian   -0.01
    589 z         11.762026     11.761230    -0.000797    Cartesian   -0.01
    590 x        -17.643040    -17.640689     0.002350    Cartesian   -0.01
    590 y         -1.960338     -1.960426    -0.000089    Cartesian    0.00
    590 z         -1.960338     -1.960426    -0.000089    Cartesian    0.00
    591 x        -15.682702    -15.678057     0.004645    Cartesian   -0.03
    591 y          3.920675      3.919275    -0.001401    Cartesian   -0.04
    591 z          7.841351      7.839814    -0.001537    Cartesian   -0.02
    592 x         17.643040     17.641867    -0.001173    Cartesian   -0.01
    592 y         -1.960338     -1.959956     0.000381    Cartesian   -0.02
    592 z          5.881013      5.880864    -0.000149    Cartesian   -0.00
    593 x         -7.841351     -7.839402     0.001949    Cartesian   -0.02
    593 y         11.762026     11.759522    -0.002505    Cartesian   -0.02
    593 z         11.762026     11.759522    -0.002505    Cartesian   -0.02
    594 x          5.881013      5.881744     0.000731    Cartesian    0.01
    594 y         17.643040     17.643077     0.000037    Cartesian    0.00
    594 z         -1.960338     -1.960630    -0.000292    Cartesian    0.01
    595 x        -11.762026    -11.758282     0.003744    Cartesian   -0.03
    595 y          7.841351      7.838558    -0.002793    Cartesian   -0.04
    595 z         11.762026     11.758756    -0.003270    Cartesian   -0.03
    596 x          1.960338      1.960699     0.000362    Cartesian    0.02
    596 y          5.881013      5.881627     0.000614    Cartesian    0.01
    596 z         17.643040     17.642907    -0.000133    Cartesian   -0.00
    597 x         -1.960338     -1.960367    -0.000029    Cartesian    0.00
    597 y          5.881013      5.881170     0.000157    Cartesian    0.00
    597 z         17.643040     17.642732    -0.000308    Cartesian   -0.00
    598 x         -5.881013     -5.880849     0.000164    Cartesian   -0.00
    598 y         -1.960338     -1.960150     0.000188    Cartesian   -0.01
    598 z         17.643040     17.642273    -0.000766    Cartesian   -0.00
    599 x         15.682702     15.680387    -0.002315    Cartesian   -0.01
    599 y          7.841351      7.839234    -0.002117    Cartesian   -0.03
    599 z          7.841351      7.839234    -0.002117    Cartesian   -0.03
    600 x          7.841351      7.841319    -0.000032    Cartesian   -0.00
    600 y          7.841351      7.840116    -0.001235    Cartesian   -0.02
    600 z         15.682702     15.680124    -0.002578    Cartesian   -0.02
    601 x        -17.643040    -17.641023     0.002017    Cartesian   -0.01
    601 y          5.881013      5.880528    -0.000485    Cartesian   -0.01
    601 z         -1.960338     -1.960080     0.000258    Cartesian   -0.01
    602 x         17.643040     17.642676    -0.000364    Cartesian   -0.00
    602 y          5.881013      5.880779    -0.000234    Cartesian   -0.00
    602 z          5.881013      5.880779    -0.000234    Cartesian   -0.00
    603 x         19.603377     19.599097    -0.004280    Cartesian   -0.02
    603 y          0.000000      0.000000     0.000000    Cartesian    0.00
    603 z          0.000000      0.000000     0.000000    Cartesian    0.00
    604 x         13.722364     13.722221    -0.000143    Cartesian   -0.00
    604 y         -1.960338     -1.960235     0.000103    Cartesian   -0.01
    604 z         13.722364     13.721544    -0.000820    Cartesian   -0.01
    605 x         13.722364     13.721111    -0.001253    Cartesian   -0.01
    605 y          9.801689      9.800004    -0.001684    Cartesian   -0.02
    605 z          9.801689      9.800004    -0.001684    Cartesian   -0.02
    606 x         15.682702     15.679888    -0.002814    Cartesian   -0.02
    606 y          0.000000      0.000000     0.000000    Cartesian    0.00
    606 z         11.762026     11.759131    -0.002895    Cartesian   -0.02
    607 x          9.801689      9.801214    -0.000475    Cartesian   -0.00
    607 y          9.801689      9.800526    -0.001163    Cartesian   -0.01
    607 z         13.722364     13.721121    -0.001243    Cartesian   -0.01
    608 x         -7.841351     -7.839226     0.002125    Cartesian   -0.03
    608 y          7.841351      7.839290    -0.002061    Cartesian   -0.03
    608 z         15.682702     15.678908    -0.003794    Cartesian   -0.02
    609 x         11.762026     11.761236    -0.000791    Cartesian   -0.01
    609 y          0.000000      0.000000     0.000000    Cartesian    0.00
    609 z         15.682702     15.679689    -0.003013    Cartesian   -0.02
    610 x          5.881013      5.880527    -0.000487    Cartesian   -0.01
    610 y         17.643040     17.641359    -0.001681    Cartesian   -0.01
    610 z          5.881013      5.880251    -0.000762    Cartesian   -0.01
    611 x          1.960338      1.960386     0.000049    Cartesian    0.00
    611 y         13.722364     13.722017    -0.000347    Cartesian   -0.00
    611 z         13.722364     13.722017    -0.000347    Cartesian   -0.00
    612 x        -15.682702    -15.677565     0.005137    Cartesian   -0.03
    612 y          7.841351      7.838973    -0.002378    Cartesian   -0.03
    612 z          7.841351      7.838973    -0.002378    Cartesian   -0.03
    613 x         -1.960338     -1.960537    -0.000200    Cartesian    0.01
    613 y         13.722364     13.721533    -0.000831    Cartesian   -0.01
    613 z         13.722364     13.721533    -0.000831    Cartesian   -0.01
    614 x          0.000000      0.000553     0.000553    Cartesian *******
    614 y         11.762026     11.759742    -0.002285    Cartesian   -0.02
    614 z         15.682702     15.679055    -0.003647    Cartesian   -0.02
    615 x          0.000000      0.000706     0.000706    Cartesian *******
    615 y          0.000000      0.000000     0.000000    Cartesian    0.00
    615 z         19.603377     19.599020    -0.004357    Cartesian   -0.02
    616 x         19.603377     19.597998    -0.005380    Cartesian   -0.03
    616 y          0.000000      0.000000     0.000000    Cartesian    0.00
    616 z          3.920675      3.919333    -0.001343    Cartesian   -0.03
    617 x         -5.881013     -5.879984     0.001029    Cartesian   -0.02
    617 y          5.881013      5.879933    -0.001080    Cartesian   -0.02
    617 z         17.643040     17.640837    -0.002203    Cartesian   -0.01
    618 x         15.682702     15.679168    -0.003534    Cartesian   -0.02
    618 y          3.920675      3.919461    -0.001214    Cartesian   -0.03
    618 z         11.762026     11.758446    -0.003580    Cartesian   -0.03
    619 x         -9.801689     -9.799858     0.001831    Cartesian   -0.02
    619 y          9.801689      9.799720    -0.001968    Cartesian   -0.02
    619 z         13.722364     13.719993    -0.002371    Cartesian   -0.02
    620 x         11.762026     11.760698    -0.001329    Cartesian   -0.01
    620 y          3.920675      3.919519    -0.001156    Cartesian   -0.03
    620 z         15.682702     15.678568    -0.004134    Cartesian   -0.03
    621 x        -13.722364    -13.719689     0.002676    Cartesian   -0.02
    621 y         13.722364     13.719754    -0.002610    Cartesian   -0.02
    621 z         -1.960338     -1.959600     0.000738    Cartesian   -0.04
    622 x        -13.722364    -13.719566     0.002798    Cartesian   -0.02
    622 y          9.801689      9.799537    -0.002152    Cartesian   -0.02
    622 z          9.801689      9.799537    -0.002152    Cartesian   -0.02
    623 x        -11.762026    -11.757747     0.004279    Cartesian   -0.04
    623 y          0.000000      0.000000     0.000000    Cartesian    0.00
    623 z         15.682702     15.677580    -0.005122    Cartesian   -0.03
    624 x        -17.643040    -17.639967     0.003073    Cartesian   -0.02
    624 y          5.881013      5.879831    -0.001182    Cartesian   -0.02
    624 z          5.881013      5.879831    -0.001182    Cartesian   -0.02
    625 x        -15.682702    -15.676814     0.005888    Cartesian   -0.04
    625 y          0.000000      0.000000     0.000000    Cartesian    0.00
    625 z         11.762026     11.757785    -0.004242    Cartesian   -0.04
    626 x          3.920675      3.920319    -0.000357    Cartesian   -0.01
    626 y         11.762026     11.759671    -0.002356    Cartesian   -0.02
    626 z         15.682702     15.678839    -0.003863    Cartesian   -0.02
    627 x          3.920675      3.920402    -0.000273    Cartesian   -0.01
    627 y          0.000000      0.000000     0.000000    Cartesian    0.00
    627 z         19.603377     19.597708    -0.005669    Cartesian   -0.03
    628 x         17.643040     17.640714    -0.002325    Cartesian   -0.01
    628 y          9.801689      9.799978    -0.001711    Cartesian   -0.02
    628 z         -1.960338     -1.959659     0.000678    Cartesian   -0.03
    629 x        -19.603377    -19.595650     0.007728    Cartesian   -0.04
    629 y          0.000000      0.000000     0.000000    Cartesian    0.00
    629 z          0.000000      0.000000     0.000000    Cartesian    0.00
    630 x          0.000000      0.000452     0.000452    Cartesian *******
    630 y          3.920675      3.919616    -0.001060    Cartesian   -0.03
    630 z         19.603377     19.597652    -0.005726    Cartesian   -0.03
    631 x         19.603377     19.597102    -0.006275    Cartesian   -0.03
    631 y          3.920675      3.919016    -0.001660    Cartesian   -0.04
    631 z          3.920675      3.919016    -0.001660    Cartesian   -0.04
--------------------------------------------------------------------------------


  Time to end of optimisation  =       96.5027 seconds


  Peak dynamic memory used =    1752.66 MB 


  Timing analysis for GULP :

--------------------------------------------------------------------------------
  Task / Subroutine                                          Time (Seconds)
--------------------------------------------------------------------------------
  Calculation of reciprocal space energy and derivatives          0.0003
  Calculation of reciprocal space energy using symmetry           0.0005
  Calculation of real space energy and derivatives                0.0017
  Calculation of real space energy using symmetry                 0.0040
  Calculation for region 1 energy and derivatives (2-b)          53.1205
  Calculation for region 2a energy                               13.9144
  Calculation for region 2b energy                                0.0017
  Calculation and manipulation of Hessian matrix                 26.4525
  Calculation of matrix inversion                                 2.1181
  Symmetry generation of equivalent positions                     0.0024
--------------------------------------------------------------------------------
  Total CPU time                                                 96.5028
--------------------------------------------------------------------------------


  Dump file written as Li3OCl.grs


  Job Finished at 17:38.30 20th October    2020                               

