********************************************************************************
*                       GENERAL UTILITY LATTICE PROGRAM                        *
*                                 Julian Gale                                  *
*                       Curtin Institute for Computation                       *
*                    School of Molecular and Life Sciences                     *
*                    Curtin University, Western Australia                      *
********************************************************************************
* Version = 5.2.0 * Last modified =  10th September 2020                       *
********************************************************************************
*  optimise     - perform optimisation run                                     *
*  conp         - constant pressure calculation                                *
*  property     - calculate properties for final geometry                      *
*  defect       - perform defect calculation after bulk run                    *
*  compare      - compare initial and final structures                         *
********************************************************************************

  Job Started  at 18:27.57 20th October    2020                               

  Number of CPUs =     1


  Total number of configurations input =      1

********************************************************************************
*  Input for Configuration =   1                                               *
********************************************************************************

  Formula = ClOLi3                                                      

  Number of irreducible atoms/shells =       5


  Total number atoms/shells =       7

  Dimensionality = 3               :  Bulk   


  Symmetry :

  Crystal family                   :  Cubic       
  Crystal class  (Groth - 1921)    :  Cubic Hexakisoctahedral              

  Space group (centrosymmetric)    :  P M 3 M         

  Patterson group                  :  P m -3 m 

  Cartesian lattice vectors (Angstroms) :

        3.918873    0.000000    0.000000
        0.000000    3.918873    0.000000
        0.000000    0.000000    3.918873

  Cell parameters (Angstroms/Degrees):

  a =       3.9189    alpha =  90.0000
  b =       3.9189    beta  =  90.0000
  c =       3.9189    gamma =  90.0000

  Initial cell volume =          60.184349 Angs**3

  Temperature of configuration =   0.00     K 

  Pressure of configuration =         0.000 GPa 

  Fractional coordinates of asymmetric unit :

--------------------------------------------------------------------------------
   No.  Atomic       x           y          z         Charge      Occupancy
        Label      (Frac)      (Frac)     (Frac)        (e)         (Frac)  
--------------------------------------------------------------------------------
      1 Cl    c    0.000000    0.000000    0.000000     1.48500    1.000000    
      2 O     c    0.500000    0.500000    0.500000     0.18300    1.000000    
      3 Li    c    0.500000    0.500000    0.000000     1.00000    1.000000    
      4 Cl    s    0.000000    0.000000    0.000000    -2.48500    1.000000    
      5 O     s    0.500000    0.500000    0.500000    -2.18300    1.000000    
--------------------------------------------------------------------------------


  Constraints : 

--------------------------------------------------------------------------------
  Constraint no.      Unconstrained     Constrained    Coefficient    Offset
                         Variable         Variable
--------------------------------------------------------------------------------
           1              Strain 1        Strain 2       1.00000      0.0000
           2              Strain 1        Strain 3       1.00000      0.0000
--------------------------------------------------------------------------------


********************************************************************************
*  General input information                                                   *
********************************************************************************

  Species output for all configurations : 

--------------------------------------------------------------------------------
  Species    Type    Atomic    Atomic    Charge       Radii (Angs)     Library
                     Number     Mass       (e)     Cova   Ionic  VDW   Symbol
--------------------------------------------------------------------------------
    Li       Core        3       6.94   1.000000   0.680  0.000  1.800          
    O        Core        8      16.00   0.183000   0.730  0.000  1.360          
    O        Shell       8       0.00  -2.183000   0.730  0.000  1.360          
    Cl       Core       17      35.45   1.485000   0.990  0.000  1.650          
    Cl       Shell      17       0.00  -2.485000   0.990  0.000  1.650          
--------------------------------------------------------------------------------


  Lattice summation method               =    Ewald          (3-D)
                                         =    Parry          (2-D)
                                         =    Saunders et al (1-D)
  Accuracy factor for lattice sums       =   12.000


  Analytic derivatives to be used

  Time limit = Infinity

  Maximum range for interatomic potentials =    100000.000000 Angstroms

  General interatomic potentials :

--------------------------------------------------------------------------------
Atom  Types   Potential      Parameter       Value         Units   Cutoffs(Ang)
  1     2                                                            Min /  Max 
--------------------------------------------------------------------------------
O    c O    s Spring (c-s)  Spring k 2       593.72000    eV*Ang^-2 0.000  0.800
                            Spring k 4       0.0000000    eV*Ang^-4 
--------------------------------------------------------------------------------
Cl   c Cl   s Spring (c-s)  Spring k 2       29.380000    eV*Ang^-2 0.000  0.800
                            Spring k 4       0.0000000    eV*Ang^-4 
--------------------------------------------------------------------------------
Li   c Li   c Buckingham    Buckingham A     360.53000    eV        0.000 12.000
                            Buckingham rho  0.16100000    Ang       
                            Buckingham C     0.0000000    eV*Ang^6  
--------------------------------------------------------------------------------
Li   c O    s Buckingham    Buckingham A     292.30000    eV        0.000 12.000
                            Buckingham rho  0.34720000    Ang       
                            Buckingham C     0.0000000    eV*Ang^6  
--------------------------------------------------------------------------------
Li   c Cl   s Buckingham    Buckingham A     421.04000    eV        0.000 12.000
                            Buckingham rho  0.33400000    Ang       
                            Buckingham C     0.0000000    eV*Ang^6  
--------------------------------------------------------------------------------
O    s O    s Buckingham    Buckingham A     22764.300    eV        0.000 12.000
                            Buckingham rho  0.14900000    Ang       
                            Buckingham C     13.190000    eV*Ang^6  
--------------------------------------------------------------------------------
O    s Cl   s Buckingham    Buckingham A     8286.9100    eV        0.000 12.000
                            Buckingham rho  0.25900000    Ang       
                            Buckingham C     62.200000    eV*Ang^6  
--------------------------------------------------------------------------------
Cl   s Cl   s Buckingham    Buckingham A     1227.2000    eV        0.000 12.000
                            Buckingham rho  0.32100000    Ang       
                            Buckingham C     14.530000    eV*Ang^6  
--------------------------------------------------------------------------------

********************************************************************************
*  Output for configuration   1                                                *
********************************************************************************


  Components of energy : 

--------------------------------------------------------------------------------
  Interatomic potentials     =           7.26836263 eV    
  Monopole - monopole (real) =         -11.53475722 eV    
  Monopole - monopole (recip)=         -33.94580548 eV    
  Monopole - monopole (total)=         -45.48056271 eV    
--------------------------------------------------------------------------------
  Total lattice energy       =         -38.21220008 eV    
--------------------------------------------------------------------------------
  Total lattice energy       =           -3686.8932 kJ/(mole unit cells)
--------------------------------------------------------------------------------


  Number of variables =        1

  Maximum number of calculations  =          1000
  Maximum Hessian update interval =            10
  Maximum step size               =   1.000000000
  Maximum parameter tolerance     =   0.000010000
  Maximum function  tolerance     =   0.000010000
  Maximum gradient  tolerance     =   0.001000000
  Maximum gradient  component     =   0.010000000

  Symmetry constrained optimisation

  Symmetry used for second derivatives

  Cell parameters to be optimised using strains

  Newton-Raphson optimiser to be used

  BFGS hessian update to be used

  Lower half triangular hessian to be used

  Start of bulk optimisation :

  Cycle:      0 Energy:       -38.212200  Gnorm:      0.095699  CPU:    0.006
  ** Hessian calculated **
  Cycle:      1 Energy:       -38.212222  Gnorm:      0.000105  CPU:    0.007


  **** Optimisation achieved ****


  Final energy =     -38.21222207 eV
  Final Gnorm  =       0.00000016

  Components of energy : 

--------------------------------------------------------------------------------
  Interatomic potentials     =           7.24743141 eV    
  Monopole - monopole (real) =         -11.52945423 eV    
  Monopole - monopole (recip)=         -33.93019924 eV    
  Monopole - monopole (total)=         -45.45965348 eV    
--------------------------------------------------------------------------------
  Total lattice energy       =         -38.21222207 eV    
--------------------------------------------------------------------------------
  Total lattice energy       =           -3686.8953 kJ/(mole unit cells)
--------------------------------------------------------------------------------

  Final asymmetric unit coordinates :

--------------------------------------------------------------------------------
   No.  Atomic        x           y           z         Radius
        Label       (Frac)      (Frac)      (Frac)       (Angs) 
--------------------------------------------------------------------------------
     1  Cl    c     0.000000    0.000000    0.000000    0.000000
     2  O     c     0.500000    0.500000    0.500000    0.000000
     3  Li    c     0.500000    0.500000    0.000000    0.000000
     4  Cl    s     0.000000    0.000000    0.000000    0.000000
     5  O     s     0.500000    0.500000    0.500000    0.000000
--------------------------------------------------------------------------------

  Final Cartesian lattice vectors (Angstroms) :

        3.920675    0.000000    0.000000
        0.000000    3.920675    0.000000
        0.000000    0.000000    3.920675


  Final cell parameters and derivatives :

--------------------------------------------------------------------------------
       a            3.920675 Angstrom     dE/de1(xx)    -0.000000 eV/strain
       b            3.920675 Angstrom     dE/de2(yy)     0.000000 eV/strain
       c            3.920675 Angstrom     dE/de3(zz)     0.000000 eV/strain
       alpha       90.000000 Degrees      dE/de4(yz)     0.000000 eV/strain
       beta        90.000000 Degrees      dE/de5(xz)     0.000000 eV/strain
       gamma       90.000000 Degrees      dE/de6(xy)     0.000000 eV/strain
--------------------------------------------------------------------------------

  Primitive cell volume =            60.267433 Angs**3

  Density of cell =      1.991276 g/cm**3

  Non-primitive cell volume =            60.267433 Angs**3


  Final internal derivatives :

--------------------------------------------------------------------------------
   No.  Atomic          a             b             c           Radius
        Label          (eV)          (eV)          (eV)        (eV/Angs)
--------------------------------------------------------------------------------
      1 Cl    c       0.000000      0.000000      0.000000      0.000000
      2 O     c       0.000000      0.000000      0.000000      0.000000
      3 Li    c       0.000000      0.000000      0.000000      0.000000
      4 Cl    s       0.000000      0.000000      0.000000      0.000000
      5 O     s       0.000000      0.000000      0.000000      0.000000
--------------------------------------------------------------------------------
  Maximum abs         0.000000      0.000000      0.000000      0.000000
--------------------------------------------------------------------------------

  Comparison of initial and final structures : 

--------------------------------------------------------------------------------
  Parameter   Initial value   Final value   Difference    Units      Percent
--------------------------------------------------------------------------------
    Volume        60.184349     60.267433     0.083084    Angs**3      0.14
    a              3.918873      3.920675     0.001802    Angstroms    0.05
    b              3.918873      3.920675     0.001802    Angstroms    0.05
    c              3.918873      3.920675     0.001802    Angstroms    0.05
    alpha         90.000000     90.000000     0.000000    Degrees      0.00
    beta          90.000000     90.000000     0.000000    Degrees      0.00
    gamma         90.000000     90.000000     0.000000    Degrees      0.00
      1 x          0.000000      0.000000     0.000000    Fractional   0.00
      1 y          0.000000      0.000000     0.000000    Fractional   0.00
      1 z          0.000000      0.000000     0.000000    Fractional   0.00
      2 x          0.500000      0.500000     0.000000    Fractional   0.00
      2 y          0.500000      0.500000     0.000000    Fractional   0.00
      2 z          0.500000      0.500000     0.000000    Fractional   0.00
      3 x          0.500000      0.500000     0.000000    Fractional   0.00
      3 y          0.500000      0.500000     0.000000    Fractional   0.00
      3 z          0.000000      0.000000     0.000000    Fractional   0.00
      4 x          0.000000      0.000000     0.000000    Fractional   0.00
      4 y          0.000000      0.000000     0.000000    Fractional   0.00
      4 z          0.000000      0.000000     0.000000    Fractional   0.00
      5 x          0.500000      0.500000     0.000000    Fractional   0.00
      5 y          0.500000      0.500000     0.000000    Fractional   0.00
      5 z          0.500000      0.500000     0.000000    Fractional   0.00
--------------------------------------------------------------------------------


  Born effective charge tensors : 

-------------------------------------------------------------------------------
  Atom             x           y             z
-------------------------------------------------------------------------------
    1 Cl    x      -0.9489     -0.0000     -0.0000
            y      -0.0000     -0.9489     -0.0000
            z      -0.0000     -0.0000     -0.9489
-------------------------------------------------------------------------------
    2 O     x      -2.4688      0.0000      0.0000
            y       0.0000     -2.4688      0.0000
            z       0.0000      0.0000     -2.4688
-------------------------------------------------------------------------------
    3 Li    x       1.3129      0.0000     -0.0000
            y       0.0000      1.3129      0.0000
            z      -0.0000      0.0000      0.7919
-------------------------------------------------------------------------------




  Elastic Constant Matrix: (Units=GPa)

-------------------------------------------------------------------------------
  Indices      1         2         3         4         5         6    
-------------------------------------------------------------------------------
       1     94.3368   44.9178   44.9178    0.0000   -0.0000    0.0000
       2     44.9178   94.3368   44.9178   -0.0000    0.0000   -0.0000
       3     44.9178   44.9178   94.3368    0.0000   -0.0000    0.0000
       4      0.0000   -0.0000    0.0000   44.9178   -0.0000    0.0000
       5     -0.0000    0.0000   -0.0000   -0.0000   44.9178    0.0000
       6      0.0000   -0.0000    0.0000    0.0000    0.0000   44.9178
-------------------------------------------------------------------------------


  Elastic Compliance Matrix: (Units=1/GPa)

-------------------------------------------------------------------------------
  Indices      1         2         3         4         5         6    
-------------------------------------------------------------------------------
       1    0.015300 -0.004935 -0.004935 -0.000000  0.000000 -0.000000
       2   -0.004935  0.015300 -0.004935  0.000000 -0.000000  0.000000
       3   -0.004935 -0.004935  0.015300 -0.000000  0.000000 -0.000000
       4   -0.000000  0.000000 -0.000000  0.022263  0.000000 -0.000000
       5    0.000000 -0.000000  0.000000  0.000000  0.022263 -0.000000
       6   -0.000000  0.000000 -0.000000 -0.000000 -0.000000  0.022263
-------------------------------------------------------------------------------

  Mechanical properties :

-------------------------------------------------------------------------------
  Convention :                    Reuss         Voigt         Hill
-------------------------------------------------------------------------------
  Bulk  Modulus (GPa)     =      61.39080      61.39080      61.39080
  Shear Modulus (GPa)     =      33.84570      36.83448      35.34009
-------------------------------------------------------------------------------
  Velocity S-wave (km/s)  =       4.12274       4.30092       4.21277
  Velocity P-wave (km/s)  =       7.31386       7.44942       7.38195
-------------------------------------------------------------------------------
  Compressibility (1/GPa) =    0.01628909
-------------------------------------------------------------------------------
  Stress axis :                     x             y             z
-------------------------------------------------------------------------------
  Youngs Moduli (GPa)     =      65.35947      65.35947      65.35947
-------------------------------------------------------------------------------
  Poissons Ratio (x)      =                     0.32256       0.32256
  Poissons Ratio (y)      =       0.32256                     0.32256
  Poissons Ratio (z)      =       0.32256       0.32256
-------------------------------------------------------------------------------


  Piezoelectric Strain Matrix: (Units=C/m**2)

-------------------------------------------------------------------------------
  Indices      1         2         3         4         5         6    
-------------------------------------------------------------------------------
       x    -0.00000   0.00000   0.00000  -0.00000  -0.00000   0.00000
       y    -0.00000   0.00000   0.00000  -0.00000  -0.00000  -0.00000
       z     0.00000   0.00000   0.00000   0.00000  -0.00000  -0.00000
-------------------------------------------------------------------------------


  Piezoelectric Stress Matrix: (Units=10**-11 C/N)

-------------------------------------------------------------------------------
  Indices      1         2         3         4         5         6    
-------------------------------------------------------------------------------
       x    -0.00000   0.00000   0.00000  -0.00000  -0.00000   0.00000
       y    -0.00000   0.00000   0.00000  -0.00000  -0.00000  -0.00000
       z    -0.00000  -0.00000   0.00000   0.00000  -0.00000  -0.00000
-------------------------------------------------------------------------------


  Static dielectric constant tensor : 

-------------------------------------------------------------------------------
              x         y         z
-------------------------------------------------------------------------------
       x    12.11703   0.00000  -0.00000
       y     0.00000  12.11703  -0.00000
       z    -0.00000  -0.00000  12.11703
--------------------------------------------------------------------------------

  High frequency dielectric constant tensor : 

-------------------------------------------------------------------------------
              x         y         z
-------------------------------------------------------------------------------
       x     1.74104   0.00000   0.00000
       y     0.00000   1.74104   0.00000
       z     0.00000   0.00000   1.74104
-------------------------------------------------------------------------------

  Static refractive indices : 

-------------------------------------------------------------------------------
    1 =    3.48095      2 =    3.48095      3 =    3.48095
-------------------------------------------------------------------------------

  High frequency refractive indices : 

-------------------------------------------------------------------------------
    1 =    1.31948      2 =    1.31948      3 =    1.31948
-------------------------------------------------------------------------------


  Time to end of optimisation =       0.0111 seconds

********************************************************************************
*  Defect calculation for configuration   1 :                                  *
********************************************************************************

  Total number of defects =      3

  Total charge on defect  =   1.00

  Defect centre is at   3.9189   0.0000   0.0000  Angs

  Region 1 radius =  20.0000      Number of ions =   3932

  Number of symmetry inequivalent region 1 ions  =    636

  Region 2 radius =  24.0000      Number of ions =   2756

  Number of symmetry inequivalent region 2a ions =    403

  Region 2a mode = 4 : screened electrostatics due to region 1 
                       neglect correction to region 1 forces from 2a
                       region 2a displacements based on defects only

  Region 2a ions will only interact with defects in region 1

  Vacancies:

--------------------------------------------------------------------------------
    Specification type     Symbol/Number         x          y          z
--------------------------------------------------------------------------------
    Cartesian                                0.000000   0.000000   0.000000
    Cartesian                                3.918873   0.000000   0.000000
--------------------------------------------------------------------------------

  Interstitials:

--------------------------------------------------------------------------------
    Specification type     Symbol/Number         x          y          z
--------------------------------------------------------------------------------
    Atom/Fractional         Cl               3.918873   0.000000   0.000000
--------------------------------------------------------------------------------


  Symmetry reduced region 1 (Relative to defect centre) :

--------------------------------------------------------------------------------
   No.   Atomic       x            y             z       Radius  Multiplicity   
         Label      (Angs)       (Angs)        (Angs)    (Angs)     
--------------------------------------------------------------------------------
     1  Li    c     -1.9585 *    -1.9603 *     0.0000    0.0000     4          
     2  Li    c      0.0018 *     1.9603 *     1.9603    0.0000     4          
     3  Li    c      1.9621 *    -1.9603 *     0.0000    0.0000     4          
     4  O     c     -1.9585 *    -1.9603 *    -1.9603    0.0000     4          
     5  O     c      1.9621 *    -1.9603 *    -1.9603    0.0000     4          
     6  Cl    c      0.0018 *     0.0000       3.9207 *  0.0000     4          
     7  Cl    c      3.9225 *     0.0000       0.0000    0.0000     1          
     8  Li    c     -3.9189 *     1.9603 *     1.9603    0.0000     4          
     9  Li    c     -1.9585 *    -1.9603 *     3.9207 *  0.0000     8          
    10  Li    c      1.9621 *    -1.9603 *     3.9207 *  0.0000     8          
    11  Li    c      3.9225 *     1.9603 *     1.9603    0.0000     4          
    12  Cl    c     -3.9189 *     0.0000       3.9207 *  0.0000     4          
    13  Cl    c      0.0018 *     3.9207 *     3.9207    0.0000     4          
    14  Cl    c      3.9225 *     0.0000       3.9207 *  0.0000     4          
    15  Li    c     -5.8792 *    -1.9603 *     0.0000    0.0000     4          
    16  Li    c     -1.9585 *     5.8810 *     0.0000    0.0000     4          
    17  Li    c      0.0018 *     1.9603 *     5.8810 *  0.0000     8          
    18  Li    c      1.9621 *     5.8810 *     0.0000    0.0000     4          
    19  Li    c      5.8828 *    -1.9603 *     0.0000    0.0000     4          
    20  O     c     -5.8792 *    -1.9603 *    -1.9603    0.0000     4          
    21  O     c     -1.9585 *    -1.9603 *     5.8810 *  0.0000     8          
    22  O     c      1.9621 *    -1.9603 *     5.8810 *  0.0000     8          
    23  O     c      5.8828 *    -1.9603 *    -1.9603    0.0000     4          
    24  Cl    c     -3.9189 *     3.9207 *     3.9207    0.0000     4          
    25  Cl    c      3.9225 *     3.9207 *     3.9207    0.0000     4          
    26  Li    c     -5.8792 *    -1.9603 *     3.9207 *  0.0000     8          
    27  Li    c     -3.9189 *     1.9603 *     5.8810 *  0.0000     8          
    28  Li    c     -1.9585 *     5.8810 *     3.9207 *  0.0000     8          
    29  Li    c      1.9621 *     5.8810 *     3.9207 *  0.0000     8          
    30  Li    c      3.9225 *     1.9603 *     5.8810 *  0.0000     8          
    31  Li    c      5.8828 *    -1.9603 *     3.9207 *  0.0000     8          
    32  Cl    c      7.5251       0.0000       0.0000    0.0000     1    Defect
    33  Cl    c     -7.8395 *     0.0000       0.0000    0.0000     1          
    34  Cl    c      0.0018 *     0.0000       7.8414 *  0.0000     4          
    35  Cl    c      7.8432 *     0.0000       0.0000    0.0000     1          
    36  Li    c     -7.8395 *     1.9603 *     1.9603    0.0000     4          
    37  Li    c     -5.8792 *     5.8810 *     0.0000    0.0000     4          
    38  Li    c     -1.9585 *    -1.9603 *     7.8414 *  0.0000     8          
    39  Li    c      0.0018 *     5.8810 *     5.8810    0.0000     4          
    40  Li    c      1.9621 *    -1.9603 *     7.8414 *  0.0000     8          
    41  Li    c      5.8828 *     5.8810 *     0.0000    0.0000     4          
    42  Li    c      7.8432 *     1.9603 *     1.9603    0.0000     4          
    43  O     c     -5.8792 *    -1.9603 *     5.8810 *  0.0000     8          
    44  O     c     -1.9585 *     5.8810 *     5.8810    0.0000     4          
    45  O     c      1.9621 *     5.8810 *     5.8810    0.0000     4          
    46  O     c      5.8828 *    -1.9603 *     5.8810 *  0.0000     8          
    47  Cl    c     -7.8395 *     0.0000       3.9207 *  0.0000     4          
    48  Cl    c     -3.9189 *     0.0000       7.8414 *  0.0000     4          
    49  Cl    c      0.0018 *     3.9207 *     7.8414 *  0.0000     8          
    50  Cl    c      3.9225 *     0.0000       7.8414 *  0.0000     4          
    51  Cl    c      7.8432 *     0.0000       3.9207 *  0.0000     4          
    52  Li    c     -5.8792 *     5.8810 *     3.9207 *  0.0000     8          
    53  Li    c     -3.9189 *     5.8810 *     5.8810    0.0000     4          
    54  Li    c      3.9225 *     5.8810 *     5.8810    0.0000     4          
    55  Li    c      5.8828 *     3.9207 *     5.8810 *  0.0000     8          
    56  Cl    c     -7.8395 *     3.9207 *     3.9207    0.0000     4          
    57  Cl    c     -3.9189 *     3.9207 *     7.8414 *  0.0000     8          
    58  Cl    c      3.9225 *     3.9207 *     7.8414 *  0.0000     8          
    59  Cl    c      7.8432 *     3.9207 *     3.9207    0.0000     4          
    60  Li    c     -9.7999 *    -1.9603 *     0.0000    0.0000     4          
    61  Li    c     -7.8395 *     1.9603 *     5.8810 *  0.0000     8          
    62  Li    c     -5.8792 *    -1.9603 *     7.8414 *  0.0000     8          
    63  Li    c     -1.9585 *     5.8810 *     7.8414 *  0.0000     8          
    64  Li    c     -1.9585 *     9.8017 *     0.0000    0.0000     4          
    65  Li    c      0.0018 *     1.9603 *     9.8017 *  0.0000     8          
    66  Li    c      1.9621 *     5.8810 *     7.8414 *  0.0000     8          
    67  Li    c      1.9621 *     9.8017 *     0.0000    0.0000     4          
    68  Li    c      5.8828 *    -1.9603 *     7.8414 *  0.0000     8          
    69  Li    c      7.8432 *     1.9603 *     5.8810 *  0.0000     8          
    70  Li    c      9.8035 *    -1.9603 *     0.0000    0.0000     4          
    71  O     c     -9.7999 *    -1.9603 *    -1.9603    0.0000     4          
    72  O     c     -5.8792 *     5.8810 *     5.8810    0.0000     4          
    73  O     c     -1.9585 *    -1.9603 *     9.8017 *  0.0000     8          
    74  O     c      1.9621 *    -1.9603 *     9.8017 *  0.0000     8          
    75  O     c      5.8828 *     5.8810 *     5.8810    0.0000     4          
    76  O     c      9.8035 *    -1.9603 *    -1.9603    0.0000     4          
    77  Li    c     -9.7999 *    -1.9603 *     3.9207 *  0.0000     8          
    78  Li    c     -3.9189 *     1.9603 *     9.8017 *  0.0000     8          
    79  Li    c     -1.9585 *     9.8017 *     3.9207 *  0.0000     8          
    80  Li    c      1.9621 *     3.9207 *     9.8017 *  0.0000     8          
    81  Li    c      3.9225 *     1.9603 *     9.8017 *  0.0000     8          
    82  Li    c      9.8035 *    -1.9603 *     3.9207 *  0.0000     8          
    83  Cl    c     -7.8395 *     0.0000       7.8414 *  0.0000     4          
    84  Cl    c      0.0018 *     7.8414 *     7.8414    0.0000     4          
    85  Cl    c      7.8432 *     0.0000       7.8414 *  0.0000     4          
    86  Li    c     -9.7999 *     5.8810 *     0.0000    0.0000     4          
    87  Li    c     -7.8395 *     5.8810 *     5.8810    0.0000     4          
    88  Li    c     -5.8792 *     5.8810 *     7.8414 *  0.0000     8          
    89  Li    c     -5.8792 *     9.8017 *     0.0000    0.0000     4          
    90  Li    c      0.0018 *     5.8810 *     9.8017 *  0.0000     8          
    91  Li    c      5.8828 *     5.8810 *     7.8414 *  0.0000     8          
    92  Li    c      5.8828 *     9.8017 *     0.0000    0.0000     4          
    93  Li    c      7.8432 *     5.8810 *     5.8810    0.0000     4          
    94  Li    c      9.8035 *     5.8810 *     0.0000    0.0000     4          
    95  O     c     -9.7999 *     5.8810 *    -1.9603 *  0.0000     8          
    96  O     c     -5.8792 *     9.8017 *    -1.9603 *  0.0000     8          
    97  O     c     -1.9585 *     5.8810 *     9.8017 *  0.0000     8          
    98  O     c      1.9621 *     5.8810 *     9.8017 *  0.0000     8          
    99  O     c      5.8828 *    -1.9603 *     9.8017 *  0.0000     8          
   100  O     c      9.8035 *    -1.9603 *     5.8810 *  0.0000     8          
   101  Cl    c    -11.7602 *     0.0000       0.0000    0.0000     1          
   102  Cl    c     -7.8395 *     3.9207 *     7.8414 *  0.0000     8          
   103  Cl    c     -3.9189 *     7.8414 *     7.8414    0.0000     4          
   104  Cl    c      0.0018 *     0.0000      11.7620 *  0.0000     4          
   105  Cl    c      3.9225 *     7.8414 *     7.8414    0.0000     4          
   106  Cl    c      7.8432 *     3.9207 *     7.8414 *  0.0000     8          
   107  Cl    c     11.7638 *     0.0000       0.0000    0.0000     1          
   108  Li    c    -11.7602 *     1.9603 *     1.9603    0.0000     4          
   109  Li    c     -9.7999 *     5.8810 *     3.9207 *  0.0000     8          
   110  Li    c     -5.8792 *     9.8017 *     3.9207 *  0.0000     8          
   111  Li    c     -3.9189 *     5.8810 *     9.8017 *  0.0000     8          
   112  Li    c     -1.9585 *    11.7620 *    -1.9603 *  0.0000     8          
   113  Li    c      1.9621 *    -1.9603 *    11.7620 *  0.0000     8          
   114  Li    c      3.9225 *     9.8017 *     5.8810 *  0.0000     8          
   115  Li    c      5.8828 *     9.8017 *     3.9207 *  0.0000     8          
   116  Li    c      9.8035 *     5.8810 *     3.9207 *  0.0000     8          
   117  Li    c     11.7638 *     1.9603 *     1.9603    0.0000     4          
   118  Cl    c    -11.7602 *     0.0000       3.9207 *  0.0000     4          
   119  Cl    c     -3.9189 *     0.0000      11.7620 *  0.0000     4          
   120  Cl    c      0.0018 *     3.9207 *    11.7620 *  0.0000     8          
   121  Cl    c      3.9225 *     0.0000      11.7620 *  0.0000     4          
   122  Cl    c     11.7638 *     0.0000       3.9207 *  0.0000     4          
   123  Li    c     -9.7999 *    -1.9603 *     7.8414 *  0.0000     8          
   124  Li    c     -7.8395 *     9.8017 *     1.9603 *  0.0000     8          
   125  Li    c     -1.9585 *     9.8017 *     7.8414 *  0.0000     8          
   126  Li    c      1.9621 *     9.8017 *     7.8414 *  0.0000     8          
   127  Li    c      7.8432 *     1.9603 *     9.8017 *  0.0000     8          
   128  Li    c      9.8035 *    -1.9603 *     7.8414 *  0.0000     8          
   129  O     c     -9.7999 *     5.8810 *     5.8810    0.0000     4          
   130  O     c     -5.8792 *     5.8810 *     9.8017 *  0.0000     8          
   131  O     c      5.8828 *     5.8810 *     9.8017 *  0.0000     8          
   132  O     c      9.8035 *     5.8810 *     5.8810    0.0000     4          
   133  Cl    c    -11.7602 *     3.9207 *     3.9207    0.0000     4          
   134  Cl    c     -3.9189 *    11.7620 *     3.9207 *  0.0000     8          
   135  Cl    c      3.9225 *     3.9207 *    11.7620 *  0.0000     8          
   136  Cl    c     11.7638 *     3.9207 *     3.9207    0.0000     4          
   137  Li    c    -11.7602 *     1.9603 *     5.8810 *  0.0000     8          
   138  Li    c     -5.8792 *    -1.9603 *    11.7620 *  0.0000     8          
   139  Li    c     -1.9585 *     5.8810 *    11.7620 *  0.0000     8          
   140  Li    c      1.9621 *     5.8810 *    11.7620 *  0.0000     8          
   141  Li    c      5.8828 *    -1.9603 *    11.7620 *  0.0000     8          
   142  Li    c     11.7638 *     1.9603 *     5.8810 *  0.0000     8          
   143  Cl    c     -7.8395 *     7.8414 *     7.8414    0.0000     4          
   144  Cl    c      7.8432 *     7.8414 *     7.8414    0.0000     4          
   145  Li    c    -13.7206 *    -1.9603 *     0.0000    0.0000     4          
   146  Li    c     -9.7999 *     5.8810 *     7.8414 *  0.0000     8          
   147  Li    c     -9.7999 *     9.8017 *     0.0000    0.0000     4          
   148  Li    c     -7.8395 *     9.8017 *     5.8810 *  0.0000     8          
   149  Li    c     -5.8792 *     9.8017 *     7.8414 *  0.0000     8          
   150  Li    c     -1.9585 *    13.7224 *     0.0000    0.0000     4          
   151  Li    c      0.0018 *     1.9603 *    13.7224 *  0.0000     8          
   152  Li    c      0.0018 *     9.8017 *     9.8017    0.0000     4          
   153  Li    c      1.9621 *    13.7224 *     0.0000    0.0000     4          
   154  Li    c      5.8828 *     9.8017 *     7.8414 *  0.0000     8          
   155  Li    c      7.8432 *     5.8810 *     9.8017 *  0.0000     8          
   156  Li    c      9.8035 *     5.8810 *     7.8414 *  0.0000     8          
   157  Li    c      9.8035 *     9.8017 *     0.0000    0.0000     4          
   158  Li    c     13.7242 *    -1.9603 *     0.0000    0.0000     4          
   159  O     c    -13.7206 *    -1.9603 *    -1.9603    0.0000     4          
   160  O     c     -9.7999 *     9.8017 *    -1.9603 *  0.0000     8          
   161  O     c     -1.9585 *    13.7224 *    -1.9603 *  0.0000     8          
   162  O     c     -1.9585 *     9.8017 *     9.8017    0.0000     4          
   163  O     c      1.9621 *    -1.9603 *    13.7224 *  0.0000     8          
   164  O     c      1.9621 *     9.8017 *     9.8017    0.0000     4          
   165  O     c      9.8035 *    -1.9603 *     9.8017 *  0.0000     8          
   166  O     c     13.7242 *    -1.9603 *    -1.9603    0.0000     4          
   167  Cl    c    -11.7602 *     0.0000       7.8414 *  0.0000     4          
   168  Cl    c     -7.8395 *     0.0000      11.7620 *  0.0000     4          
   169  Cl    c      0.0018 *     7.8414 *    11.7620 *  0.0000     8          
   170  Cl    c      7.8432 *     0.0000      11.7620 *  0.0000     4          
   171  Cl    c     11.7638 *     0.0000       7.8414 *  0.0000     4          
   172  Li    c    -13.7206 *    -1.9603 *     3.9207 *  0.0000     8          
   173  Li    c    -11.7602 *     5.8810 *     5.8810    0.0000     4          
   174  Li    c     -9.7999 *     9.8017 *     3.9207 *  0.0000     8          
   175  Li    c     -5.8792 *     5.8810 *    11.7620 *  0.0000     8          
   176  Li    c     -3.9189 *    13.7224 *     1.9603 *  0.0000     8          
   177  Li    c     -3.9189 *     9.8017 *     9.8017    0.0000     4          
   178  Li    c     -1.9585 *    13.7224 *     3.9207 *  0.0000     8          
   179  Li    c      1.9621 *    13.7224 *     3.9207 *  0.0000     8          
   180  Li    c      3.9225 *     1.9603 *    13.7224 *  0.0000     8          
   181  Li    c      3.9225 *     9.8017 *     9.8017    0.0000     4          
   182  Li    c      5.8828 *     5.8810 *    11.7620 *  0.0000     8          
   183  Li    c      9.8035 *     9.8017 *     3.9207 *  0.0000     8          
   184  Li    c     11.7638 *     5.8810 *     5.8810    0.0000     4          
   185  Li    c     13.7242 *    -1.9603 *     3.9207 *  0.0000     8          
   186  Cl    c    -11.7602 *     3.9207 *     7.8414 *  0.0000     8          
   187  Cl    c     -7.8395 *     3.9207 *    11.7620 *  0.0000     8          
   188  Cl    c     -3.9189 *     7.8414 *    11.7620 *  0.0000     8          
   189  Cl    c      3.9225 *     7.8414 *    11.7620 *  0.0000     8          
   190  Cl    c      7.8432 *    11.7620 *     3.9207 *  0.0000     8          
   191  Cl    c     11.7638 *     3.9207 *     7.8414 *  0.0000     8          
   192  Li    c    -13.7206 *     5.8810 *     0.0000    0.0000     4          
   193  Li    c     -5.8792 *    13.7224 *     0.0000    0.0000     4          
   194  Li    c      0.0018 *     5.8810 *    13.7224 *  0.0000     8          
   195  Li    c      5.8828 *    13.7224 *     0.0000    0.0000     4          
   196  Li    c     13.7242 *     5.8810 *     0.0000    0.0000     4          
   197  O     c    -13.7206 *    -1.9603 *     5.8810 *  0.0000     8          
   198  O     c     -9.7999 *     5.8810 *     9.8017 *  0.0000     8          
   199  O     c     -5.8792 *    13.7224 *    -1.9603 *  0.0000     8          
   200  O     c     -5.8792 *     9.8017 *     9.8017    0.0000     4          
   201  O     c     -1.9585 *     5.8810 *    13.7224 *  0.0000     8          
   202  O     c      1.9621 *     5.8810 *    13.7224 *  0.0000     8          
   203  O     c      5.8828 *    -1.9603 *    13.7224 *  0.0000     8          
   204  O     c      5.8828 *     9.8017 *     9.8017    0.0000     4          
   205  O     c      9.8035 *     5.8810 *     9.8017 *  0.0000     8          
   206  O     c     13.7242 *    -1.9603 *     5.8810 *  0.0000     8          
   207  Li    c    -13.7206 *     5.8810 *     3.9207 *  0.0000     8          
   208  Li    c    -11.7602 *     1.9603 *     9.8017 *  0.0000     8          
   209  Li    c     -9.7999 *    -1.9603 *    11.7620 *  0.0000     8          
   210  Li    c     -5.8792 *    13.7224 *     3.9207 *  0.0000     8          
   211  Li    c     -3.9189 *    13.7224 *     5.8810 *  0.0000     8          
   212  Li    c     -1.9585 *     9.8017 *    11.7620 *  0.0000     8          
   213  Li    c      1.9621 *     9.8017 *    11.7620 *  0.0000     8          
   214  Li    c      3.9225 *     5.8810 *    13.7224 *  0.0000     8          
   215  Li    c      5.8828 *    13.7224 *     3.9207 *  0.0000     8          
   216  Li    c      9.8035 *    11.7620 *    -1.9603 *  0.0000     8          
   217  Li    c     11.7638 *     1.9603 *     9.8017 *  0.0000     8          
   218  Li    c     13.7242 *     5.8810 *     3.9207 *  0.0000     8          
   219  Cl    c    -15.6809 *     0.0000       0.0000    0.0000     1          
   220  Cl    c      0.0018 *     0.0000      15.6827 *  0.0000     4          
   221  Cl    c     15.6845 *     0.0000       0.0000    0.0000     1          
   222  Li    c    -15.6809 *     1.9603 *     1.9603    0.0000     4          
   223  Li    c    -13.7206 *    -1.9603 *     7.8414 *  0.0000     8          
   224  Li    c     -9.7999 *     9.8017 *     7.8414 *  0.0000     8          
   225  Li    c     -7.8395 *    13.7224 *     1.9603 *  0.0000     8          
   226  Li    c     -7.8395 *     9.8017 *     9.8017    0.0000     4          
   227  Li    c     -1.9585 *    15.6827 *    -1.9603 *  0.0000     8          
   228  Li    c     -1.9585 *    13.7224 *     7.8414 *  0.0000     8          
   229  Li    c      1.9621 *    -1.9603 *    15.6827 *  0.0000     8          
   230  Li    c      1.9621 *    13.7224 *     7.8414 *  0.0000     8          
   231  Li    c      7.8432 *     1.9603 *    13.7224 *  0.0000     8          
   232  Li    c      7.8432 *     9.8017 *     9.8017    0.0000     4          
   233  Li    c      9.8035 *     9.8017 *     7.8414 *  0.0000     8          
   234  Li    c     13.7242 *    -1.9603 *     7.8414 *  0.0000     8          
   235  Li    c     15.6845 *     1.9603 *     1.9603    0.0000     4          
   236  O     c    -13.7206 *     5.8810 *     5.8810    0.0000     4          
   237  O     c     -5.8792 *     5.8810 *    13.7224 *  0.0000     8          
   238  O     c      5.8828 *     5.8810 *    13.7224 *  0.0000     8          
   239  O     c     13.7242 *     5.8810 *     5.8810    0.0000     4          
   240  Cl    c    -15.6809 *     0.0000       3.9207 *  0.0000     4          
   241  Cl    c    -11.7602 *     7.8414 *     7.8414    0.0000     4          
   242  Cl    c     -7.8395 *     7.8414 *    11.7620 *  0.0000     8          
   243  Cl    c     -3.9189 *     0.0000      15.6827 *  0.0000     4          
   244  Cl    c      0.0018 *     3.9207 *    15.6827 *  0.0000     8          
   245  Cl    c      3.9225 *     0.0000      15.6827 *  0.0000     4          
   246  Cl    c      7.8432 *     7.8414 *    11.7620 *  0.0000     8          
   247  Cl    c     11.7638 *     7.8414 *     7.8414    0.0000     4          
   248  Cl    c     15.6845 *     0.0000       3.9207 *  0.0000     4          
   249  Li    c    -11.7602 *     5.8810 *     9.8017 *  0.0000     8          
   250  Li    c     -9.7999 *     5.8810 *    11.7620 *  0.0000     8          
   251  Li    c     -5.8792 *     9.8017 *    11.7620 *  0.0000     8          
   252  Li    c      5.8828 *     9.8017 *    11.7620 *  0.0000     8          
   253  Li    c      9.8035 *     5.8810 *    11.7620 *  0.0000     8          
   254  Li    c     11.7638 *     5.8810 *     9.8017 *  0.0000     8          
   255  Cl    c    -15.6809 *     3.9207 *     3.9207    0.0000     4          
   256  Cl    c    -11.7602 *     0.0000      11.7620 *  0.0000     4          
   257  Cl    c     -3.9189 *     3.9207 *    15.6827 *  0.0000     8          
   258  Cl    c      0.0018 *    11.7620 *    11.7620    0.0000     4          
   259  Cl    c      3.9225 *     3.9207 *    15.6827 *  0.0000     8          
   260  Cl    c     11.7638 *     0.0000      11.7620 *  0.0000     4          
   261  Cl    c     15.6845 *     3.9207 *     3.9207    0.0000     4          
   262  Li    c    -15.6809 *     1.9603 *     5.8810 *  0.0000     8          
   263  Li    c    -13.7206 *     7.8414 *     5.8810 *  0.0000     8          
   264  Li    c    -13.7206 *     9.8017 *     0.0000    0.0000     4          
   265  Li    c     -9.7999 *    13.7224 *     0.0000    0.0000     4          
   266  Li    c     -7.8395 *     5.8810 *    13.7224 *  0.0000     8          
   267  Li    c     -5.8792 *    -1.9603 *    15.6827 *  0.0000     8          
   268  Li    c     -5.8792 *    13.7224 *     7.8414 *  0.0000     8          
   269  Li    c     -1.9585 *     5.8810 *    15.6827 *  0.0000     8          
   270  Li    c      0.0018 *     9.8017 *    13.7224 *  0.0000     8          
   271  Li    c      1.9621 *     5.8810 *    15.6827 *  0.0000     8          
   272  Li    c      5.8828 *    -1.9603 *    15.6827 *  0.0000     8          
   273  Li    c      5.8828 *    13.7224 *     7.8414 *  0.0000     8          
   274  Li    c      7.8432 *     5.8810 *    13.7224 *  0.0000     8          
   275  Li    c      9.8035 *    13.7224 *     0.0000    0.0000     4          
   276  Li    c     13.7242 *     5.8810 *     7.8414 *  0.0000     8          
   277  Li    c     13.7242 *     9.8017 *     0.0000    0.0000     4          
   278  Li    c     15.6845 *     1.9603 *     5.8810 *  0.0000     8          
   279  O     c    -13.7206 *    -1.9603 *     9.8017 *  0.0000     8          
   280  O     c     -9.7999 *    13.7224 *    -1.9603 *  0.0000     8          
   281  O     c     -9.7999 *     9.8017 *     9.8017    0.0000     4          
   282  O     c     -1.9585 *     9.8017 *    13.7224 *  0.0000     8          
   283  O     c      1.9621 *     9.8017 *    13.7224 *  0.0000     8          
   284  O     c      9.8035 *    -1.9603 *    13.7224 *  0.0000     8          
   285  O     c      9.8035 *     9.8017 *     9.8017    0.0000     4          
   286  O     c     13.7242 *     9.8017 *    -1.9603 *  0.0000     8          
   287  Cl    c    -11.7602 *     3.9207 *    11.7620 *  0.0000     8          
   288  Cl    c     -3.9189 *    11.7620 *    11.7620    0.0000     4          
   289  Cl    c      3.9225 *    11.7620 *    11.7620    0.0000     4          
   290  Cl    c     11.7638 *     3.9207 *    11.7620 *  0.0000     8          
   291  Li    c    -13.7206 *     9.8017 *     3.9207 *  0.0000     8          
   292  Li    c     -9.7999 *    13.7224 *     3.9207 *  0.0000     8          
   293  Li    c     -3.9189 *     9.8017 *    13.7224 *  0.0000     8          
   294  Li    c      3.9225 *     9.8017 *    13.7224 *  0.0000     8          
   295  Li    c      9.8035 *    13.7224 *     3.9207 *  0.0000     8          
   296  Li    c     13.7242 *     9.8017 *     3.9207 *  0.0000     8          
   297  Cl    c    -15.6809 *     0.0000       7.8414 *  0.0000     4          
   298  Cl    c     -7.8395 *     0.0000      15.6827 *  0.0000     4          
   299  Cl    c      0.0018 *     7.8414 *    15.6827 *  0.0000     8          
   300  Cl    c      7.8432 *     0.0000      15.6827 *  0.0000     4          
   301  Cl    c     15.6845 *     0.0000       7.8414 *  0.0000     4          
   302  Li    c    -17.6412 *    -1.9603 *     0.0000    0.0000     4          
   303  Li    c    -15.6809 *     5.8810 *     5.8810    0.0000     4          
   304  Li    c     -5.8792 *     5.8810 *    15.6827 *  0.0000     8          
   305  Li    c     -1.9585 *    17.6430 *     0.0000    0.0000     4          
   306  Li    c      0.0018 *     1.9603 *    17.6430 *  0.0000     8          
   307  Li    c      1.9621 *    17.6430 *     0.0000    0.0000     4          
   308  Li    c      5.8828 *     5.8810 *    15.6827 *  0.0000     8          
   309  Li    c     15.6845 *     5.8810 *     5.8810    0.0000     4          
   310  Li    c     17.6448 *    -1.9603 *     0.0000    0.0000     4          
   311  O     c    -17.6412 *    -1.9603 *    -1.9603    0.0000     4          
   312  O     c    -13.7206 *     5.8810 *     9.8017 *  0.0000     8          
   313  O     c     -9.7999 *     5.8810 *    13.7224 *  0.0000     8          
   314  O     c     -5.8792 *     9.8017 *    13.7224 *  0.0000     8          
   315  O     c     -1.9585 *    -1.9603 *    17.6430 *  0.0000     8          
   316  O     c      1.9621 *    17.6430 *    -1.9603 *  0.0000     8          
   317  O     c      5.8828 *     9.8017 *    13.7224 *  0.0000     8          
   318  O     c      9.8035 *     5.8810 *    13.7224 *  0.0000     8          
   319  O     c     13.7242 *     9.8017 *     5.8810 *  0.0000     8          
   320  O     c     17.6448 *    -1.9603 *    -1.9603    0.0000     4          
   321  Cl    c    -15.6809 *     3.9207 *     7.8414 *  0.0000     8          
   322  Cl    c     -7.8395 *     3.9207 *    15.6827 *  0.0000     8          
   323  Cl    c     -3.9189 *     7.8414 *    15.6827 *  0.0000     8          
   324  Cl    c      3.9225 *     7.8414 *    15.6827 *  0.0000     8          
   325  Cl    c      7.8432 *     3.9207 *    15.6827 *  0.0000     8          
   326  Cl    c     15.6845 *     3.9207 *     7.8414 *  0.0000     8          
   327  Li    c    -17.6412 *    -1.9603 *     3.9207 *  0.0000     8          
   328  Li    c    -13.7206 *    -1.9603 *    11.7620 *  0.0000     8          
   329  Li    c    -11.7602 *     1.9603 *    13.7224 *  0.0000     8          
   330  Li    c    -11.7602 *     9.8017 *     9.8017    0.0000     4          
   331  Li    c     -9.7999 *     9.8017 *    11.7620 *  0.0000     8          
   332  Li    c     -3.9189 *     1.9603 *    17.6430 *  0.0000     8          
   333  Li    c     -1.9585 *    13.7224 *    11.7620 *  0.0000     8          
   334  Li    c     -1.9585 *     3.9207 *    17.6430 *  0.0000     8          
   335  Li    c      1.9621 *    13.7224 *    11.7620 *  0.0000     8          
   336  Li    c      1.9621 *    17.6430 *     3.9207 *  0.0000     8          
   337  Li    c      3.9225 *     1.9603 *    17.6430 *  0.0000     8          
   338  Li    c      9.8035 *    11.7620 *     9.8017 *  0.0000     8          
   339  Li    c     11.7638 *     1.9603 *    13.7224 *  0.0000     8          
   340  Li    c     11.7638 *     9.8017 *     9.8017    0.0000     4          
   341  Li    c     13.7242 *    -1.9603 *    11.7620 *  0.0000     8          
   342  Li    c     17.6448 *    -1.9603 *     3.9207 *  0.0000     8          
   343  Cl    c    -11.7602 *     7.8414 *    11.7620 *  0.0000     8          
   344  Cl    c     -7.8395 *    11.7620 *    11.7620    0.0000     4          
   345  Cl    c      7.8432 *    11.7620 *    11.7620    0.0000     4          
   346  Cl    c     11.7638 *     7.8414 *    11.7620 *  0.0000     8          
   347  Li    c    -17.6412 *     5.8810 *     0.0000    0.0000     4          
   348  Li    c    -15.6809 *     1.9603 *     9.8017 *  0.0000     8          
   349  Li    c    -13.7206 *     9.8017 *     7.8414 *  0.0000     8          
   350  Li    c     -9.7999 *    -1.9603 *    15.6827 *  0.0000     8          
   351  Li    c     -9.7999 *    13.7224 *     7.8414 *  0.0000     8          
   352  Li    c     -7.8395 *     9.8017 *    13.7224 *  0.0000     8          
   353  Li    c     -5.8792 *    17.6430 *     0.0000    0.0000     4          
   354  Li    c     -1.9585 *     9.8017 *    15.6827 *  0.0000     8          
   355  Li    c      0.0018 *     5.8810 *    17.6430 *  0.0000     8          
   356  Li    c      1.9621 *     9.8017 *    15.6827 *  0.0000     8          
   357  Li    c      5.8828 *    17.6430 *     0.0000    0.0000     4          
   358  Li    c      7.8432 *     9.8017 *    13.7224 *  0.0000     8          
   359  Li    c      9.8035 *    -1.9603 *    15.6827 *  0.0000     8          
   360  Li    c      9.8035 *    13.7224 *     7.8414 *  0.0000     8          
   361  Li    c     13.7242 *     9.8017 *     7.8414 *  0.0000     8          
   362  Li    c     15.6845 *     1.9603 *     9.8017 *  0.0000     8          
   363  Li    c     17.6448 *     5.8810 *     0.0000    0.0000     4          
   364  O     c    -17.6412 *    -1.9603 *     5.8810 *  0.0000     8          
   365  O     c     -5.8792 *    -1.9603 *    17.6430 *  0.0000     8          
   366  O     c     -1.9585 *     5.8810 *    17.6430 *  0.0000     8          
   367  O     c      1.9621 *    17.6430 *     5.8810 *  0.0000     8          
   368  O     c      5.8828 *    17.6430 *    -1.9603 *  0.0000     8          
   369  O     c     17.6448 *     5.8810 *    -1.9603 *  0.0000     8          
   370  Li    c    -17.6412 *     3.9207 *     5.8810 *  0.0000     8          
   371  Li    c    -13.7206 *     5.8810 *    11.7620 *  0.0000     8          
   372  Li    c    -11.7602 *     5.8810 *    13.7224 *  0.0000     8          
   373  Li    c     -5.8792 *    13.7224 *    11.7620 *  0.0000     8          
   374  Li    c     -5.8792 *    17.6430 *     3.9207 *  0.0000     8          
   375  Li    c     -3.9189 *     5.8810 *    17.6430 *  0.0000     8          
   376  Li    c      3.9225 *     5.8810 *    17.6430 *  0.0000     8          
   377  Li    c      5.8828 *    13.7224 *    11.7620 *  0.0000     8          
   378  Li    c      5.8828 *    17.6430 *     3.9207 *  0.0000     8          
   379  Li    c     11.7638 *     5.8810 *    13.7224 *  0.0000     8          
   380  Li    c     13.7242 *     5.8810 *    11.7620 *  0.0000     8          
   381  Li    c     17.6448 *     5.8810 *     3.9207 *  0.0000     8          
   382  Cl    c    -15.6809 *     7.8414 *     7.8414    0.0000     4          
   383  Cl    c     -7.8395 *     7.8414 *    15.6827 *  0.0000     8          
   384  Cl    c      7.8432 *     7.8414 *    15.6827 *  0.0000     8          
   385  Cl    c     15.6845 *     7.8414 *     7.8414    0.0000     4          
   386  Li    c    -17.6412 *    -1.9603 *     7.8414 *  0.0000     8          
   387  Li    c    -15.6809 *     5.8810 *     9.8017 *  0.0000     8          
   388  Li    c    -13.7206 *    13.7224 *     0.0000    0.0000     4          
   389  Li    c     -9.7999 *     5.8810 *    15.6827 *  0.0000     8          
   390  Li    c     -7.8395 *     1.9603 *    17.6430 *  0.0000     8          
   391  Li    c     -5.8792 *     9.8017 *    15.6827 *  0.0000     8          
   392  Li    c     -1.9585 *     7.8414 *    17.6430 *  0.0000     8          
   393  Li    c      0.0018 *    13.7224 *    13.7224    0.0000     4          
   394  Li    c      1.9621 *    17.6430 *     7.8414 *  0.0000     8          
   395  Li    c      5.8828 *     9.8017 *    15.6827 *  0.0000     8          
   396  Li    c      7.8432 *    17.6430 *     1.9603 *  0.0000     8          
   397  Li    c      9.8035 *     5.8810 *    15.6827 *  0.0000     8          
   398  Li    c     13.7242 *    13.7224 *     0.0000    0.0000     4          
   399  Li    c     15.6845 *     5.8810 *     9.8017 *  0.0000     8          
   400  Li    c     17.6448 *    -1.9603 *     7.8414 *  0.0000     8          
   401  O     c    -17.6412 *     5.8810 *     5.8810    0.0000     4          
   402  O     c    -13.7206 *    -1.9603 *    13.7224 *  0.0000     8          
   403  O     c    -13.7206 *     9.8017 *     9.8017    0.0000     4          
   404  O     c     -9.7999 *     9.8017 *    13.7224 *  0.0000     8          
   405  O     c     -5.8792 *     5.8810 *    17.6430 *  0.0000     8          
   406  O     c     -1.9585 *    13.7224 *    13.7224    0.0000     4          
   407  O     c      1.9621 *    13.7224 *    13.7224    0.0000     4          
   408  O     c      5.8828 *    17.6430 *     5.8810 *  0.0000     8          
   409  O     c      9.8035 *     9.8017 *    13.7224 *  0.0000     8          
   410  O     c     13.7242 *    13.7224 *    -1.9603 *  0.0000     8          
   411  O     c     13.7242 *     9.8017 *     9.8017    0.0000     4          
   412  O     c     17.6448 *     5.8810 *     5.8810    0.0000     4          
   413  Cl    c    -19.6016 *     0.0000       0.0000    0.0000     1          
   414  Cl    c    -15.6809 *     0.0000      11.7620 *  0.0000     4          
   415  Cl    c    -11.7602 *     0.0000      15.6827 *  0.0000     4          
   416  Cl    c      0.0018 *    11.7620 *    15.6827 *  0.0000     8          
   417  Cl    c      0.0018 *     0.0000      19.6034 *  0.0000     4          
   418  Cl    c     11.7638 *     0.0000      15.6827 *  0.0000     4          
   419  Cl    c     15.6845 *     0.0000      11.7620 *  0.0000     4          
   420  Cl    c     19.6052 *     0.0000       0.0000    0.0000     1          
   421  Li    c    -19.6016 *     1.9603 *     1.9603    0.0000     4          
   422  Li    c    -13.7206 *    13.7224 *     3.9207 *  0.0000     8          
   423  Li    c     -3.9189 *    13.7224 *    13.7224    0.0000     4          
   424  Li    c     -1.9585 *    -1.9603 *    19.6034 *  0.0000     8          
   425  Li    c      1.9621 *    19.6034 *    -1.9603 *  0.0000     8          
   426  Li    c      3.9225 *    13.7224 *    13.7224    0.0000     4          
   427  Li    c     13.7242 *    13.7224 *     3.9207 *  0.0000     8          
   428  Li    c     19.6052 *     1.9603 *     1.9603    0.0000     4          
   429  Cl    c    -19.6016 *     0.0000       3.9207 *  0.0000     4          
   430  Cl    c    -15.6809 *     3.9207 *    11.7620 *  0.0000     8          
   431  Cl    c    -11.7602 *     3.9207 *    15.6827 *  0.0000     8          
   432  Cl    c     -3.9189 *    11.7620 *    15.6827 *  0.0000     8          
   433  Cl    c     -3.9189 *     0.0000      19.6034 *  0.0000     4          
   434  Cl    c      0.0018 *     3.9207 *    19.6034 *  0.0000     8          
   435  Cl    c      3.9225 *    11.7620 *    15.6827 *  0.0000     8          
   436  Cl    c      3.9225 *     0.0000      19.6034 *  0.0000     4          
   437  Cl    c     11.7638 *     3.9207 *    15.6827 *  0.0000     8          
   438  Cl    c     15.6845 *     3.9207 *    11.7620 *  0.0000     8          
   439  Cl    c     19.6052 *     0.0000       3.9207 *  0.0000     4          
   440  O     s     -1.9585 *    -1.9603 *    -1.9603    0.0000     4          
   441  O     s      1.9621 *    -1.9603 *    -1.9603    0.0000     4          
   442  Cl    s      0.0018 *     0.0000       3.9207 *  0.0000     4          
   443  Cl    s      3.9225 *     0.0000       0.0000    0.0000     1          
   444  Cl    s     -3.9189 *     0.0000       3.9207 *  0.0000     4          
   445  Cl    s      0.0018 *     3.9207 *     3.9207    0.0000     4          
   446  Cl    s      3.9225 *     0.0000       3.9207 *  0.0000     4          
   447  O     s     -5.8792 *    -1.9603 *    -1.9603    0.0000     4          
   448  O     s     -1.9585 *    -1.9603 *     5.8810 *  0.0000     8          
   449  O     s      1.9621 *    -1.9603 *     5.8810 *  0.0000     8          
   450  O     s      5.8828 *    -1.9603 *    -1.9603    0.0000     4          
   451  Cl    s     -3.9189 *     3.9207 *     3.9207    0.0000     4          
   452  Cl    s      3.9225 *     3.9207 *     3.9207    0.0000     4          
   453  Cl    s      7.5251       0.0000       0.0000    0.0000     1    Defect
   454  Cl    s     -7.8395 *     0.0000       0.0000    0.0000     1          
   455  Cl    s      0.0018 *     0.0000       7.8414 *  0.0000     4          
   456  Cl    s      7.8432 *     0.0000       0.0000    0.0000     1          
   457  O     s     -5.8792 *    -1.9603 *     5.8810 *  0.0000     8          
   458  O     s     -1.9585 *     5.8810 *     5.8810    0.0000     4          
   459  O     s      1.9621 *     5.8810 *     5.8810    0.0000     4          
   460  O     s      5.8828 *    -1.9603 *     5.8810 *  0.0000     8          
   461  Cl    s     -7.8395 *     0.0000       3.9207 *  0.0000     4          
   462  Cl    s     -3.9189 *     0.0000       7.8414 *  0.0000     4          
   463  Cl    s      0.0018 *     3.9207 *     7.8414 *  0.0000     8          
   464  Cl    s      3.9225 *     0.0000       7.8414 *  0.0000     4          
   465  Cl    s      7.8432 *     0.0000       3.9207 *  0.0000     4          
   466  Cl    s     -7.8395 *     3.9207 *     3.9207    0.0000     4          
   467  Cl    s     -3.9189 *     3.9207 *     7.8414 *  0.0000     8          
   468  Cl    s      3.9225 *     3.9207 *     7.8414 *  0.0000     8          
   469  Cl    s      7.8432 *     3.9207 *     3.9207    0.0000     4          
   470  O     s     -9.7999 *    -1.9603 *    -1.9603    0.0000     4          
   471  O     s     -5.8792 *     5.8810 *     5.8810    0.0000     4          
   472  O     s     -1.9585 *    -1.9603 *     9.8017 *  0.0000     8          
   473  O     s      1.9621 *    -1.9603 *     9.8017 *  0.0000     8          
   474  O     s      5.8828 *     5.8810 *     5.8810    0.0000     4          
   475  O     s      9.8035 *    -1.9603 *    -1.9603    0.0000     4          
   476  Cl    s     -7.8395 *     0.0000       7.8414 *  0.0000     4          
   477  Cl    s      0.0018 *     7.8414 *     7.8414    0.0000     4          
   478  Cl    s      7.8432 *     0.0000       7.8414 *  0.0000     4          
   479  O     s     -9.7999 *     5.8810 *    -1.9603 *  0.0000     8          
   480  O     s     -5.8792 *     9.8017 *    -1.9603 *  0.0000     8          
   481  O     s     -1.9585 *     5.8810 *     9.8017 *  0.0000     8          
   482  O     s      1.9621 *     5.8810 *     9.8017 *  0.0000     8          
   483  O     s      5.8828 *    -1.9603 *     9.8017 *  0.0000     8          
   484  O     s      9.8035 *    -1.9603 *     5.8810 *  0.0000     8          
   485  Cl    s    -11.7602 *     0.0000       0.0000    0.0000     1          
   486  Cl    s     -7.8395 *     3.9207 *     7.8414 *  0.0000     8          
   487  Cl    s     -3.9189 *     7.8414 *     7.8414    0.0000     4          
   488  Cl    s      0.0018 *     0.0000      11.7620 *  0.0000     4          
   489  Cl    s      3.9225 *     7.8414 *     7.8414    0.0000     4          
   490  Cl    s      7.8432 *     3.9207 *     7.8414 *  0.0000     8          
   491  Cl    s     11.7638 *     0.0000       0.0000    0.0000     1          
   492  Cl    s    -11.7602 *     0.0000       3.9207 *  0.0000     4          
   493  Cl    s     -3.9189 *     0.0000      11.7620 *  0.0000     4          
   494  Cl    s      0.0018 *     3.9207 *    11.7620 *  0.0000     8          
   495  Cl    s      3.9225 *     0.0000      11.7620 *  0.0000     4          
   496  Cl    s     11.7638 *     0.0000       3.9207 *  0.0000     4          
   497  O     s     -9.7999 *     5.8810 *     5.8810    0.0000     4          
   498  O     s     -5.8792 *     5.8810 *     9.8017 *  0.0000     8          
   499  O     s      5.8828 *     5.8810 *     9.8017 *  0.0000     8          
   500  O     s      9.8035 *     5.8810 *     5.8810    0.0000     4          
   501  Cl    s    -11.7602 *     3.9207 *     3.9207    0.0000     4          
   502  Cl    s     -3.9189 *    11.7620 *     3.9207 *  0.0000     8          
   503  Cl    s      3.9225 *     3.9207 *    11.7620 *  0.0000     8          
   504  Cl    s     11.7638 *     3.9207 *     3.9207    0.0000     4          
   505  Cl    s     -7.8395 *     7.8414 *     7.8414    0.0000     4          
   506  Cl    s      7.8432 *     7.8414 *     7.8414    0.0000     4          
   507  O     s    -13.7206 *    -1.9603 *    -1.9603    0.0000     4          
   508  O     s     -9.7999 *     9.8017 *    -1.9603 *  0.0000     8          
   509  O     s     -1.9585 *    13.7224 *    -1.9603 *  0.0000     8          
   510  O     s     -1.9585 *     9.8017 *     9.8017    0.0000     4          
   511  O     s      1.9621 *    -1.9603 *    13.7224 *  0.0000     8          
   512  O     s      1.9621 *     9.8017 *     9.8017    0.0000     4          
   513  O     s      9.8035 *    -1.9603 *     9.8017 *  0.0000     8          
   514  O     s     13.7242 *    -1.9603 *    -1.9603    0.0000     4          
   515  Cl    s    -11.7602 *     0.0000       7.8414 *  0.0000     4          
   516  Cl    s     -7.8395 *     0.0000      11.7620 *  0.0000     4          
   517  Cl    s      0.0018 *     7.8414 *    11.7620 *  0.0000     8          
   518  Cl    s      7.8432 *     0.0000      11.7620 *  0.0000     4          
   519  Cl    s     11.7638 *     0.0000       7.8414 *  0.0000     4          
   520  Cl    s    -11.7602 *     3.9207 *     7.8414 *  0.0000     8          
   521  Cl    s     -7.8395 *     3.9207 *    11.7620 *  0.0000     8          
   522  Cl    s     -3.9189 *     7.8414 *    11.7620 *  0.0000     8          
   523  Cl    s      3.9225 *     7.8414 *    11.7620 *  0.0000     8          
   524  Cl    s      7.8432 *    11.7620 *     3.9207 *  0.0000     8          
   525  Cl    s     11.7638 *     3.9207 *     7.8414 *  0.0000     8          
   526  O     s    -13.7206 *    -1.9603 *     5.8810 *  0.0000     8          
   527  O     s     -9.7999 *     5.8810 *     9.8017 *  0.0000     8          
   528  O     s     -5.8792 *    13.7224 *    -1.9603 *  0.0000     8          
   529  O     s     -5.8792 *     9.8017 *     9.8017    0.0000     4          
   530  O     s     -1.9585 *     5.8810 *    13.7224 *  0.0000     8          
   531  O     s      1.9621 *     5.8810 *    13.7224 *  0.0000     8          
   532  O     s      5.8828 *    -1.9603 *    13.7224 *  0.0000     8          
   533  O     s      5.8828 *     9.8017 *     9.8017    0.0000     4          
   534  O     s      9.8035 *     5.8810 *     9.8017 *  0.0000     8          
   535  O     s     13.7242 *    -1.9603 *     5.8810 *  0.0000     8          
   536  Cl    s    -15.6809 *     0.0000       0.0000    0.0000     1          
   537  Cl    s      0.0018 *     0.0000      15.6827 *  0.0000     4          
   538  Cl    s     15.6845 *     0.0000       0.0000    0.0000     1          
   539  O     s    -13.7206 *     5.8810 *     5.8810    0.0000     4          
   540  O     s     -5.8792 *     5.8810 *    13.7224 *  0.0000     8          
   541  O     s      5.8828 *     5.8810 *    13.7224 *  0.0000     8          
   542  O     s     13.7242 *     5.8810 *     5.8810    0.0000     4          
   543  Cl    s    -15.6809 *     0.0000       3.9207 *  0.0000     4          
   544  Cl    s    -11.7602 *     7.8414 *     7.8414    0.0000     4          
   545  Cl    s     -7.8395 *     7.8414 *    11.7620 *  0.0000     8          
   546  Cl    s     -3.9189 *     0.0000      15.6827 *  0.0000     4          
   547  Cl    s      0.0018 *     3.9207 *    15.6827 *  0.0000     8          
   548  Cl    s      3.9225 *     0.0000      15.6827 *  0.0000     4          
   549  Cl    s      7.8432 *     7.8414 *    11.7620 *  0.0000     8          
   550  Cl    s     11.7638 *     7.8414 *     7.8414    0.0000     4          
   551  Cl    s     15.6845 *     0.0000       3.9207 *  0.0000     4          
   552  Cl    s    -15.6809 *     3.9207 *     3.9207    0.0000     4          
   553  Cl    s    -11.7602 *     0.0000      11.7620 *  0.0000     4          
   554  Cl    s     -3.9189 *     3.9207 *    15.6827 *  0.0000     8          
   555  Cl    s      0.0018 *    11.7620 *    11.7620    0.0000     4          
   556  Cl    s      3.9225 *     3.9207 *    15.6827 *  0.0000     8          
   557  Cl    s     11.7638 *     0.0000      11.7620 *  0.0000     4          
   558  Cl    s     15.6845 *     3.9207 *     3.9207    0.0000     4          
   559  O     s    -13.7206 *    -1.9603 *     9.8017 *  0.0000     8          
   560  O     s     -9.7999 *    13.7224 *    -1.9603 *  0.0000     8          
   561  O     s     -9.7999 *     9.8017 *     9.8017    0.0000     4          
   562  O     s     -1.9585 *     9.8017 *    13.7224 *  0.0000     8          
   563  O     s      1.9621 *     9.8017 *    13.7224 *  0.0000     8          
   564  O     s      9.8035 *    -1.9603 *    13.7224 *  0.0000     8          
   565  O     s      9.8035 *     9.8017 *     9.8017    0.0000     4          
   566  O     s     13.7242 *     9.8017 *    -1.9603 *  0.0000     8          
   567  Cl    s    -11.7602 *     3.9207 *    11.7620 *  0.0000     8          
   568  Cl    s     -3.9189 *    11.7620 *    11.7620    0.0000     4          
   569  Cl    s      3.9225 *    11.7620 *    11.7620    0.0000     4          
   570  Cl    s     11.7638 *     3.9207 *    11.7620 *  0.0000     8          
   571  Cl    s    -15.6809 *     0.0000       7.8414 *  0.0000     4          
   572  Cl    s     -7.8395 *     0.0000      15.6827 *  0.0000     4          
   573  Cl    s      0.0018 *     7.8414 *    15.6827 *  0.0000     8          
   574  Cl    s      7.8432 *     0.0000      15.6827 *  0.0000     4          
   575  Cl    s     15.6845 *     0.0000       7.8414 *  0.0000     4          
   576  O     s    -17.6412 *    -1.9603 *    -1.9603    0.0000     4          
   577  O     s    -13.7206 *     5.8810 *     9.8017 *  0.0000     8          
   578  O     s     -9.7999 *     5.8810 *    13.7224 *  0.0000     8          
   579  O     s     -5.8792 *     9.8017 *    13.7224 *  0.0000     8          
   580  O     s     -1.9585 *    -1.9603 *    17.6430 *  0.0000     8          
   581  O     s      1.9621 *    17.6430 *    -1.9603 *  0.0000     8          
   582  O     s      5.8828 *     9.8017 *    13.7224 *  0.0000     8          
   583  O     s      9.8035 *     5.8810 *    13.7224 *  0.0000     8          
   584  O     s     13.7242 *     9.8017 *     5.8810 *  0.0000     8          
   585  O     s     17.6448 *    -1.9603 *    -1.9603    0.0000     4          
   586  Cl    s    -15.6809 *     3.9207 *     7.8414 *  0.0000     8          
   587  Cl    s     -7.8395 *     3.9207 *    15.6827 *  0.0000     8          
   588  Cl    s     -3.9189 *     7.8414 *    15.6827 *  0.0000     8          
   589  Cl    s      3.9225 *     7.8414 *    15.6827 *  0.0000     8          
   590  Cl    s      7.8432 *     3.9207 *    15.6827 *  0.0000     8          
   591  Cl    s     15.6845 *     3.9207 *     7.8414 *  0.0000     8          
   592  Cl    s    -11.7602 *     7.8414 *    11.7620 *  0.0000     8          
   593  Cl    s     -7.8395 *    11.7620 *    11.7620    0.0000     4          
   594  Cl    s      7.8432 *    11.7620 *    11.7620    0.0000     4          
   595  Cl    s     11.7638 *     7.8414 *    11.7620 *  0.0000     8          
   596  O     s    -17.6412 *    -1.9603 *     5.8810 *  0.0000     8          
   597  O     s     -5.8792 *    -1.9603 *    17.6430 *  0.0000     8          
   598  O     s     -1.9585 *     5.8810 *    17.6430 *  0.0000     8          
   599  O     s      1.9621 *    17.6430 *     5.8810 *  0.0000     8          
   600  O     s      5.8828 *    17.6430 *    -1.9603 *  0.0000     8          
   601  O     s     17.6448 *     5.8810 *    -1.9603 *  0.0000     8          
   602  Cl    s    -15.6809 *     7.8414 *     7.8414    0.0000     4          
   603  Cl    s     -7.8395 *     7.8414 *    15.6827 *  0.0000     8          
   604  Cl    s      7.8432 *     7.8414 *    15.6827 *  0.0000     8          
   605  Cl    s     15.6845 *     7.8414 *     7.8414    0.0000     4          
   606  O     s    -17.6412 *     5.8810 *     5.8810    0.0000     4          
   607  O     s    -13.7206 *    -1.9603 *    13.7224 *  0.0000     8          
   608  O     s    -13.7206 *     9.8017 *     9.8017    0.0000     4          
   609  O     s     -9.7999 *     9.8017 *    13.7224 *  0.0000     8          
   610  O     s     -5.8792 *     5.8810 *    17.6430 *  0.0000     8          
   611  O     s     -1.9585 *    13.7224 *    13.7224    0.0000     4          
   612  O     s      1.9621 *    13.7224 *    13.7224    0.0000     4          
   613  O     s      5.8828 *    17.6430 *     5.8810 *  0.0000     8          
   614  O     s      9.8035 *     9.8017 *    13.7224 *  0.0000     8          
   615  O     s     13.7242 *    13.7224 *    -1.9603 *  0.0000     8          
   616  O     s     13.7242 *     9.8017 *     9.8017    0.0000     4          
   617  O     s     17.6448 *     5.8810 *     5.8810    0.0000     4          
   618  Cl    s    -19.6016 *     0.0000       0.0000    0.0000     1          
   619  Cl    s    -15.6809 *     0.0000      11.7620 *  0.0000     4          
   620  Cl    s    -11.7602 *     0.0000      15.6827 *  0.0000     4          
   621  Cl    s      0.0018 *    11.7620 *    15.6827 *  0.0000     8          
   622  Cl    s      0.0018 *     0.0000      19.6034 *  0.0000     4          
   623  Cl    s     11.7638 *     0.0000      15.6827 *  0.0000     4          
   624  Cl    s     15.6845 *     0.0000      11.7620 *  0.0000     4          
   625  Cl    s     19.6052 *     0.0000       0.0000    0.0000     1          
   626  Cl    s    -19.6016 *     0.0000       3.9207 *  0.0000     4          
   627  Cl    s    -15.6809 *     3.9207 *    11.7620 *  0.0000     8          
   628  Cl    s    -11.7602 *     3.9207 *    15.6827 *  0.0000     8          
   629  Cl    s     -3.9189 *    11.7620 *    15.6827 *  0.0000     8          
   630  Cl    s     -3.9189 *     0.0000      19.6034 *  0.0000     4          
   631  Cl    s      0.0018 *     3.9207 *    19.6034 *  0.0000     8          
   632  Cl    s      3.9225 *    11.7620 *    15.6827 *  0.0000     8          
   633  Cl    s      3.9225 *     0.0000      19.6034 *  0.0000     4          
   634  Cl    s     11.7638 *     3.9207 *    15.6827 *  0.0000     8          
   635  Cl    s     15.6845 *     3.9207 *    11.7620 *  0.0000     8          
   636  Cl    s     19.6052 *     0.0000       3.9207 *  0.0000     4          
--------------------------------------------------------------------------------


  Constraints on symmetry reduced coordinates :

--------------------------------------------------------------------------------
  Constraint no.      Unconstrained     Constrained    Coefficient    
                         Variable         Variable
--------------------------------------------------------------------------------
           1                 2 y             2 z         1.00000
           2                 4 y             4 z         1.00000
           3                 5 y             5 z         1.00000
           4                 8 y             8 z         1.00000
           5                11 y            11 z         1.00000
           6                13 y            13 z         1.00000
           7                20 y            20 z         1.00000
           8                23 y            23 z         1.00000
           9                24 y            24 z         1.00000
          10                25 y            25 z         1.00000
          11                36 y            36 z         1.00000
          12                39 y            39 z         1.00000
          13                42 y            42 z         1.00000
          14                44 y            44 z         1.00000
          15                45 y            45 z         1.00000
          16                53 y            53 z         1.00000
          17                54 y            54 z         1.00000
          18                56 y            56 z         1.00000
          19                59 y            59 z         1.00000
          20                71 y            71 z         1.00000
          21                72 y            72 z         1.00000
          22                75 y            75 z         1.00000
          23                76 y            76 z         1.00000
          24                84 y            84 z         1.00000
          25                87 y            87 z         1.00000
          26                93 y            93 z         1.00000
          27               103 y           103 z         1.00000
          28               105 y           105 z         1.00000
          29               108 y           108 z         1.00000
          30               117 y           117 z         1.00000
          31               129 y           129 z         1.00000
          32               132 y           132 z         1.00000
          33               133 y           133 z         1.00000
          34               136 y           136 z         1.00000
          35               143 y           143 z         1.00000
          36               144 y           144 z         1.00000
          37               152 y           152 z         1.00000
          38               159 y           159 z         1.00000
          39               162 y           162 z         1.00000
          40               164 y           164 z         1.00000
          41               166 y           166 z         1.00000
          42               173 y           173 z         1.00000
          43               177 y           177 z         1.00000
          44               181 y           181 z         1.00000
          45               184 y           184 z         1.00000
          46               200 y           200 z         1.00000
          47               204 y           204 z         1.00000
          48               222 y           222 z         1.00000
          49               226 y           226 z         1.00000
          50               232 y           232 z         1.00000
          51               235 y           235 z         1.00000
          52               236 y           236 z         1.00000
          53               239 y           239 z         1.00000
          54               241 y           241 z         1.00000
          55               247 y           247 z         1.00000
          56               255 y           255 z         1.00000
          57               258 y           258 z         1.00000
          58               261 y           261 z         1.00000
          59               281 y           281 z         1.00000
          60               285 y           285 z         1.00000
          61               288 y           288 z         1.00000
          62               289 y           289 z         1.00000
          63               303 y           303 z         1.00000
          64               309 y           309 z         1.00000
          65               311 y           311 z         1.00000
          66               320 y           320 z         1.00000
          67               330 y           330 z         1.00000
          68               340 y           340 z         1.00000
          69               344 y           344 z         1.00000
          70               345 y           345 z         1.00000
          71               382 y           382 z         1.00000
[...]
    556 y          3.920675     -0.000462    -3.921138    Cartesian -100.01
    556 z         15.682702     -0.001857   -15.684559    Cartesian -100.01
    557 x         15.682702     -0.000929   -15.683631    Cartesian -100.01
    557 y          0.000000      0.000000     0.000000    Cartesian    0.00
    557 z         11.762026      0.000973   -11.761053    Cartesian  -99.99
    558 x         19.603377      0.002541   -19.600837    Cartesian  -99.99
    558 y          3.920675      0.001541    -3.919135    Cartesian  -99.96
    558 z          3.920675      0.001541    -3.919135    Cartesian  -99.96
    559 x         -9.801689      0.000201     9.801890    Cartesian -100.00
    559 y         -1.960338      0.000031     1.960368    Cartesian -100.00
    559 z          9.801689     -0.000175    -9.801864    Cartesian -100.00
    560 x         -5.881013      0.000101     5.881115    Cartesian -100.00
    560 y         13.722364     -0.000211   -13.722576    Cartesian -100.00
    560 z         -1.960338      0.000026     1.960363    Cartesian -100.00
    561 x         -5.881013      0.000109     5.881122    Cartesian -100.00
    561 y          9.801689      9.802609     0.000920    Cartesian    0.01
    561 z          9.801689      9.802609     0.000920    Cartesian    0.01
    562 x          1.960338     -0.000021    -1.960358    Cartesian -100.00
    562 y          9.801689     -0.000096    -9.801785    Cartesian -100.00
    562 z         13.722364     -0.000143   -13.722507    Cartesian -100.00
    563 x          5.881013     -0.000059    -5.881072    Cartesian -100.00
    563 y          9.801689     -0.000072    -9.801761    Cartesian -100.00
    563 z         13.722364     -0.000108   -13.722472    Cartesian -100.00
    564 x         13.722364     -0.000075   -13.722439    Cartesian -100.00
    564 y         -1.960338      0.000001     1.960338    Cartesian -100.00
    564 z         13.722364      0.000000   -13.722364    Cartesian -100.00
    565 x         13.722364     -0.000074   -13.722438    Cartesian -100.00
    565 y          9.801689     -0.000001    -9.801690    Cartesian -100.00
    565 z          9.801689     -0.000001    -9.801690    Cartesian -100.00
    566 x         17.643040     -0.000006   -17.643045    Cartesian -100.00
    566 y          9.801689      0.000094    -9.801595    Cartesian -100.00
    566 z         -1.960338     -0.000016     1.960322    Cartesian -100.00
    567 x         -7.841351      0.002468     7.843819    Cartesian -100.03
    567 y          3.920675     -0.001078    -3.921753    Cartesian -100.03
    567 z         11.762026     -0.003205   -11.765231    Cartesian -100.03
    568 x          0.000000      0.000140     0.000140    Cartesian    0.00
    568 y         11.762026     -0.002256   -11.764282    Cartesian -100.02
    568 z         11.762026     -0.002256   -11.764282    Cartesian -100.02
    569 x          7.841351     -0.001284    -7.842635    Cartesian -100.02
    569 y         11.762026     -0.001252   -11.763279    Cartesian -100.01
    569 z         11.762026     -0.001252   -11.763279    Cartesian -100.01
    570 x         15.682702     -0.000866   -15.683568    Cartesian -100.01
    570 y          3.920675      0.000191    -3.920484    Cartesian -100.00
    570 z         11.762026     11.756633    -0.005393    Cartesian   -0.05
    571 x        -11.762026      0.004058    11.766084    Cartesian -100.03
    571 y          0.000000      0.000000     0.000000    Cartesian    0.00
    571 z          7.841351     -0.002491    -7.843842    Cartesian -100.03
    572 x         -3.920675      0.001204     3.921880    Cartesian -100.03
    572 y          0.000000      0.000000     0.000000    Cartesian    0.00
    572 z         15.682702     -0.003402   -15.686104    Cartesian -100.02
    573 x          3.920675     -0.000570    -3.921246    Cartesian -100.01
    573 y          7.841351     -0.001146    -7.842497    Cartesian -100.01
    573 z         15.682702     -0.002285   -15.684986    Cartesian -100.01
    574 x         11.762026     -0.001217   -11.763243    Cartesian -100.01
    574 y          0.000000      0.000000     0.000000    Cartesian    0.00
    574 z         15.682702     -0.000808   -15.683510    Cartesian -100.01
    575 x         19.603377      0.001164   -19.602214    Cartesian  -99.99
    575 y          0.000000      0.000000     0.000000    Cartesian    0.00
    575 z          7.841351      0.001746    -7.839605    Cartesian  -99.98
    576 x        -13.722364      0.000240    13.722605    Cartesian -100.00
    576 y         -1.960338      0.000038     1.960376    Cartesian -100.00
    576 z         -1.960338      0.000038     1.960376    Cartesian -100.00
    577 x         -9.801689      0.000159     9.801848    Cartesian -100.00
    577 y          5.881013     -0.000089    -5.881103    Cartesian -100.00
    577 z          9.801689     -0.000140    -9.801829    Cartesian -100.00
    578 x         -5.881013      0.000085     5.881099    Cartesian -100.00
    578 y          5.881013     -0.000076    -5.881089    Cartesian -100.00
    578 z         13.722364     -0.000173   -13.722537    Cartesian -100.00
    579 x         -1.960338      0.000032     1.960370    Cartesian -100.00
    579 y          9.801689     -0.000096    -9.801785    Cartesian -100.00
    579 z         13.722364     -0.000143   -13.722507    Cartesian -100.00
    580 x          1.960338     -0.000012    -1.960350    Cartesian -100.00
    580 y         -1.960338     -1.960448    -0.000110    Cartesian    0.01
    580 z         17.643040     -0.000148   -17.643187    Cartesian -100.00
    581 x          5.881013     -0.000052    -5.881065    Cartesian -100.00
    581 y         17.643040     -0.000116   -17.643155    Cartesian -100.00
    581 z         -1.960338      0.000016     1.960353    Cartesian -100.00
    582 x          9.801689     -0.000069    -9.801757    Cartesian -100.00
    582 y          9.801689     -0.000040    -9.801729    Cartesian -100.00
    582 z         13.722364     -0.000058   -13.722423    Cartesian -100.00
    583 x         13.722364     -0.000064   -13.722428    Cartesian -100.00
    583 y          5.881013     -0.000007    -5.881020    Cartesian -100.00
    583 z         13.722364     -0.000010   -13.722375    Cartesian -100.00
    584 x         17.643040     -0.000017   -17.643057    Cartesian -100.00
    584 y          9.801689      0.000053    -9.801636    Cartesian -100.00
    584 z          5.881013      0.000032    -5.880981    Cartesian -100.00
    585 x         21.563715      0.000155   -21.563560    Cartesian -100.00
    585 y         -1.960338     -0.000034     1.960304    Cartesian -100.00
    585 z         -1.960338     -0.000034     1.960304    Cartesian -100.00
    586 x        -11.762026      0.003622    11.765649    Cartesian -100.03
    586 y          3.920675     -0.001077    -3.921753    Cartesian -100.03
    586 z          7.841351     -0.002074    -7.843425    Cartesian -100.03
    587 x         -3.920675      0.001033     3.921709    Cartesian -100.03
    587 y          3.920675     -0.000840    -3.921515    Cartesian -100.02
    587 z         15.682702     -0.003104   -15.685806    Cartesian -100.02
    588 x          0.000000      0.000243     0.000243    Cartesian    0.00
    588 y          7.841351     -0.001238    -7.842589    Cartesian -100.02
    588 z         15.682702     15.699723     0.017021    Cartesian    0.11
    589 x          7.841351     -0.000989    -7.842340    Cartesian -100.01
    589 y          7.841351     -0.000716    -7.842067    Cartesian -100.01
    589 z         15.682702     -0.001554   -15.684256    Cartesian -100.01
    590 x         11.762026     -0.001059   -11.763085    Cartesian -100.01
    590 y          3.920675     -0.000213    -3.920888    Cartesian -100.01
    590 z         15.682702     -0.000780   -15.683482    Cartesian -100.00
    591 x         19.603377      0.000827   -19.602550    Cartesian -100.00
    591 y          3.920675      0.000654    -3.920022    Cartesian  -99.98
    591 z          7.841351      0.001279    -7.840072    Cartesian  -99.98
    592 x         -7.841351      0.001934     7.843285    Cartesian -100.02
    592 y          7.841351     -0.001733    -7.843084    Cartesian -100.02
    592 z         11.762026     -0.002394   -11.764420    Cartesian -100.02
    593 x         -3.920675      0.001083     3.921759    Cartesian -100.03
    593 y         11.762026     -0.002077   -11.764103    Cartesian -100.02
    593 z         11.762026     -0.002077   -11.764103    Cartesian -100.02
    594 x         11.762026     -0.001123   -11.763150    Cartesian -100.01
    594 y         11.762026     -0.000590   -11.762617    Cartesian -100.01
    594 z         11.762026     -0.000590   -11.762617    Cartesian -100.01
    595 x         15.682702     -0.000705   -15.683407    Cartesian -100.00
    595 y          7.841351      0.000095    -7.841256    Cartesian -100.00
    595 z         11.762026      0.000157   -11.761870    Cartesian -100.00
    596 x        -13.722364      0.000193    13.722557    Cartesian -100.00
    596 y         -1.960338      0.000026     1.960364    Cartesian -100.00
    596 z          5.881013     -0.000078    -5.881091    Cartesian -100.00
    597 x         -1.960338      0.000024     1.960361    Cartesian -100.00
    597 y         -1.960338     -1.960445    -0.000107    Cartesian    0.01
    597 z         17.643040     -0.000143   -17.643182    Cartesian -100.00
    598 x          1.960338     -0.000011    -1.960348    Cartesian -100.00
    598 y          5.881013     -0.000040    -5.881053    Cartesian -100.00
    598 z         17.643040     -0.000120   -17.643160    Cartesian -100.00
    599 x          5.881013     -0.000040    -5.881053    Cartesian -100.00
    599 y         17.643040     -0.000095   -17.643135    Cartesian -100.00
    599 z          5.881013     -0.000030    -5.881043    Cartesian -100.00
    600 x          9.801689     -0.000051    -9.801740    Cartesian -100.00
    600 y         17.643040     -0.000062   -17.643102    Cartesian -100.00
    600 z         -1.960338      0.000006     1.960344    Cartesian -100.00
    601 x         21.563715      0.000088   -21.563627    Cartesian -100.00
    601 y          5.881013      0.000062    -5.880951    Cartesian -100.00
    601 z         -1.960338     -0.000020     1.960318    Cartesian -100.00
    602 x        -11.762026      0.002376    11.764402    Cartesian -100.02
    602 y          7.841351     -0.001429    -7.842780    Cartesian -100.02
    602 z          7.841351     -0.001429    -7.842780    Cartesian -100.02
    603 x         -3.920675      0.000633     3.921308    Cartesian -100.02
    603 y          7.841351     -0.000926    -7.842277    Cartesian -100.01
    603 z         15.682702     -0.002084   -15.684786    Cartesian -100.01
    604 x         11.762026     -0.000779   -11.762805    Cartesian -100.01
    604 y          7.841351     -0.000325    -7.841676    Cartesian -100.00
    604 z         15.682702     -0.000557   -15.683259    Cartesian -100.00
    605 x         19.603377      0.000127   -19.603250    Cartesian -100.00
    605 y          7.841351      0.000653    -7.840698    Cartesian  -99.99
    605 z          7.841351      0.000653    -7.840698    Cartesian  -99.99
    606 x        -13.722364    -13.723232    -0.000868    Cartesian    0.01
    606 y          5.881013     -0.000050    -5.881064    Cartesian -100.00
    606 z          5.881013     -0.000050    -5.881064    Cartesian -100.00
    607 x         -9.801689      0.000092     9.801781    Cartesian -100.00
    607 y         -1.960338      0.000013     1.960350    Cartesian -100.00
    607 z         13.722364     -0.000115   -13.722480    Cartesian -100.00
    608 x         -9.801689      0.000077     9.801766    Cartesian -100.00
    608 y          9.801689     -0.000074    -9.801763    Cartesian -100.00
    608 z          9.801689     -0.000074    -9.801763    Cartesian -100.00
    609 x         -5.881013      0.000045     5.881058    Cartesian -100.00
    609 y          9.801689     -0.000061    -9.801750    Cartesian -100.00
    609 z         13.722364     -0.000088   -13.722452    Cartesian -100.00
    610 x         -1.960338      0.000013     1.960351    Cartesian -100.00
    610 y          5.881013     -0.000031    -5.881044    Cartesian -100.00
    610 z         17.643040     -0.000096   -17.643135    Cartesian -100.00
    611 x          1.960338     -0.000011    -1.960349    Cartesian -100.00
    611 y         13.722364     -0.000070   -13.722435    Cartesian -100.00
    611 z         13.722364     -0.000070   -13.722435    Cartesian -100.00
    612 x          5.881013     -0.000028    -5.881041    Cartesian -100.00
    612 y         13.722364     -0.000055   -13.722419    Cartesian -100.00
    612 z         13.722364     -0.000055   -13.722419    Cartesian -100.00
    613 x          9.801689     -0.000037    -9.801725    Cartesian -100.00
    613 y         17.643040     -0.000043   -17.643082    Cartesian -100.00
    613 z          5.881013     -0.000014    -5.881027    Cartesian -100.00
    614 x         13.722364     -0.000038   -13.722402    Cartesian -100.00
    614 y          9.801689     -0.000009    -9.801698    Cartesian -100.00
    614 z         13.722364     -0.000012   -13.722376    Cartesian -100.00
    615 x         17.643040     -0.000022   -17.643062    Cartesian -100.00
    615 y         13.722364     13.722195    -0.000169    Cartesian   -0.00
    615 z         -1.960338     -0.000003     1.960335    Cartesian -100.00
    616 x         17.643040     -0.000019   -17.643059    Cartesian -100.00
    616 y          9.801689      0.000016    -9.801673    Cartesian -100.00
    616 z          9.801689      0.000016    -9.801673    Cartesian -100.00
    617 x         21.563715      0.000043   -21.563673    Cartesian -100.00
    617 y          5.881013      0.000035    -5.880978    Cartesian -100.00
    617 z          5.881013      0.000035    -5.880978    Cartesian -100.00
    618 x        -15.682702      0.003360    15.686062    Cartesian -100.02
    618 y          0.000000      0.000000     0.000000    Cartesian    0.00
    618 z          0.000000      0.000000     0.000000    Cartesian    0.00
    619 x        -11.762026      0.002000    11.764026    Cartesian -100.02
    619 y          0.000000      0.000000     0.000000    Cartesian    0.00
    619 z         11.762026     -0.001781   -11.763807    Cartesian -100.02
    620 x         -7.841351      0.001109     7.842460    Cartesian -100.01
    620 y          0.000000      0.000000     0.000000    Cartesian    0.00
    620 z         15.682702     -0.002130   -15.684832    Cartesian -100.01
    621 x          3.920675     -0.000350    -3.921026    Cartesian -100.01
    621 y         11.762026     -0.000842   -11.762868    Cartesian -100.01
    621 z         15.682702     -0.001241   -15.683943    Cartesian -100.01
    622 x          3.920675     -0.000350    -3.921025    Cartesian -100.01
    622 y          0.000000      0.000000     0.000000    Cartesian    0.00
    622 z         19.603377     -0.001630   -19.605008    Cartesian -100.01
    623 x         15.682702     -0.000607   -15.683309    Cartesian -100.00
    623 y          0.000000      0.000000     0.000000    Cartesian    0.00
    623 z         15.682702      0.000071   -15.682631    Cartesian -100.00
    624 x         19.603377     -0.000015   -19.603393    Cartesian -100.00
    624 y          0.000000      0.000000     0.000000    Cartesian    0.00
    624 z         11.762026      0.000749   -11.761278    Cartesian  -99.99
    625 x         23.524053      0.002019   -23.522034    Cartesian  -99.99
    625 y          0.000000      0.000000     0.000000    Cartesian    0.00
    625 z          0.000000      0.000000     0.000000    Cartesian    0.00
    626 x        -15.682702      0.002548    15.685250    Cartesian -100.02
    626 y          0.000000      0.000000     0.000000    Cartesian    0.00
    626 z          3.920675     -0.000753    -3.921429    Cartesian -100.02
    627 x        -11.762026      0.001688    11.763715    Cartesian -100.01
    627 y          3.920675      3.924545     0.003869    Cartesian    0.10
    627 z         11.762026     -0.001524   -11.763550    Cartesian -100.01
    628 x         -7.841351      0.000918     7.842269    Cartesian -100.01
    628 y          3.920675     -0.000422    -3.921098    Cartesian -100.01
    628 z         15.682702     -0.001826   -15.684528    Cartesian -100.01
    629 x          0.000000     -0.000023    -0.000023    Cartesian    0.00
    629 y         11.762026     -0.000880   -11.762906    Cartesian -100.01
    629 z         15.682702     -0.001314   -15.684016    Cartesian -100.01
    630 x          0.000000      0.000034     0.000034    Cartesian    0.00
    630 y          0.000000      0.000000     0.000000    Cartesian    0.00
    630 z         19.603377     -0.001587   -19.604965    Cartesian -100.01
    631 x          3.920675     -0.000382    -3.921057    Cartesian -100.01
    631 y          3.920675     -0.000294    -3.920969    Cartesian -100.01
    631 z         19.603377     -0.001293   -19.604670    Cartesian -100.01
    632 x          7.841351     -0.000586    -7.841937    Cartesian -100.01
    632 y         11.762026     -0.000523   -11.762550    Cartesian -100.00
    632 z         15.682702     -0.000786   -15.683488    Cartesian -100.01
    633 x          7.841351     -0.000574    -7.841925    Cartesian -100.01
    633 y          0.000000      0.000000     0.000000    Cartesian    0.00
    633 z         19.603377     -0.000965   -19.604342    Cartesian -100.00
    634 x         15.682702     -0.000546   -15.683247    Cartesian -100.00
    634 y          3.920675     -0.000010    -3.920686    Cartesian -100.00
    634 z         15.682702      0.000049   -15.682653    Cartesian -100.00
    635 x         19.603377     -0.000068   -19.603445    Cartesian -100.00
    635 y          3.920675      0.000194    -3.920482    Cartesian -100.00
    635 z         11.762026      0.000605   -11.761422    Cartesian  -99.99
    636 x         23.524053     23.514953    -0.009100    Cartesian   -0.04
    636 y          0.000000      0.000000     0.000000    Cartesian    0.00
    636 z          3.920675      0.000584    -3.920091    Cartesian  -99.99
--------------------------------------------------------------------------------


  Time to end of optimisation  =      233.7314 seconds


  Peak dynamic memory used =    1784.44 MB 


  Timing analysis for GULP :

--------------------------------------------------------------------------------
  Task / Subroutine                                          Time (Seconds)
--------------------------------------------------------------------------------
  Calculation of reciprocal space energy and derivatives          0.0003
  Calculation of reciprocal space energy using symmetry           0.0003
  Calculation of real space energy and derivatives                0.0017
  Calculation of real space energy using symmetry                 0.0036
  Calculation for region 1 energy and derivatives (2-b)          93.8376
  Calculation for region 2a energy                               39.7494
  Calculation for region 2b energy                                0.0103
  Calculation and manipulation of Hessian matrix                 91.0167
  Calculation of matrix inversion                                 7.9985
  Symmetry generation of equivalent positions                     0.0018
--------------------------------------------------------------------------------
  Total CPU time                                                233.7315
--------------------------------------------------------------------------------


  Dump file written as Li3OCl.grs


  Job Finished at 18:31.51 20th October    2020                               

