********************************************************************************
*                       GENERAL UTILITY LATTICE PROGRAM                        *
*                                 Julian Gale                                  *
*                       Curtin Institute for Computation                       *
*                    School of Molecular and Life Sciences                     *
*                    Curtin University, Western Australia                      *
********************************************************************************
* Version = 5.2.0 * Last modified =  10th September 2020                       *
********************************************************************************
*  optimise     - perform optimisation run                                     *
*  conp         - constant pressure calculation                                *
*  property     - calculate properties for final geometry                      *
*  defect       - perform defect calculation after bulk run                    *
*  compare      - compare initial and final structures                         *
********************************************************************************

  Job Started  at 17:42.58 20th October    2020                               

  Number of CPUs =     1


  Total number of configurations input =      1

********************************************************************************
*  Input for Configuration =   1                                               *
********************************************************************************

  Formula = ClOLi3                                                      

  Number of irreducible atoms/shells =       5


  Total number atoms/shells =       7

  Dimensionality = 3               :  Bulk   


  Symmetry :

  Crystal family                   :  Cubic       
  Crystal class  (Groth - 1921)    :  Cubic Hexakisoctahedral              

  Space group (centrosymmetric)    :  P M 3 M         

  Patterson group                  :  P m -3 m 

  Cartesian lattice vectors (Angstroms) :

        3.918873    0.000000    0.000000
        0.000000    3.918873    0.000000
        0.000000    0.000000    3.918873

  Cell parameters (Angstroms/Degrees):

  a =       3.9189    alpha =  90.0000
  b =       3.9189    beta  =  90.0000
  c =       3.9189    gamma =  90.0000

  Initial cell volume =          60.184349 Angs**3

  Temperature of configuration =   0.00     K 

  Pressure of configuration =         0.000 GPa 

  Fractional coordinates of asymmetric unit :

--------------------------------------------------------------------------------
   No.  Atomic       x           y          z         Charge      Occupancy
        Label      (Frac)      (Frac)     (Frac)        (e)         (Frac)  
--------------------------------------------------------------------------------
      1 Cl    c    0.000000    0.000000    0.000000     1.48500    1.000000    
      2 O     c    0.500000    0.500000    0.500000     0.18300    1.000000    
      3 Li    c    0.500000    0.500000    0.000000     1.00000    1.000000    
      4 Cl    s    0.000000    0.000000    0.000000    -2.48500    1.000000    
      5 O     s    0.500000    0.500000    0.500000    -2.18300    1.000000    
--------------------------------------------------------------------------------


  Constraints : 

--------------------------------------------------------------------------------
  Constraint no.      Unconstrained     Constrained    Coefficient    Offset
                         Variable         Variable
--------------------------------------------------------------------------------
           1              Strain 1        Strain 2       1.00000      0.0000
           2              Strain 1        Strain 3       1.00000      0.0000
--------------------------------------------------------------------------------


********************************************************************************
*  General input information                                                   *
********************************************************************************

  Species output for all configurations : 

--------------------------------------------------------------------------------
  Species    Type    Atomic    Atomic    Charge       Radii (Angs)     Library
                     Number     Mass       (e)     Cova   Ionic  VDW   Symbol
--------------------------------------------------------------------------------
    Li       Core        3       6.94   1.000000   0.680  0.000  1.800          
    O        Core        8      16.00   0.183000   0.730  0.000  1.360          
    O        Shell       8       0.00  -2.183000   0.730  0.000  1.360          
    Cl       Core       17      35.45   1.485000   0.990  0.000  1.650          
    Cl       Shell      17       0.00  -2.485000   0.990  0.000  1.650          
--------------------------------------------------------------------------------


  Lattice summation method               =    Ewald          (3-D)
                                         =    Parry          (2-D)
                                         =    Saunders et al (1-D)
  Accuracy factor for lattice sums       =   12.000


  Analytic derivatives to be used

  Time limit = Infinity

  Maximum range for interatomic potentials =    100000.000000 Angstroms

  General interatomic potentials :

--------------------------------------------------------------------------------
Atom  Types   Potential      Parameter       Value         Units   Cutoffs(Ang)
  1     2                                                            Min /  Max 
--------------------------------------------------------------------------------
O    c O    s Spring (c-s)  Spring k 2       593.72000    eV*Ang^-2 0.000  0.800
                            Spring k 4       0.0000000    eV*Ang^-4 
--------------------------------------------------------------------------------
Cl   c Cl   s Spring (c-s)  Spring k 2       29.380000    eV*Ang^-2 0.000  0.800
                            Spring k 4       0.0000000    eV*Ang^-4 
--------------------------------------------------------------------------------
Li   c Li   c Buckingham    Buckingham A     360.53000    eV        0.000 12.000
                            Buckingham rho  0.16100000    Ang       
                            Buckingham C     0.0000000    eV*Ang^6  
--------------------------------------------------------------------------------
Li   c O    s Buckingham    Buckingham A     292.30000    eV        0.000 12.000
                            Buckingham rho  0.34720000    Ang       
                            Buckingham C     0.0000000    eV*Ang^6  
--------------------------------------------------------------------------------
Li   c Cl   s Buckingham    Buckingham A     421.04000    eV        0.000 12.000
                            Buckingham rho  0.33400000    Ang       
                            Buckingham C     0.0000000    eV*Ang^6  
--------------------------------------------------------------------------------
O    s O    s Buckingham    Buckingham A     22764.300    eV        0.000 12.000
                            Buckingham rho  0.14900000    Ang       
                            Buckingham C     13.190000    eV*Ang^6  
--------------------------------------------------------------------------------
O    s Cl   s Buckingham    Buckingham A     8286.9100    eV        0.000 12.000
                            Buckingham rho  0.25900000    Ang       
                            Buckingham C     62.200000    eV*Ang^6  
--------------------------------------------------------------------------------
Cl   s Cl   s Buckingham    Buckingham A     1227.2000    eV        0.000 12.000
                            Buckingham rho  0.32100000    Ang       
                            Buckingham C     14.530000    eV*Ang^6  
--------------------------------------------------------------------------------

********************************************************************************
*  Output for configuration   1                                                *
********************************************************************************


  Components of energy : 

--------------------------------------------------------------------------------
  Interatomic potentials     =           7.26836263 eV    
  Monopole - monopole (real) =         -11.53475722 eV    
  Monopole - monopole (recip)=         -33.94580548 eV    
  Monopole - monopole (total)=         -45.48056271 eV    
--------------------------------------------------------------------------------
  Total lattice energy       =         -38.21220008 eV    
--------------------------------------------------------------------------------
  Total lattice energy       =           -3686.8932 kJ/(mole unit cells)
--------------------------------------------------------------------------------


  Number of variables =        1

  Maximum number of calculations  =          1000
  Maximum Hessian update interval =            10
  Maximum step size               =   1.000000000
  Maximum parameter tolerance     =   0.000010000
  Maximum function  tolerance     =   0.000010000
  Maximum gradient  tolerance     =   0.001000000
  Maximum gradient  component     =   0.010000000

  Symmetry constrained optimisation

  Symmetry used for second derivatives

  Cell parameters to be optimised using strains

  Newton-Raphson optimiser to be used

  BFGS hessian update to be used

  Lower half triangular hessian to be used

  Start of bulk optimisation :

  Cycle:      0 Energy:       -38.212200  Gnorm:      0.095699  CPU:    0.005
  ** Hessian calculated **
  Cycle:      1 Energy:       -38.212222  Gnorm:      0.000105  CPU:    0.006


  **** Optimisation achieved ****


  Final energy =     -38.21222207 eV
  Final Gnorm  =       0.00000016

  Components of energy : 

--------------------------------------------------------------------------------
  Interatomic potentials     =           7.24743141 eV    
  Monopole - monopole (real) =         -11.52945423 eV    
  Monopole - monopole (recip)=         -33.93019924 eV    
  Monopole - monopole (total)=         -45.45965348 eV    
--------------------------------------------------------------------------------
  Total lattice energy       =         -38.21222207 eV    
--------------------------------------------------------------------------------
  Total lattice energy       =           -3686.8953 kJ/(mole unit cells)
--------------------------------------------------------------------------------

  Final asymmetric unit coordinates :

--------------------------------------------------------------------------------
   No.  Atomic        x           y           z         Radius
        Label       (Frac)      (Frac)      (Frac)       (Angs) 
--------------------------------------------------------------------------------
     1  Cl    c     0.000000    0.000000    0.000000    0.000000
     2  O     c     0.500000    0.500000    0.500000    0.000000
     3  Li    c     0.500000    0.500000    0.000000    0.000000
     4  Cl    s     0.000000    0.000000    0.000000    0.000000
     5  O     s     0.500000    0.500000    0.500000    0.000000
--------------------------------------------------------------------------------

  Final Cartesian lattice vectors (Angstroms) :

        3.920675    0.000000    0.000000
        0.000000    3.920675    0.000000
        0.000000    0.000000    3.920675


  Final cell parameters and derivatives :

--------------------------------------------------------------------------------
       a            3.920675 Angstrom     dE/de1(xx)    -0.000000 eV/strain
       b            3.920675 Angstrom     dE/de2(yy)     0.000000 eV/strain
       c            3.920675 Angstrom     dE/de3(zz)     0.000000 eV/strain
       alpha       90.000000 Degrees      dE/de4(yz)     0.000000 eV/strain
       beta        90.000000 Degrees      dE/de5(xz)     0.000000 eV/strain
       gamma       90.000000 Degrees      dE/de6(xy)     0.000000 eV/strain
--------------------------------------------------------------------------------

  Primitive cell volume =            60.267433 Angs**3

  Density of cell =      1.991276 g/cm**3

  Non-primitive cell volume =            60.267433 Angs**3


  Final internal derivatives :

--------------------------------------------------------------------------------
   No.  Atomic          a             b             c           Radius
        Label          (eV)          (eV)          (eV)        (eV/Angs)
--------------------------------------------------------------------------------
      1 Cl    c       0.000000      0.000000      0.000000      0.000000
      2 O     c       0.000000      0.000000      0.000000      0.000000
      3 Li    c       0.000000      0.000000      0.000000      0.000000
      4 Cl    s       0.000000      0.000000      0.000000      0.000000
      5 O     s       0.000000      0.000000      0.000000      0.000000
--------------------------------------------------------------------------------
  Maximum abs         0.000000      0.000000      0.000000      0.000000
--------------------------------------------------------------------------------

  Comparison of initial and final structures : 

--------------------------------------------------------------------------------
  Parameter   Initial value   Final value   Difference    Units      Percent
--------------------------------------------------------------------------------
    Volume        60.184349     60.267433     0.083084    Angs**3      0.14
    a              3.918873      3.920675     0.001802    Angstroms    0.05
    b              3.918873      3.920675     0.001802    Angstroms    0.05
    c              3.918873      3.920675     0.001802    Angstroms    0.05
    alpha         90.000000     90.000000     0.000000    Degrees      0.00
    beta          90.000000     90.000000     0.000000    Degrees      0.00
    gamma         90.000000     90.000000     0.000000    Degrees      0.00
      1 x          0.000000      0.000000     0.000000    Fractional   0.00
      1 y          0.000000      0.000000     0.000000    Fractional   0.00
      1 z          0.000000      0.000000     0.000000    Fractional   0.00
      2 x          0.500000      0.500000     0.000000    Fractional   0.00
      2 y          0.500000      0.500000     0.000000    Fractional   0.00
      2 z          0.500000      0.500000     0.000000    Fractional   0.00
      3 x          0.500000      0.500000     0.000000    Fractional   0.00
      3 y          0.500000      0.500000     0.000000    Fractional   0.00
      3 z          0.000000      0.000000     0.000000    Fractional   0.00
      4 x          0.000000      0.000000     0.000000    Fractional   0.00
      4 y          0.000000      0.000000     0.000000    Fractional   0.00
      4 z          0.000000      0.000000     0.000000    Fractional   0.00
      5 x          0.500000      0.500000     0.000000    Fractional   0.00
      5 y          0.500000      0.500000     0.000000    Fractional   0.00
      5 z          0.500000      0.500000     0.000000    Fractional   0.00
--------------------------------------------------------------------------------


  Born effective charge tensors : 

-------------------------------------------------------------------------------
  Atom             x           y             z
-------------------------------------------------------------------------------
    1 Cl    x      -0.9489     -0.0000     -0.0000
            y      -0.0000     -0.9489     -0.0000
            z      -0.0000     -0.0000     -0.9489
-------------------------------------------------------------------------------
    2 O     x      -2.4688      0.0000      0.0000
            y       0.0000     -2.4688      0.0000
            z       0.0000      0.0000     -2.4688
-------------------------------------------------------------------------------
    3 Li    x       1.3129      0.0000     -0.0000
            y       0.0000      1.3129      0.0000
            z      -0.0000      0.0000      0.7919
-------------------------------------------------------------------------------




  Elastic Constant Matrix: (Units=GPa)

-------------------------------------------------------------------------------
  Indices      1         2         3         4         5         6    
-------------------------------------------------------------------------------
       1     94.3368   44.9178   44.9178    0.0000   -0.0000    0.0000
       2     44.9178   94.3368   44.9178   -0.0000    0.0000   -0.0000
       3     44.9178   44.9178   94.3368    0.0000   -0.0000    0.0000
       4      0.0000   -0.0000    0.0000   44.9178   -0.0000    0.0000
       5     -0.0000    0.0000   -0.0000   -0.0000   44.9178    0.0000
       6      0.0000   -0.0000    0.0000    0.0000    0.0000   44.9178
-------------------------------------------------------------------------------


  Elastic Compliance Matrix: (Units=1/GPa)

-------------------------------------------------------------------------------
  Indices      1         2         3         4         5         6    
-------------------------------------------------------------------------------
       1    0.015300 -0.004935 -0.004935 -0.000000  0.000000 -0.000000
       2   -0.004935  0.015300 -0.004935  0.000000 -0.000000  0.000000
       3   -0.004935 -0.004935  0.015300 -0.000000  0.000000 -0.000000
       4   -0.000000  0.000000 -0.000000  0.022263  0.000000 -0.000000
       5    0.000000 -0.000000  0.000000  0.000000  0.022263 -0.000000
       6   -0.000000  0.000000 -0.000000 -0.000000 -0.000000  0.022263
-------------------------------------------------------------------------------

  Mechanical properties :

-------------------------------------------------------------------------------
  Convention :                    Reuss         Voigt         Hill
-------------------------------------------------------------------------------
  Bulk  Modulus (GPa)     =      61.39080      61.39080      61.39080
  Shear Modulus (GPa)     =      33.84570      36.83448      35.34009
-------------------------------------------------------------------------------
  Velocity S-wave (km/s)  =       4.12274       4.30092       4.21277
  Velocity P-wave (km/s)  =       7.31386       7.44942       7.38195
-------------------------------------------------------------------------------
  Compressibility (1/GPa) =    0.01628909
-------------------------------------------------------------------------------
  Stress axis :                     x             y             z
-------------------------------------------------------------------------------
  Youngs Moduli (GPa)     =      65.35947      65.35947      65.35947
-------------------------------------------------------------------------------
  Poissons Ratio (x)      =                     0.32256       0.32256
  Poissons Ratio (y)      =       0.32256                     0.32256
  Poissons Ratio (z)      =       0.32256       0.32256
-------------------------------------------------------------------------------


  Piezoelectric Strain Matrix: (Units=C/m**2)

-------------------------------------------------------------------------------
  Indices      1         2         3         4         5         6    
-------------------------------------------------------------------------------
       x    -0.00000   0.00000   0.00000  -0.00000  -0.00000   0.00000
       y    -0.00000   0.00000   0.00000  -0.00000  -0.00000  -0.00000
       z     0.00000   0.00000   0.00000   0.00000  -0.00000  -0.00000
-------------------------------------------------------------------------------


  Piezoelectric Stress Matrix: (Units=10**-11 C/N)

-------------------------------------------------------------------------------
  Indices      1         2         3         4         5         6    
-------------------------------------------------------------------------------
       x    -0.00000   0.00000   0.00000  -0.00000  -0.00000   0.00000
       y    -0.00000   0.00000   0.00000  -0.00000  -0.00000  -0.00000
       z    -0.00000  -0.00000   0.00000   0.00000  -0.00000  -0.00000
-------------------------------------------------------------------------------


  Static dielectric constant tensor : 

-------------------------------------------------------------------------------
              x         y         z
-------------------------------------------------------------------------------
       x    12.11703   0.00000  -0.00000
       y     0.00000  12.11703  -0.00000
       z    -0.00000  -0.00000  12.11703
--------------------------------------------------------------------------------

  High frequency dielectric constant tensor : 

-------------------------------------------------------------------------------
              x         y         z
-------------------------------------------------------------------------------
       x     1.74104   0.00000   0.00000
       y     0.00000   1.74104   0.00000
       z     0.00000   0.00000   1.74104
-------------------------------------------------------------------------------

  Static refractive indices : 

-------------------------------------------------------------------------------
    1 =    3.48095      2 =    3.48095      3 =    3.48095
-------------------------------------------------------------------------------

  High frequency refractive indices : 

-------------------------------------------------------------------------------
    1 =    1.31948      2 =    1.31948      3 =    1.31948
-------------------------------------------------------------------------------


  Time to end of optimisation =       0.0094 seconds

********************************************************************************
*  Defect calculation for configuration   1 :                                  *
********************************************************************************

  Total number of defects =      3

  Total charge on defect  =   1.00

  Defect centre is at   1.1757   0.0000   0.0000  Angs

  Region 1 radius =  20.0000      Number of ions =   3862

  Number of symmetry inequivalent region 1 ions  =    621

  Region 2 radius =  24.0000      Number of ions =   2876

  Number of symmetry inequivalent region 2a ions =    420

  Region 2a mode = 4 : screened electrostatics due to region 1 
                       neglect correction to region 1 forces from 2a
                       region 2a displacements based on defects only

  Region 2a ions will only interact with defects in region 1

  Vacancies:

--------------------------------------------------------------------------------
    Specification type     Symbol/Number         x          y          z
--------------------------------------------------------------------------------
    Cartesian                                0.000000   0.000000   0.000000
    Cartesian                                3.918873   0.000000   0.000000
--------------------------------------------------------------------------------

  Interstitials:

--------------------------------------------------------------------------------
    Specification type     Symbol/Number         x          y          z
--------------------------------------------------------------------------------
    Atom/Fractional         Cl               1.175662   0.000000   0.000000
--------------------------------------------------------------------------------


  Symmetry reduced region 1 (Relative to defect centre) :

--------------------------------------------------------------------------------
   No.   Atomic       x            y             z       Radius  Multiplicity   
         Label      (Angs)       (Angs)        (Angs)    (Angs)     
--------------------------------------------------------------------------------
     1  Cl    c     -0.4869       0.0000       0.0000    0.0000     1    Defect
     2  Li    c      0.7847 *    -1.9603 *     0.0000    0.0000     4          
     3  O     c      0.7847 *    -1.9603 *    -1.9603    0.0000     4          
     4  Li    c     -1.1757 *    -1.9603 *    -1.9603    0.0000     4          
     5  Li    c     -3.1360 *    -1.9603 *     0.0000    0.0000     4          
     6  Li    c      2.7450 *    -1.9603 *    -1.9603    0.0000     4          
     7  Cl    c     -1.1757 *     0.0000       3.9207 *  0.0000     4          
     8  O     c     -3.1360 *    -1.9603 *    -1.9603    0.0000     4          
     9  Li    c      0.7847 *    -1.9603 *     3.9207 *  0.0000     8          
    10  Cl    c      2.7450 *     0.0000       3.9207 *  0.0000     4          
    11  Cl    c     -5.0963 *     0.0000       0.0000    0.0000     1          
    12  Li    c      4.7054 *    -1.9603 *     0.0000    0.0000     4          
    13  Li    c     -3.1360 *    -1.9603 *     3.9207 *  0.0000     8          
    14  O     c      4.7054 *    -1.9603 *    -1.9603    0.0000     4          
    15  Cl    c     -1.1757 *     3.9207 *     3.9207    0.0000     4          
    16  Li    c     -5.0963 *    -1.9603 *    -1.9603    0.0000     4          
    17  Li    c      0.7847 *     5.8810 *     0.0000    0.0000     4          
    18  Cl    c      2.7450 *     3.9207 *     3.9207    0.0000     4          
    19  O     c      0.7847 *    -1.9603 *     5.8810 *  0.0000     8          
    20  Li    c     -1.1757 *    -1.9603 *     5.8810 *  0.0000     8          
    21  Cl    c     -5.0963 *     0.0000       3.9207 *  0.0000     4          
    22  Li    c      4.7054 *    -1.9603 *     3.9207 *  0.0000     8          
    23  Li    c     -3.1360 *     5.8810 *     0.0000    0.0000     4          
    24  Cl    c      6.6657 *     0.0000       0.0000    0.0000     1          
    25  Li    c      2.7450 *    -1.9603 *     5.8810 *  0.0000     8          
    26  O     c     -3.1360 *     5.8810 *    -1.9603 *  0.0000     8          
    27  Li    c      0.7847 *     5.8810 *     3.9207 *  0.0000     8          
    28  Li    c      6.6657 *    -1.9603 *    -1.9603    0.0000     4          
    29  Li    c     -7.0567 *    -1.9603 *     0.0000    0.0000     4          
    30  Cl    c     -5.0963 *     3.9207 *     3.9207    0.0000     4          
    31  Li    c      4.7054 *     5.8810 *     0.0000    0.0000     4          
    32  O     c     -7.0567 *    -1.9603 *    -1.9603    0.0000     4          
    33  Li    c     -3.1360 *     5.8810 *     3.9207 *  0.0000     8          
    34  Cl    c      6.6657 *     0.0000       3.9207 *  0.0000     4          
    35  O     c      4.7054 *    -1.9603 *     5.8810 *  0.0000     8          
    36  Cl    c     -1.1757 *     0.0000       7.8414 *  0.0000     4          
    37  Li    c     -5.0963 *    -1.9603 *     5.8810 *  0.0000     8          
    38  Li    c      0.7847 *    -1.9603 *     7.8414 *  0.0000     8          
    39  Li    c     -7.0567 *    -1.9603 *     3.9207 *  0.0000     8          
    40  Cl    c      2.7450 *     0.0000       7.8414 *  0.0000     4          
    41  O     c      0.7847 *     5.8810 *     5.8810    0.0000     4          
    42  Li    c     -1.1757 *     5.8810 *     5.8810    0.0000     4          
    43  Li    c      4.7054 *     3.9207 *     5.8810 *  0.0000     8          
    44  Li    c     -3.1360 *    -1.9603 *     7.8414 *  0.0000     8          
    45  Cl    c      6.6657 *     3.9207 *     3.9207    0.0000     4          
    46  Li    c      2.7450 *     5.8810 *     5.8810    0.0000     4          
    47  Cl    c     -1.1757 *     3.9207 *     7.8414 *  0.0000     8          
    48  Li    c      8.6260 *    -1.9603 *     0.0000    0.0000     4          
    49  O     c     -3.1360 *     5.8810 *     5.8810    0.0000     4          
    50  Cl    c     -9.0170 *     0.0000       0.0000    0.0000     1          
    51  O     c      8.6260 *    -1.9603 *    -1.9603    0.0000     4          
    52  Li    c      6.6657 *    -1.9603 *     5.8810 *  0.0000     8          
    53  Li    c     -7.0567 *     5.8810 *     0.0000    0.0000     4          
    54  Cl    c      2.7450 *     3.9207 *     7.8414 *  0.0000     8          
    55  Cl    c     -5.0963 *     0.0000       7.8414 *  0.0000     4          
    56  Li    c      4.7054 *    -1.9603 *     7.8414 *  0.0000     8          
    57  O     c     -7.0567 *    -1.9603 *     5.8810 *  0.0000     8          
    58  Li    c     -9.0170 *    -1.9603 *    -1.9603    0.0000     4          
    59  O     c      4.7054 *     5.8810 *     5.8810    0.0000     4          
    60  Li    c      8.6260 *    -1.9603 *     3.9207 *  0.0000     8          
    61  Li    c     -5.0963 *     5.8810 *     5.8810    0.0000     4          
    62  Cl    c     -9.0170 *     0.0000       3.9207 *  0.0000     4          
    63  Li    c      0.7847 *     5.8810 *     7.8414 *  0.0000     8          
    64  Li    c      0.7847 *     9.8017 *     0.0000    0.0000     4          
    65  Li    c     -7.0567 *     5.8810 *     3.9207 *  0.0000     8          
    66  O     c      0.7847 *    -1.9603 *     9.8017 *  0.0000     8          
    67  Li    c     -1.1757 *    -1.9603 *     9.8017 *  0.0000     8          
    68  Cl    c     -5.0963 *     3.9207 *     7.8414 *  0.0000     8          
    69  Li    c     -3.1360 *     5.8810 *     7.8414 *  0.0000     8          
    70  Li    c     -3.1360 *     9.8017 *     0.0000    0.0000     4          
    71  Cl    c      6.6657 *     0.0000       7.8414 *  0.0000     4          
    72  Li    c      2.7450 *    -1.9603 *     9.8017 *  0.0000     8          
    73  Li    c      8.6260 *     5.8810 *     0.0000    0.0000     4          
    74  O     c     -3.1360 *    -1.9603 *     9.8017 *  0.0000     8          
    75  Cl    c     -9.0170 *     3.9207 *     3.9207    0.0000     4          
    76  Li    c      0.7847 *     9.8017 *     3.9207 *  0.0000     8          
    77  Cl    c     10.5864 *     0.0000       0.0000    0.0000     1          
    78  O     c      8.6260 *    -1.9603 *     5.8810 *  0.0000     8          
    79  Li    c      6.6657 *     5.8810 *     5.8810    0.0000     4          
    80  Li    c     -7.0567 *    -1.9603 *     7.8414 *  0.0000     8          
    81  Li    c      4.7054 *     5.8810 *     7.8414 *  0.0000     8          
    82  Li    c      4.7054 *     9.8017 *     0.0000    0.0000     4          
    83  O     c     -7.0567 *     5.8810 *     5.8810    0.0000     4          
    84  Li    c     -9.0170 *    -1.9603 *     5.8810 *  0.0000     8          
    85  Li    c     10.5864 *    -1.9603 *    -1.9603    0.0000     4          
    86  Li    c     -3.1360 *     9.8017 *     3.9207 *  0.0000     8          
    87  Cl    c      6.6657 *     3.9207 *     7.8414 *  0.0000     8          
    88  O     c      4.7054 *    -1.9603 *     9.8017 *  0.0000     8          
    89  Li    c    -10.9774 *    -1.9603 *     0.0000    0.0000     4          
    90  Cl    c     -1.1757 *     7.8414 *     7.8414    0.0000     4          
    91  Li    c      8.6260 *     5.8810 *     3.9207 *  0.0000     8          
    92  Li    c     -5.0963 *    -1.9603 *     9.8017 *  0.0000     8          
    93  Cl    c     10.5864 *     0.0000       3.9207 *  0.0000     4          
    94  O     c    -10.9774 *    -1.9603 *    -1.9603    0.0000     4          
    95  Cl    c      2.7450 *     7.8414 *     7.8414    0.0000     4          
    96  O     c      0.7847 *     5.8810 *     9.8017 *  0.0000     8          
    97  Li    c     -1.1757 *     9.8017 *     5.8810 *  0.0000     8          
    98  Li    c      4.7054 *     9.8017 *     3.9207 *  0.0000     8          
    99  Li    c      2.7450 *     5.8810 *     9.8017 *  0.0000     8          
   100  Li    c    -10.9774 *     3.9207 *    -1.9603 *  0.0000     8          
   101  Cl    c     -1.1757 *     0.0000      11.7620 *  0.0000     4          
   102  Li    c      8.6260 *    -1.9603 *     7.8414 *  0.0000     8          
   103  O     c     -3.1360 *     5.8810 *     9.8017 *  0.0000     8          
   104  Cl    c     -9.0170 *     0.0000       7.8414 *  0.0000     4          
   105  Li    c      0.7847 *    -1.9603 *    11.7620 *  0.0000     8          
   106  Cl    c     10.5864 *     3.9207 *     3.9207    0.0000     4          
   107  O     c      8.6260 *     5.8810 *     5.8810    0.0000     4          
   108  Li    c      6.6657 *     9.8017 *    -1.9603 *  0.0000     8          
   109  Li    c     -7.0567 *     5.8810 *     7.8414 *  0.0000     8          
   110  Li    c     -7.0567 *     9.8017 *     0.0000    0.0000     4          
   111  Cl    c      2.7450 *     0.0000      11.7620 *  0.0000     4          
   112  Cl    c     -5.0963 *     7.8414 *     7.8414    0.0000     4          
   113  O     c     -7.0567 *    -1.9603 *     9.8017 *  0.0000     8          
   114  Li    c     -9.0170 *     5.8810 *     5.8810    0.0000     4          
   115  Li    c     10.5864 *    -1.9603 *     5.8810 *  0.0000     8          
   116  Li    c     -3.1360 *    -1.9603 *    11.7620 *  0.0000     8          
   117  O     c      4.7054 *     5.8810 *     9.8017 *  0.0000     8          
   118  Li    c    -10.9774 *     5.8810 *     0.0000    0.0000     4          
   119  Cl    c     -1.1757 *     3.9207 *    11.7620 *  0.0000     8          
   120  Li    c     -5.0963 *     5.8810 *     9.8017 *  0.0000     8          
   121  Cl    c     -9.0170 *     7.8414 *     3.9207 *  0.0000     8          
   122  Li    c      0.7847 *     9.8017 *     7.8414 *  0.0000     8          
   123  O     c    -10.9774 *    -1.9603 *     5.8810 *  0.0000     8          
   124  Li    c     -7.0567 *     9.8017 *     3.9207 *  0.0000     8          
   125  Cl    c      2.7450 *     3.9207 *    11.7620 *  0.0000     8          
   126  Li    c     12.5467 *    -1.9603 *     0.0000    0.0000     4          
   127  Cl    c     -5.0963 *     0.0000      11.7620 *  0.0000     4          
   128  Li    c      4.7054 *    -1.9603 *    11.7620 *  0.0000     8          
   129  O     c     12.5467 *    -1.9603 *    -1.9603    0.0000     4          
   130  Cl    c    -12.9377 *     0.0000       0.0000    0.0000     1          
   131  Li    c     -3.1360 *     9.8017 *     7.8414 *  0.0000     8          
   132  Cl    c      6.6657 *     7.8414 *     7.8414    0.0000     4          
   133  Li    c    -10.9774 *     5.8810 *     3.9207 *  0.0000     8          
   134  Li    c      8.6260 *     5.8810 *     7.8414 *  0.0000     8          
   135  Li    c      8.6260 *     9.8017 *     0.0000    0.0000     4          
   136  Li    c      0.7847 *     5.8810 *    11.7620 *  0.0000     8          
   137  Cl    c     10.5864 *     0.0000       7.8414 *  0.0000     4          
   138  O     c      8.6260 *    -1.9603 *     9.8017 *  0.0000     8          
   139  Li    c    -12.9377 *    -1.9603 *    -1.9603    0.0000     4          
   140  Li    c      6.6657 *     9.8017 *     5.8810 *  0.0000     8          
   141  Li    c     12.5467 *    -1.9603 *     3.9207 *  0.0000     8          
   142  Cl    c     -5.0963 *     3.9207 *    11.7620 *  0.0000     8          
   143  Li    c      4.7054 *     9.8017 *     7.8414 *  0.0000     8          
   144  O     c     -7.0567 *     5.8810 *     9.8017 *  0.0000     8          
   145  Li    c     -9.0170 *    -1.9603 *     9.8017 *  0.0000     8          
   146  Li    c     10.5864 *     5.8810 *     5.8810    0.0000     4          
   147  Cl    c    -12.9377 *     0.0000       3.9207 *  0.0000     4          
   148  Li    c     -3.1360 *     5.8810 *    11.7620 *  0.0000     8          
   149  Cl    c      6.6657 *     0.0000      11.7620 *  0.0000     4          
   150  Li    c    -10.9774 *     7.8414 *    -1.9603 *  0.0000     8          
   151  Li    c      8.6260 *     9.8017 *     3.9207 *  0.0000     8          
   152  Li    c      0.7847 *    13.7224 *     0.0000    0.0000     4          
   153  Cl    c     10.5864 *     3.9207 *     7.8414 *  0.0000     8          
   154  O     c    -10.9774 *     5.8810 *     5.8810    0.0000     4          
   155  Li    c     -7.0567 *    11.7620 *    -1.9603 *  0.0000     8          
   156  Li    c     12.5467 *     5.8810 *     0.0000    0.0000     4          
   157  O     c      0.7847 *    -1.9603 *    13.7224 *  0.0000     8          
   158  O     c      0.7847 *     9.8017 *     9.8017    0.0000     4          
   159  Li    c     -1.1757 *    -1.9603 *    13.7224 *  0.0000     8          
   160  Li    c     -1.1757 *     9.8017 *     9.8017    0.0000     4          
   161  Li    c      4.7054 *     5.8810 *    11.7620 *  0.0000     8          
   162  O     c     12.5467 *    -1.9603 *     5.8810 *  0.0000     8          
   163  Cl    c    -12.9377 *     3.9207 *     3.9207    0.0000     4          
   164  Li    c     -3.1360 *    13.7224 *     0.0000    0.0000     4          
   165  Cl    c      6.6657 *     3.9207 *    11.7620 *  0.0000     8          
   166  Li    c      2.7450 *    -1.9603 *    13.7224 *  0.0000     8          
   167  Li    c      2.7450 *     9.8017 *     9.8017    0.0000     4          
   168  Cl    c     -1.1757 *     7.8414 *    11.7620 *  0.0000     8          
   169  O     c     -3.1360 *    -1.9603 *    13.7224 *  0.0000     8          
   170  O     c     -3.1360 *     9.8017 *     9.8017    0.0000     4          
   171  Cl    c     -9.0170 *     7.8414 *     7.8414    0.0000     4          
   172  Li    c      0.7847 *    13.7224 *     3.9207 *  0.0000     8          
   173  O     c      8.6260 *     5.8810 *     9.8017 *  0.0000     8          
   174  Li    c    -12.9377 *    -1.9603 *     5.8810 *  0.0000     8          
   175  Li    c     -7.0567 *     9.8017 *     7.8414 *  0.0000     8          
   176  Cl    c      2.7450 *     7.8414 *    11.7620 *  0.0000     8          
   177  Li    c     12.5467 *     5.8810 *     3.9207 *  0.0000     8          
   178  Li    c      4.7054 *    13.7224 *     0.0000    0.0000     4          
   179  Cl    c     14.5070 *     0.0000       0.0000    0.0000     1          
   180  Li    c     -9.0170 *     5.8810 *     9.8017 *  0.0000     8          
   181  Li    c     10.5864 *    -1.9603 *     9.8017 *  0.0000     8          
   182  Li    c     -3.1360 *    13.7224 *     3.9207 *  0.0000     8          
   183  O     c      4.7054 *    -1.9603 *    13.7224 *  0.0000     8          
   184  O     c      4.7054 *     9.8017 *     9.8017    0.0000     4          
   185  Li    c    -10.9774 *     5.8810 *     7.8414 *  0.0000     8          
   186  Li    c    -10.9774 *     9.8017 *     0.0000    0.0000     4          
   187  Li    c      8.6260 *    11.7620 *    -1.9603 *  0.0000     8          
   188  Li    c     -5.0963 *    13.7224 *    -1.9603 *  0.0000     8          
   189  Li    c     -5.0963 *     9.8017 *     9.8017    0.0000     4          
   190  Li    c     14.5070 *    -1.9603 *    -1.9603    0.0000     4          
   191  Cl    c     -9.0170 *     0.0000      11.7620 *  0.0000     4          
   192  O     c    -10.9774 *    -1.9603 *     9.8017 *  0.0000     8          
   193  Li    c     -7.0567 *    11.7620 *     5.8810 *  0.0000     8          
   194  Li    c     12.5467 *    -1.9603 *     7.8414 *  0.0000     8          
   195  O     c      0.7847 *     5.8810 *    13.7224 *  0.0000     8          
   196  Li    c     -1.1757 *     5.8810 *    13.7224 *  0.0000     8          
   197  Li    c    -14.8980 *    -1.9603 *     0.0000    0.0000     4          
   198  Cl    c     -5.0963 *     7.8414 *    11.7620 *  0.0000     8          
   199  Li    c      4.7054 *    13.7224 *     3.9207 *  0.0000     8          
   200  Cl    c     14.5070 *     0.0000       3.9207 *  0.0000     4          
   201  O     c     12.5467 *     5.8810 *     5.8810    0.0000     4          
   202  Cl    c    -12.9377 *     0.0000       7.8414 *  0.0000     4          
   203  O     c    -14.8980 *    -1.9603 *    -1.9603    0.0000     4          
   204  Li    c      2.7450 *     5.8810 *    13.7224 *  0.0000     8          
   205  Li    c    -10.9774 *     9.8017 *     3.9207 *  0.0000     8          
   206  Li    c      8.6260 *     9.8017 *     7.8414 *  0.0000     8          
   207  O     c     -3.1360 *     5.8810 *    13.7224 *  0.0000     8          
   208  Cl    c     -9.0170 *     3.9207 *    11.7620 *  0.0000     8          
   209  Li    c      0.7847 *     9.8017 *    11.7620 *  0.0000     8          
   210  Cl    c     10.5864 *     7.8414 *     7.8414    0.0000     4          
   211  Li    c    -12.9377 *     5.8810 *     5.8810    0.0000     4          
   212  Li    c      6.6657 *    13.7224 *    -1.9603 *  0.0000     8          
   213  Li    c      6.6657 *     9.8017 *     9.8017    0.0000     4          
   214  Li    c     -7.0567 *    13.7224 *     0.0000    0.0000     4          
   215  Li    c    -14.8980 *    -1.9603 *     3.9207 *  0.0000     8          
   216  Cl    c     14.5070 *     3.9207 *     3.9207    0.0000     4          
   217  O     c     -7.0567 *    -1.9603 *    13.7224 *  0.0000     8          
   218  O     c     -7.0567 *     9.8017 *     9.8017    0.0000     4          
   219  Li    c     10.5864 *     5.8810 *     9.8017 *  0.0000     8          
   220  Cl    c    -12.9377 *     3.9207 *     7.8414 *  0.0000     8          
   221  Li    c     -3.1360 *     9.8017 *    11.7620 *  0.0000     8          
   222  Cl    c      6.6657 *     7.8414 *    11.7620 *  0.0000     8          
   223  O     c      4.7054 *     5.8810 *    13.7224 *  0.0000     8          
   224  Cl    c     -1.1757 *     0.0000      15.6827 *  0.0000     4          
   225  Li    c      8.6260 *    11.7620 *     5.8810 *  0.0000     8          
   226  Li    c     -5.0963 *     5.8810 *    13.7224 *  0.0000     8          
   227  Li    c     14.5070 *    -1.9603 *     5.8810 *  0.0000     8          
   228  Li    c      0.7847 *    -1.9603 *    15.6827 *  0.0000     8          
   229  Li    c      0.7847 *    13.7224 *     7.8414 *  0.0000     8          
   230  Cl    c     10.5864 *     0.0000      11.7620 *  0.0000     4          
   231  O     c    -10.9774 *     5.8810 *     9.8017 *  0.0000     8          
   232  Li    c     -7.0567 *    13.7224 *     3.9207 *  0.0000     8          
   233  Cl    c      2.7450 *     0.0000      15.6827 *  0.0000     4          
   234  Li    c     12.5467 *     5.8810 *     7.8414 *  0.0000     8          
   235  Li    c     12.5467 *     9.8017 *     0.0000    0.0000     4          
   236  Li    c    -14.8980 *     5.8810 *     0.0000    0.0000     4          
   237  Li    c      4.7054 *     9.8017 *    11.7620 *  0.0000     8          
   238  O     c     12.5467 *    -1.9603 *     9.8017 *  0.0000     8          
   239  Li    c     -3.1360 *    -1.9603 *    15.6827 *  0.0000     8          
   240  Li    c     -3.1360 *    13.7224 *     7.8414 *  0.0000     8          
   241  O     c    -14.8980 *     5.8810 *    -1.9603 *  0.0000     8          
   242  Li    c    -10.9774 *    11.7620 *    -1.9603 *  0.0000     8          
   243  Cl    c     -1.1757 *     3.9207 *    15.6827 *  0.0000     8          
   244  Li    c      8.6260 *    13.7224 *     0.0000    0.0000     4          
   245  Cl    c     10.5864 *     3.9207 *    11.7620 *  0.0000     8          
   246  O     c      8.6260 *    -1.9603 *    13.7224 *  0.0000     8          
   247  O     c      8.6260 *     9.8017 *     9.8017    0.0000     4          
   248  Li    c    -12.9377 *     9.8017 *    -1.9603 *  0.0000     8          
   249  Li    c      6.6657 *     5.8810 *    13.7224 *  0.0000     8          
   250  Cl    c      2.7450 *     3.9207 *    15.6827 *  0.0000     8          
   251  Li    c     12.5467 *     3.9207 *     9.8017 *  0.0000     8          
   252  Li    c    -14.8980 *     5.8810 *     3.9207 *  0.0000     8          
   253  Cl    c     -5.0963 *     0.0000      15.6827 *  0.0000     4          
   254  Li    c      4.7054 *    -1.9603 *    15.6827 *  0.0000     8          
   255  Li    c      4.7054 *    13.7224 *     7.8414 *  0.0000     8          
   256  Cl    c     14.5070 *     0.0000       7.8414 *  0.0000     4          
   257  O     c     -7.0567 *     5.8810 *    13.7224 *  0.0000     8          
   258  Li    c     -9.0170 *    -1.9603 *    13.7224 *  0.0000     8          
   259  Li    c     -9.0170 *     9.8017 *     9.8017    0.0000     4          
   260  Li    c     16.4674 *    -1.9603 *     0.0000    0.0000     4          
   261  Li    c    -10.9774 *     7.8414 *     9.8017 *  0.0000     8          
   262  Cl    c     -1.1757 *    11.7620 *    11.7620    0.0000     4          
   263  Li    c      8.6260 *     3.9207 *    13.7224 *  0.0000     8          
   264  O     c     16.4674 *    -1.9603 *    -1.9603    0.0000     4          
   265  Li    c     14.5070 *     5.8810 *     5.8810    0.0000     4          
   266  Cl    c     -9.0170 *     7.8414 *    11.7620 *  0.0000     8          
   267  Li    c      0.7847 *     5.8810 *    15.6827 *  0.0000     8          
   268  Cl    c    -16.8584 *     0.0000       0.0000    0.0000     1          
   269  Li    c     -7.0567 *     9.8017 *    11.7620 *  0.0000     8          
   270  Cl    c      2.7450 *    11.7620 *    11.7620    0.0000     4          
   271  O     c      0.7847 *     9.8017 *    13.7224 *  0.0000     8          
   272  Li    c     -1.1757 *     9.8017 *    13.7224 *  0.0000     8          
   273  Li    c    -14.8980 *    -1.9603 *     7.8414 *  0.0000     8          
   274  Cl    c     -5.0963 *     3.9207 *    15.6827 *  0.0000     8          
   275  Cl    c     14.5070 *     3.9207 *     7.8414 *  0.0000     8          
   276  O     c     12.5467 *     5.8810 *     9.8017 *  0.0000     8          
   277  Cl    c    -12.9377 *     7.8414 *     7.8414    0.0000     4          
   278  Li    c     -3.1360 *     5.8810 *    15.6827 *  0.0000     8          
   279  Cl    c      6.6657 *     0.0000      15.6827 *  0.0000     4          
   280  Li    c     16.4674 *    -1.9603 *     3.9207 *  0.0000     8          
   281  O     c    -14.8980 *     5.8810 *     5.8810    0.0000     4          
   282  Li    c    -16.8584 *    -1.9603 *    -1.9603    0.0000     4          
   283  Li    c      2.7450 *     9.8017 *    13.7224 *  0.0000     8          
   284  Li    c    -10.9774 *    11.7620 *     5.8810 *  0.0000     8          
   285  O     c     -3.1360 *     9.8017 *    13.7224 *  0.0000     8          
   286  O     c      8.6260 *     5.8810 *    13.7224 *  0.0000     8          
   287  Li    c    -12.9377 *     9.8017 *     5.8810 *  0.0000     8          
   288  Cl    c    -16.8584 *     0.0000       3.9207 *  0.0000     4          
   289  Li    c     -7.0567 *    -1.9603 *    15.6827 *  0.0000     8          
   290  Li    c     -7.0567 *     7.8414 *    13.7224 *  0.0000     8          
   291  Li    c     12.5467 *    11.7620 *    -1.9603 *  0.0000     8          
   292  Cl    c     -5.0963 *    11.7620 *    11.7620    0.0000     4          
   293  Li    c      4.7054 *     5.8810 *    15.6827 *  0.0000     8          
   294  Li    c     -9.0170 *     5.8810 *    13.7224 *  0.0000     8          
   295  Li    c     10.5864 *    -1.9603 *    13.7224 *  0.0000     8          
   296  Li    c     10.5864 *     9.8017 *     9.8017    0.0000     4          
   297  Cl    c    -12.9377 *     0.0000      11.7620 *  0.0000     4          
   298  Cl    c      6.6657 *     3.9207 *    15.6827 *  0.0000     8          
   299  Li    c     16.4674 *     5.8810 *     0.0000    0.0000     4          
   300  O     c      4.7054 *     9.8017 *    13.7224 *  0.0000     8          
   301  Li    c    -10.9774 *    13.7224 *     0.0000    0.0000     4          
   302  Cl    c     -1.1757 *     7.8414 *    15.6827 *  0.0000     8          
   303  Li    c      8.6260 *     9.8017 *    11.7620 *  0.0000     8          
   304  O     c     16.4674 *    -1.9603 *     5.8810 *  0.0000     8          
   305  Li    c     -5.0963 *     9.8017 *    13.7224 *  0.0000     8          
   306  Li    c     14.5070 *    -1.9603 *     9.8017 *  0.0000     8          
   307  Li    c      0.7847 *    17.6430 *     0.0000    0.0000     4          
   308  Cl    c     10.5864 *     7.8414 *    11.7620 *  0.0000     8          
   309  O     c    -10.9774 *    -1.9603 *    13.7224 *  0.0000     8          
   310  O     c    -10.9774 *     9.8017 *     9.8017    0.0000     4          
   311  Cl    c    -16.8584 *     3.9207 *     3.9207    0.0000     4          
   312  Cl    c      2.7450 *     7.8414 *    15.6827 *  0.0000     8          
   313  Li    c     12.5467 *     7.8414 *     9.8017 *  0.0000     8          
   314  O     c      0.7847 *    -1.9603 *    17.6430 *  0.0000     8          
   315  Li    c     -1.1757 *    17.6430 *    -1.9603 *  0.0000     8          
   316  Li    c    -14.8980 *     5.8810 *     7.8414 *  0.0000     8          
   317  Li    c    -14.8980 *     9.8017 *     0.0000    0.0000     4          
   318  Cl    c    -12.9377 *     3.9207 *    11.7620 *  0.0000     8          
   319  Li    c     -3.1360 *    17.6430 *     0.0000    0.0000     4          
   320  Cl    c      6.6657 *    11.7620 *    11.7620    0.0000     4          
   321  Li    c     16.4674 *     3.9207 *     5.8810 *  0.0000     8          
   322  O     c    -14.8980 *    -1.9603 *     9.8017 *  0.0000     8          
   323  Li    c    -16.8584 *    -1.9603 *     5.8810 *  0.0000     8          
   324  Li    c      2.7450 *    17.6430 *    -1.9603 *  0.0000     8          
   325  Li    c    -10.9774 *     3.9207 *    13.7224 *  0.0000     8          
   326  Li    c      8.6260 *    -1.9603 *    15.6827 *  0.0000     8          
   327  Li    c      8.6260 *     7.8414 *    13.7224 *  0.0000     8          
   328  O     c     -3.1360 *    -1.9603 *    17.6430 *  0.0000     8          
   329  Cl    c     -9.0170 *     0.0000      15.6827 *  0.0000     4          
   330  Li    c      0.7847 *     3.9207 *    17.6430 *  0.0000     8          
   331  Li    c      0.7847 *    13.7224 *    11.7620 *  0.0000     8          
   332  Li    c      6.6657 *     9.8017 *    13.7224 *  0.0000     8          
   333  Li    c     -7.0567 *     5.8810 *    15.6827 *  0.0000     8          
   334  Li    c     12.5467 *    11.7620 *     5.8810 *  0.0000     8          
   335  Li    c    -14.8980 *     3.9207 *     9.8017 *  0.0000     8          
   336  Cl    c     -5.0963 *     7.8414 *    15.6827 *  0.0000     8          
   337  Li    c      4.7054 *    17.6430 *     0.0000    0.0000     4          
   338  Cl    c     14.5070 *     7.8414 *     7.8414    0.0000     4          
   339  O     c     -7.0567 *     9.8017 *    13.7224 *  0.0000     8          
   340  Li    c     10.5864 *     5.8810 *    13.7224 *  0.0000     8          
   341  Li    c     -3.1360 *    13.7224 *    11.7620 *  0.0000     8          
   342  Li    c     -3.1360 *    17.6430 *     3.9207 *  0.0000     8          
   343  Li    c     16.4674 *    -1.9603 *     7.8414 *  0.0000     8          
   344  O     c      4.7054 *    17.6430 *    -1.9603 *  0.0000     8          
   345  Cl    c     18.4277 *     0.0000       0.0000    0.0000     1          
   346  O     c     16.4674 *     5.8810 *     5.8810    0.0000     4          
   347  Li    c     -5.0963 *    -1.9603 *    17.6430 *  0.0000     8          
   348  Li    c     14.5070 *     5.8810 *     9.8017 *  0.0000     8          
   349  Cl    c     -9.0170 *     3.9207 *    15.6827 *  0.0000     8          
   350  Li    c      0.7847 *     9.8017 *    15.6827 *  0.0000     8          
   351  O     c    -10.9774 *     5.8810 *    13.7224 *  0.0000     8          
   352  Cl    c    -16.8584 *     0.0000       7.8414 *  0.0000     4          
   353  Li    c     12.5467 *    13.7224 *     0.0000    0.0000     4          
   354  O     c      0.7847 *     5.8810 *    17.6430 *  0.0000     8          
   355  Li    c     -1.1757 *     5.8810 *    17.6430 *  0.0000     8          
   356  Li    c     18.4277 *    -1.9603 *    -1.9603    0.0000     4          
   357  Li    c      4.7054 *    13.7224 *    11.7620 *  0.0000     8          
   358  Li    c      4.7054 *    17.6430 *     3.9207 *  0.0000     8          
   359  Cl    c     14.5070 *     0.0000      11.7620 *  0.0000     4          
   360  O     c     12.5467 *    -1.9603 *    13.7224 *  0.0000     8          
   361  O     c     12.5467 *     9.8017 *     9.8017    0.0000     4          
   362  Li    c     -3.1360 *     9.8017 *    15.6827 *  0.0000     8          
   363  Cl    c      6.6657 *     7.8414 *    15.6827 *  0.0000     8          
   364  O     c    -14.8980 *     5.8810 *     9.8017 *  0.0000     8          
   365  Li    c    -16.8584 *     5.8810 *     5.8810    0.0000     4          
   366  Li    c      2.7450 *    17.6430 *     5.8810 *  0.0000     8          
   367  Li    c    -10.9774 *     9.8017 *    11.7620 *  0.0000     8          
   368  Li    c      8.6260 *     5.8810 *    15.6827 *  0.0000     8          
   369  Cl    c     18.4277 *     0.0000       3.9207 *  0.0000     4          
   370  O     c     -3.1360 *    17.6430 *     5.8810 *  0.0000     8          
   371  Li    c    -18.8187 *    -1.9603 *     0.0000    0.0000     4          
   372  Cl    c     -9.0170 *    11.7620 *    11.7620    0.0000     4          
   373  Cl    c     10.5864 *     0.0000      15.6827 *  0.0000     4          
   374  O     c      8.6260 *     9.8017 *    13.7224 *  0.0000     8          
   375  Li    c    -12.9377 *    13.7224 *    -1.9603 *  0.0000     8          
   376  Li    c    -12.9377 *     9.8017 *     9.8017    0.0000     4          
   377  Li    c      6.6657 *    -1.9603 *    17.6430 *  0.0000     8          
   378  Cl    c    -16.8584 *     3.9207 *     7.8414 *  0.0000     8          
   379  Li    c     -7.0567 *    17.6430 *     0.0000    0.0000     4          
   380  Li    c     12.5467 *     3.9207 *    13.7224 *  0.0000     8          
   381  O     c    -18.8187 *    -1.9603 *    -1.9603    0.0000     4          
   382  Li    c    -14.8980 *    -1.9603 *    11.7620 *  0.0000     8          
   383  Li    c      4.7054 *     9.8017 *    15.6827 *  0.0000     8          
   384  Cl    c     14.5070 *     3.9207 *    11.7620 *  0.0000     8          
   385  O     c     -7.0567 *    -1.9603 *    17.6430 *  0.0000     8          
   386  Li    c     -9.0170 *     9.8017 *    13.7224 *  0.0000     8          
   387  Cl    c    -12.9377 *     7.8414 *    11.7620 *  0.0000     8          
   388  Li    c     16.4674 *     9.8017 *     0.0000    0.0000     4          
   389  Li    c     16.4674 *     7.8414 *     5.8810 *  0.0000     8          
   390  O     c      4.7054 *    17.6430 *     5.8810 *  0.0000     8          
   391  Li    c    -10.9774 *    -1.9603 *    15.6827 *  0.0000     8          
   392  Li    c    -10.9774 *     7.8414 *    13.7224 *  0.0000     8          
   393  Cl    c     18.4277 *     3.9207 *     3.9207    0.0000     4          
   394  O     c     16.4674 *     9.8017 *    -1.9603 *  0.0000     8          
   395  Li    c     -5.0963 *     5.8810 *    17.6430 *  0.0000     8          
   396  Li    c    -18.8187 *    -1.9603 *     3.9207 *  0.0000     8          
   397  Li    c      0.7847 *     7.8414 *    17.6430 *  0.0000     8          
   398  Cl    c     10.5864 *     3.9207 *    15.6827 *  0.0000     8          
   399  Li    c     -7.0567 *    13.7224 *    11.7620 *  0.0000     8          
   400  Li    c     -7.0567 *    17.6430 *     3.9207 *  0.0000     8          
   401  O     c      0.7847 *    13.7224 *    13.7224    0.0000     4          
   402  Li    c     -1.1757 *    13.7224 *    13.7224    0.0000     4          
   403  Li    c     18.4277 *    -1.9603 *     5.8810 *  0.0000     8          
   404  Li    c    -14.8980 *     7.8414 *     9.8017 *  0.0000     8          
   405  O     c     12.5467 *     5.8810 *    13.7224 *  0.0000     8          
   406  Li    c     -3.1360 *    17.6430 *     7.8414 *  0.0000     8          
   407  Li    c     16.4674 *     9.8017 *     3.9207 *  0.0000     8          
   408  Li    c    -16.8584 *     9.8017 *    -1.9603 *  0.0000     8          
   409  Li    c      2.7450 *    13.7224 *    13.7224    0.0000     4          
   410  Cl    c     -1.1757 *    11.7620 *    15.6827 *  0.0000     8          
   411  Cl    c     -1.1757 *     0.0000      19.6034 *  0.0000     4          
   412  Li    c      8.6260 *    17.6430 *     0.0000    0.0000     4          
   413  O     c     -3.1360 *    13.7224 *    13.7224    0.0000     4          
   414  Li    c    -18.8187 *     5.8810 *     0.0000    0.0000     4          
   415  Cl    c     -9.0170 *     7.8414 *    15.6827 *  0.0000     8          
   416  Li    c      0.7847 *    -1.9603 *    19.6034 *  0.0000     8          
   417  Cl    c     10.5864 *    11.7620 *    11.7620    0.0000     4          
   418  O     c      8.6260 *    -1.9603 *    17.6430 *  0.0000     8          
   419  Li    c    -12.9377 *    13.7224 *     5.8810 *  0.0000     8          
   420  Li    c      6.6657 *     5.8810 *    17.6430 *  0.0000     8          
   421  Li    c     -7.0567 *     9.8017 *    15.6827 *  0.0000     8          
   422  Cl    c      2.7450 *    11.7620 *    15.6827 *  0.0000     8          
   423  Cl    c      2.7450 *     0.0000      19.6034 *  0.0000     4          
   424  Li    c     12.5467 *     9.8017 *    11.7620 *  0.0000     8          
   425  O     c    -18.8187 *    -1.9603 *     5.8810 *  0.0000     8          
   426  Li    c    -14.8980 *     5.8810 *    11.7620 *  0.0000     8          
   427  Li    c      4.7054 *    17.6430 *     7.8414 *  0.0000     8          
   428  O     c     -7.0567 *     5.8810 *    17.6430 *  0.0000     8          
   429  Li    c     -9.0170 *    -1.9603 *    17.6430 *  0.0000     8          
   430  Li    c     10.5864 *     9.8017 *    13.7224 *  0.0000     8          
   431  Li    c     -3.1360 *    -1.9603 *    19.6034 *  0.0000     8          
   432  O     c      4.7054 *    13.7224 *    13.7224    0.0000     4          
   433  Cl    s     -0.4869       0.0000       0.0000    0.0000     1    Defect
   434  O     s      0.7847 *    -1.9603 *    -1.9603    0.0000     4          
   435  Cl    s     -1.1757 *     0.0000       3.9207 *  0.0000     4          
   436  O     s     -3.1360 *    -1.9603 *    -1.9603    0.0000     4          
   437  Cl    s      2.7450 *     0.0000       3.9207 *  0.0000     4          
   438  Cl    s     -5.0963 *     0.0000       0.0000    0.0000     1          
   439  O     s      4.7054 *    -1.9603 *    -1.9603    0.0000     4          
   440  Cl    s     -1.1757 *     3.9207 *     3.9207    0.0000     4          
   441  Cl    s      2.7450 *     3.9207 *     3.9207    0.0000     4          
   442  O     s      0.7847 *    -1.9603 *     5.8810 *  0.0000     8          
   443  Cl    s     -5.0963 *     0.0000       3.9207 *  0.0000     4          
   444  Cl    s      6.6657 *     0.0000       0.0000    0.0000     1          
   445  O     s     -3.1360 *     5.8810 *    -1.9603 *  0.0000     8          
   446  Cl    s     -5.0963 *     3.9207 *     3.9207    0.0000     4          
   447  O     s     -7.0567 *    -1.9603 *    -1.9603    0.0000     4          
   448  Cl    s      6.6657 *     0.0000       3.9207 *  0.0000     4          
   449  O     s      4.7054 *    -1.9603 *     5.8810 *  0.0000     8          
   450  Cl    s     -1.1757 *     0.0000       7.8414 *  0.0000     4          
   451  Cl    s      2.7450 *     0.0000       7.8414 *  0.0000     4          
   452  O     s      0.7847 *     5.8810 *     5.8810    0.0000     4          
   453  Cl    s      6.6657 *     3.9207 *     3.9207    0.0000     4          
   454  Cl    s     -1.1757 *     3.9207 *     7.8414 *  0.0000     8          
   455  O     s     -3.1360 *     5.8810 *     5.8810    0.0000     4          
   456  Cl    s     -9.0170 *     0.0000       0.0000    0.0000     1          
   457  O     s      8.6260 *    -1.9603 *    -1.9603    0.0000     4          
   458  Cl    s      2.7450 *     3.9207 *     7.8414 *  0.0000     8          
   459  Cl    s     -5.0963 *     0.0000       7.8414 *  0.0000     4          
   460  O     s     -7.0567 *    -1.9603 *     5.8810 *  0.0000     8          
   461  O     s      4.7054 *     5.8810 *     5.8810    0.0000     4          
   462  Cl    s     -9.0170 *     0.0000       3.9207 *  0.0000     4          
   463  O     s      0.7847 *    -1.9603 *     9.8017 *  0.0000     8          
   464  Cl    s     -5.0963 *     3.9207 *     7.8414 *  0.0000     8          
   465  Cl    s      6.6657 *     0.0000       7.8414 *  0.0000     4          
   466  O     s     -3.1360 *    -1.9603 *     9.8017 *  0.0000     8          
   467  Cl    s     -9.0170 *     3.9207 *     3.9207    0.0000     4          
   468  Cl    s     10.5864 *     0.0000       0.0000    0.0000     1          
   469  O     s      8.6260 *    -1.9603 *     5.8810 *  0.0000     8          
   470  O     s     -7.0567 *     5.8810 *     5.8810    0.0000     4          
   471  Cl    s      6.6657 *     3.9207 *     7.8414 *  0.0000     8          
   472  O     s      4.7054 *    -1.9603 *     9.8017 *  0.0000     8          
   473  Cl    s     -1.1757 *     7.8414 *     7.8414    0.0000     4          
   474  Cl    s     10.5864 *     0.0000       3.9207 *  0.0000     4          
   475  O     s    -10.9774 *    -1.9603 *    -1.9603    0.0000     4          
   476  Cl    s      2.7450 *     7.8414 *     7.8414    0.0000     4          
   477  O     s      0.7847 *     5.8810 *     9.8017 *  0.0000     8          
   478  Cl    s     -1.1757 *     0.0000      11.7620 *  0.0000     4          
   479  O     s     -3.1360 *     5.8810 *     9.8017 *  0.0000     8          
   480  Cl    s     -9.0170 *     0.0000       7.8414 *  0.0000     4          
   481  Cl    s     10.5864 *     3.9207 *     3.9207    0.0000     4          
   482  O     s      8.6260 *     5.8810 *     5.8810    0.0000     4          
   483  Cl    s      2.7450 *     0.0000      11.7620 *  0.0000     4          
   484  Cl    s     -5.0963 *     7.8414 *     7.8414    0.0000     4          
   485  O     s     -7.0567 *    -1.9603 *     9.8017 *  0.0000     8          
   486  O     s      4.7054 *     5.8810 *     9.8017 *  0.0000     8          
   487  Cl    s     -1.1757 *     3.9207 *    11.7620 *  0.0000     8          
   488  Cl    s     -9.0170 *     7.8414 *     3.9207 *  0.0000     8          
   489  O     s    -10.9774 *    -1.9603 *     5.8810 *  0.0000     8          
   490  Cl    s      2.7450 *     3.9207 *    11.7620 *  0.0000     8          
   491  Cl    s     -5.0963 *     0.0000      11.7620 *  0.0000     4          
   492  O     s     12.5467 *    -1.9603 *    -1.9603    0.0000     4          
   493  Cl    s    -12.9377 *     0.0000       0.0000    0.0000     1          
   494  Cl    s      6.6657 *     7.8414 *     7.8414    0.0000     4          
   495  Cl    s     10.5864 *     0.0000       7.8414 *  0.0000     4          
   496  O     s      8.6260 *    -1.9603 *     9.8017 *  0.0000     8          
   497  Cl    s     -5.0963 *     3.9207 *    11.7620 *  0.0000     8          
   498  O     s     -7.0567 *     5.8810 *     9.8017 *  0.0000     8          
   499  Cl    s    -12.9377 *     0.0000       3.9207 *  0.0000     4          
   500  Cl    s      6.6657 *     0.0000      11.7620 *  0.0000     4          
   501  Cl    s     10.5864 *     3.9207 *     7.8414 *  0.0000     8          
   502  O     s    -10.9774 *     5.8810 *     5.8810    0.0000     4          
   503  O     s      0.7847 *    -1.9603 *    13.7224 *  0.0000     8          
   504  O     s      0.7847 *     9.8017 *     9.8017    0.0000     4          
   505  O     s     12.5467 *    -1.9603 *     5.8810 *  0.0000     8          
   506  Cl    s    -12.9377 *     3.9207 *     3.9207    0.0000     4          
   507  Cl    s      6.6657 *     3.9207 *    11.7620 *  0.0000     8          
   508  Cl    s     -1.1757 *     7.8414 *    11.7620 *  0.0000     8          
   509  O     s     -3.1360 *    -1.9603 *    13.7224 *  0.0000     8          
   510  O     s     -3.1360 *     9.8017 *     9.8017    0.0000     4          
   511  Cl    s     -9.0170 *     7.8414 *     7.8414    0.0000     4          
   512  O     s      8.6260 *     5.8810 *     9.8017 *  0.0000     8          
   513  Cl    s      2.7450 *     7.8414 *    11.7620 *  0.0000     8          
   514  Cl    s     14.5070 *     0.0000       0.0000    0.0000     1          
   515  O     s      4.7054 *    -1.9603 *    13.7224 *  0.0000     8          
   516  O     s      4.7054 *     9.8017 *     9.8017    0.0000     4          
   517  Cl    s     -9.0170 *     0.0000      11.7620 *  0.0000     4          
   518  O     s    -10.9774 *    -1.9603 *     9.8017 *  0.0000     8          
   519  O     s      0.7847 *     5.8810 *    13.7224 *  0.0000     8          
   520  Cl    s     -5.0963 *     7.8414 *    11.7620 *  0.0000     8          
   521  Cl    s     14.5070 *     0.0000       3.9207 *  0.0000     4          
   522  O     s     12.5467 *     5.8810 *     5.8810    0.0000     4          
   523  Cl    s    -12.9377 *     0.0000       7.8414 *  0.0000     4          
   524  O     s    -14.8980 *    -1.9603 *    -1.9603    0.0000     4          
   525  O     s     -3.1360 *     5.8810 *    13.7224 *  0.0000     8          
   526  Cl    s     -9.0170 *     3.9207 *    11.7620 *  0.0000     8          
   527  Cl    s     10.5864 *     7.8414 *     7.8414    0.0000     4          
   528  Cl    s     14.5070 *     3.9207 *     3.9207    0.0000     4          
   529  O     s     -7.0567 *    -1.9603 *    13.7224 *  0.0000     8          
   530  O     s     -7.0567 *     9.8017 *     9.8017    0.0000     4          
   531  Cl    s    -12.9377 *     3.9207 *     7.8414 *  0.0000     8          
   532  Cl    s      6.6657 *     7.8414 *    11.7620 *  0.0000     8          
   533  O     s      4.7054 *     5.8810 *    13.7224 *  0.0000     8          
   534  Cl    s     -1.1757 *     0.0000      15.6827 *  0.0000     4          
   535  Cl    s     10.5864 *     0.0000      11.7620 *  0.0000     4          
   536  O     s    -10.9774 *     5.8810 *     9.8017 *  0.0000     8          
   537  Cl    s      2.7450 *     0.0000      15.6827 *  0.0000     4          
   538  O     s     12.5467 *    -1.9603 *     9.8017 *  0.0000     8          
   539  O     s    -14.8980 *     5.8810 *    -1.9603 *  0.0000     8          
   540  Cl    s     -1.1757 *     3.9207 *    15.6827 *  0.0000     8          
   541  Cl    s     10.5864 *     3.9207 *    11.7620 *  0.0000     8          
   542  O     s      8.6260 *    -1.9603 *    13.7224 *  0.0000     8          
   543  O     s      8.6260 *     9.8017 *     9.8017    0.0000     4          
   544  Cl    s      2.7450 *     3.9207 *    15.6827 *  0.0000     8          
   545  Cl    s     -5.0963 *     0.0000      15.6827 *  0.0000     4          
   546  Cl    s     14.5070 *     0.0000       7.8414 *  0.0000     4          
   547  O     s     -7.0567 *     5.8810 *    13.7224 *  0.0000     8          
   548  Cl    s     -1.1757 *    11.7620 *    11.7620    0.0000     4          
   549  O     s     16.4674 *    -1.9603 *    -1.9603    0.0000     4          
   550  Cl    s     -9.0170 *     7.8414 *    11.7620 *  0.0000     8          
   551  Cl    s    -16.8584 *     0.0000       0.0000    0.0000     1          
   552  Cl    s      2.7450 *    11.7620 *    11.7620    0.0000     4          
   553  O     s      0.7847 *     9.8017 *    13.7224 *  0.0000     8          
   554  Cl    s     -5.0963 *     3.9207 *    15.6827 *  0.0000     8          
   555  Cl    s     14.5070 *     3.9207 *     7.8414 *  0.0000     8          
   556  O     s     12.5467 *     5.8810 *     9.8017 *  0.0000     8          
   557  Cl    s    -12.9377 *     7.8414 *     7.8414    0.0000     4          
   558  Cl    s      6.6657 *     0.0000      15.6827 *  0.0000     4          
   559  O     s    -14.8980 *     5.8810 *     5.8810    0.0000     4          
   560  O     s     -3.1360 *     9.8017 *    13.7224 *  0.0000     8          
   561  O     s      8.6260 *     5.8810 *    13.7224 *  0.0000     8          
   562  Cl    s    -16.8584 *     0.0000       3.9207 *  0.0000     4          
   563  Cl    s     -5.0963 *    11.7620 *    11.7620    0.0000     4          
   564  Cl    s    -12.9377 *     0.0000      11.7620 *  0.0000     4          
   565  Cl    s      6.6657 *     3.9207 *    15.6827 *  0.0000     8          
   566  O     s      4.7054 *     9.8017 *    13.7224 *  0.0000     8          
   567  Cl    s     -1.1757 *     7.8414 *    15.6827 *  0.0000     8          
   568  O     s     16.4674 *    -1.9603 *     5.8810 *  0.0000     8          
   569  Cl    s     10.5864 *     7.8414 *    11.7620 *  0.0000     8          
   570  O     s    -10.9774 *    -1.9603 *    13.7224 *  0.0000     8          
   571  O     s    -10.9774 *     9.8017 *     9.8017    0.0000     4          
   572  Cl    s    -16.8584 *     3.9207 *     3.9207    0.0000     4          
   573  Cl    s      2.7450 *     7.8414 *    15.6827 *  0.0000     8          
   574  O     s      0.7847 *    -1.9603 *    17.6430 *  0.0000     8          
   575  Cl    s    -12.9377 *     3.9207 *    11.7620 *  0.0000     8          
   576  Cl    s      6.6657 *    11.7620 *    11.7620    0.0000     4          
   577  O     s    -14.8980 *    -1.9603 *     9.8017 *  0.0000     8          
   578  O     s     -3.1360 *    -1.9603 *    17.6430 *  0.0000     8          
   579  Cl    s     -9.0170 *     0.0000      15.6827 *  0.0000     4          
   580  Cl    s     -5.0963 *     7.8414 *    15.6827 *  0.0000     8          
   581  Cl    s     14.5070 *     7.8414 *     7.8414    0.0000     4          
   582  O     s     -7.0567 *     9.8017 *    13.7224 *  0.0000     8          
   583  O     s      4.7054 *    17.6430 *    -1.9603 *  0.0000     8          
   584  Cl    s     18.4277 *     0.0000       0.0000    0.0000     1          
   585  O     s     16.4674 *     5.8810 *     5.8810    0.0000     4          
   586  Cl    s     -9.0170 *     3.9207 *    15.6827 *  0.0000     8          
   587  O     s    -10.9774 *     5.8810 *    13.7224 *  0.0000     8          
   588  Cl    s    -16.8584 *     0.0000       7.8414 *  0.0000     4          
   589  O     s      0.7847 *     5.8810 *    17.6430 *  0.0000     8          
   590  Cl    s     14.5070 *     0.0000      11.7620 *  0.0000     4          
   591  O     s     12.5467 *    -1.9603 *    13.7224 *  0.0000     8          
   592  O     s     12.5467 *     9.8017 *     9.8017    0.0000     4          
   593  Cl    s      6.6657 *     7.8414 *    15.6827 *  0.0000     8          
   594  O     s    -14.8980 *     5.8810 *     9.8017 *  0.0000     8          
   595  Cl    s     18.4277 *     0.0000       3.9207 *  0.0000     4          
   596  O     s     -3.1360 *    17.6430 *     5.8810 *  0.0000     8          
   597  Cl    s     -9.0170 *    11.7620 *    11.7620    0.0000     4          
   598  Cl    s     10.5864 *     0.0000      15.6827 *  0.0000     4          
   599  O     s      8.6260 *     9.8017 *    13.7224 *  0.0000     8          
   600  Cl    s    -16.8584 *     3.9207 *     7.8414 *  0.0000     8          
   601  O     s    -18.8187 *    -1.9603 *    -1.9603    0.0000     4          
   602  Cl    s     14.5070 *     3.9207 *    11.7620 *  0.0000     8          
   603  O     s     -7.0567 *    -1.9603 *    17.6430 *  0.0000     8          
   604  Cl    s    -12.9377 *     7.8414 *    11.7620 *  0.0000     8          
   605  O     s      4.7054 *    17.6430 *     5.8810 *  0.0000     8          
   606  Cl    s     18.4277 *     3.9207 *     3.9207    0.0000     4          
   607  O     s     16.4674 *     9.8017 *    -1.9603 *  0.0000     8          
   608  Cl    s     10.5864 *     3.9207 *    15.6827 *  0.0000     8          
   609  O     s      0.7847 *    13.7224 *    13.7224    0.0000     4          
   610  O     s     12.5467 *     5.8810 *    13.7224 *  0.0000     8          
   611  Cl    s     -1.1757 *    11.7620 *    15.6827 *  0.0000     8          
   612  Cl    s     -1.1757 *     0.0000      19.6034 *  0.0000     4          
   613  O     s     -3.1360 *    13.7224 *    13.7224    0.0000     4          
   614  Cl    s     -9.0170 *     7.8414 *    15.6827 *  0.0000     8          
   615  Cl    s     10.5864 *    11.7620 *    11.7620    0.0000     4          
   616  O     s      8.6260 *    -1.9603 *    17.6430 *  0.0000     8          
   617  Cl    s      2.7450 *    11.7620 *    15.6827 *  0.0000     8          
   618  Cl    s      2.7450 *     0.0000      19.6034 *  0.0000     4          
   619  O     s    -18.8187 *    -1.9603 *     5.8810 *  0.0000     8          
   620  O     s     -7.0567 *     5.8810 *    17.6430 *  0.0000     8          
   621  O     s      4.7054 *    13.7224 *    13.7224    0.0000     4          
--------------------------------------------------------------------------------


  Constraints on symmetry reduced coordinates :

--------------------------------------------------------------------------------
  Constraint no.      Unconstrained     Constrained    Coefficient    
                         Variable         Variable
--------------------------------------------------------------------------------
           1                 3 y             3 z         1.00000
           2                 4 y             4 z         1.00000
           3                 6 y             6 z         1.00000
           4                 8 y             8 z         1.00000
           5                14 y            14 z         1.00000
           6                15 y            15 z         1.00000
           7                16 y            16 z         1.00000
           8                18 y            18 z         1.00000
           9                28 y            28 z         1.00000
          10                30 y            30 z         1.00000
          11                32 y            32 z         1.00000
          12                41 y            41 z         1.00000
          13                42 y            42 z         1.00000
          14                45 y            45 z         1.00000
          15                46 y            46 z         1.00000
          16                49 y            49 z         1.00000
          17                51 y            51 z         1.00000
          18                58 y            58 z         1.00000
          19                59 y            59 z         1.00000
          20                61 y            61 z         1.00000
          21                75 y            75 z         1.00000
          22                79 y            79 z         1.00000
          23                83 y            83 z         1.00000
          24                85 y            85 z         1.00000
          25                90 y            90 z         1.00000
          26                94 y            94 z         1.00000
          27                95 y            95 z         1.00000
          28               106 y           106 z         1.00000
          29               107 y           107 z         1.00000
          30               112 y           112 z         1.00000
          31               114 y           114 z         1.00000
          32               129 y           129 z         1.00000
          33               132 y           132 z         1.00000
          34               139 y           139 z         1.00000
          35               146 y           146 z         1.00000
          36               154 y           154 z         1.00000
          37               158 y           158 z         1.00000
          38               160 y           160 z         1.00000
          39               163 y           163 z         1.00000
          40               167 y           167 z         1.00000
          41               170 y           170 z         1.00000
          42               171 y           171 z         1.00000
          43               184 y           184 z         1.00000
          44               189 y           189 z         1.00000
          45               190 y           190 z         1.00000
          46               201 y           201 z         1.00000
          47               203 y           203 z         1.00000
          48               210 y           210 z         1.00000
          49               211 y           211 z         1.00000
          50               213 y           213 z         1.00000
          51               216 y           216 z         1.00000
          52               218 y           218 z         1.00000
          53               247 y           247 z         1.00000
          54               259 y           259 z         1.00000
          55               262 y           262 z         1.00000
          56               264 y           264 z         1.00000
          57               265 y           265 z         1.00000
          58               270 y           270 z         1.00000
          59               277 y           277 z         1.00000
          60               281 y           281 z         1.00000
          61               282 y           282 z         1.00000
          62               292 y           292 z         1.00000
          63               296 y           296 z         1.00000
          64               310 y           310 z         1.00000
          65               311 y           311 z         1.00000
          66               320 y           320 z         1.00000
          67               338 y           338 z         1.00000
          68               346 y           346 z         1.00000
          69               356 y           356 z         1.00000
          70               361 y           361 z         1.00000
          71               365 y           365 z         1.00000
          72               372 y           372 z         1.00000
          73               376 y           376 z         1.00000
          74               381 y           381 z         1.00000
          75               393 y           393 z         1.00000
          76               401 y           401 z         1.00000
          77               402 y           402 z         1.00000
          78               409 y           409 z         1.00000
          79               413 y           413 z         1.00000
          80               417 y           417 z         1.00000
          81               432 y           432 z         1.00000
          82               434 y           434 z         1.00000
          83               436 y           436 z         1.00000
          84               439 y           439 z         1.00000
          85               440 y           440 z         1.00000
          86               441 y           441 z         1.00000
          87               446 y           446 z         1.00000
          88               447 y           447 z         1.00000
          89               452 y           452 z         1.00000
          90               453 y           453 z         1.00000
[...]
    541 y          3.920675      3.919526    -0.001150    Cartesian   -0.03
    541 z         11.762026     11.758448    -0.003578    Cartesian   -0.03
    542 x          9.801689      9.802836     0.001147    Cartesian    0.01
    542 y         -1.960338     -1.960320     0.000018    Cartesian   -0.00
    542 z         13.722364     13.722721     0.000357    Cartesian    0.00
    543 x          9.801689      9.804064     0.002376    Cartesian    0.02
    543 y          9.801689      9.801891     0.000202    Cartesian    0.00
    543 z          9.801689      9.801891     0.000202    Cartesian    0.00
    544 x          3.920675      3.922002     0.001327    Cartesian    0.03
    544 y          3.920675      3.920406    -0.000269    Cartesian   -0.01
    544 z         15.682702     15.680132    -0.002570    Cartesian   -0.02
    545 x         -3.920675     -3.917593     0.003083    Cartesian   -0.08
    545 y          0.000000      0.000000     0.000000    Cartesian    0.00
    545 z         15.682702     15.679179    -0.003523    Cartesian   -0.02
    546 x         15.682702     15.680012    -0.002690    Cartesian   -0.02
    546 y          0.000000      0.000000     0.000000    Cartesian    0.00
    546 z          7.841351      7.838356    -0.002995    Cartesian   -0.04
    547 x         -5.881013     -5.878752     0.002261    Cartesian   -0.04
    547 y          5.881013      5.879572    -0.001442    Cartesian   -0.02
    547 z         13.722364     13.719936    -0.002428    Cartesian   -0.02
    548 x         -0.000000      0.001490     0.001490    Cartesian *******
    548 y         11.762026     11.758184    -0.003842    Cartesian   -0.03
    548 z         11.762026     11.758184    -0.003842    Cartesian   -0.03
    549 x         17.643040     17.644040     0.001000    Cartesian    0.01
    549 y         -1.960338     -1.960330     0.000007    Cartesian   -0.00
    549 z         -1.960338     -1.960330     0.000007    Cartesian   -0.00
    550 x         -7.841351     -7.837037     0.004314    Cartesian   -0.06
    550 y          7.841351      7.838516    -0.002835    Cartesian   -0.04
    550 z         11.762026     11.757813    -0.004213    Cartesian   -0.04
    551 x        -15.682702    -15.677107     0.005595    Cartesian   -0.04
    551 y          0.000000      0.000000     0.000000    Cartesian    0.00
    551 z          0.000000      0.000000     0.000000    Cartesian    0.00
    552 x          3.920675      3.921512     0.000836    Cartesian    0.02
    552 y         11.762026     11.758657    -0.003370    Cartesian   -0.03
    552 z         11.762026     11.758657    -0.003370    Cartesian   -0.03
    553 x          1.960338      1.960917     0.000580    Cartesian    0.03
    553 y          9.801689      9.800967    -0.000722    Cartesian   -0.01
    553 z         13.722364     13.721768    -0.000596    Cartesian   -0.00
    554 x         -3.920675     -3.917585     0.003090    Cartesian   -0.08
    554 y          3.920675      3.919037    -0.001639    Cartesian   -0.04
    554 z         15.682702     15.678676    -0.004026    Cartesian   -0.03
    555 x         15.682702     15.680577    -0.002125    Cartesian   -0.01
    555 y          3.920675      3.919967    -0.000708    Cartesian   -0.02
    555 z          7.841351      7.838795    -0.002556    Cartesian   -0.03
    556 x         13.722364     13.723288     0.000924    Cartesian    0.01
    556 y          5.881013      5.881074     0.000061    Cartesian    0.00
    556 z          9.801689      9.801422    -0.000267    Cartesian   -0.00
    557 x        -11.762026    -11.756627     0.005399    Cartesian   -0.05
    557 y          7.841351      7.838539    -0.002812    Cartesian   -0.04
    557 z          7.841351      7.838539    -0.002812    Cartesian   -0.04
    558 x          7.841351      7.840971    -0.000380    Cartesian   -0.00
    558 y          0.000000      0.000000     0.000000    Cartesian    0.00
    558 z         15.682702     15.679255    -0.003447    Cartesian   -0.02
    559 x        -13.722364    -13.719298     0.003066    Cartesian   -0.02
    559 y          5.881013      5.880323    -0.000690    Cartesian   -0.01
    559 z          5.881013      5.880323    -0.000690    Cartesian   -0.01
    560 x         -1.960338     -1.960194     0.000144    Cartesian   -0.01
    560 y          9.801689      9.800833    -0.000855    Cartesian   -0.01
    560 z         13.722364     13.721447    -0.000917    Cartesian   -0.01
    561 x          9.801689      9.803006     0.001317    Cartesian    0.01
    561 y          5.881013      5.881577     0.000564    Cartesian    0.01
    561 z         13.722364     13.722918     0.000554    Cartesian    0.00
    562 x        -15.682702    -15.676654     0.006048    Cartesian   -0.04
    562 y          0.000000      0.000000     0.000000    Cartesian    0.00
    562 z          3.920675      3.918714    -0.001962    Cartesian   -0.05
    563 x         -3.920675     -3.918951     0.001724    Cartesian   -0.04
    563 y         11.762026     11.758973    -0.003054    Cartesian   -0.03
    563 z         11.762026     11.758973    -0.003054    Cartesian   -0.03
    564 x        -11.762026    -11.757662     0.004364    Cartesian   -0.04
    564 y          0.000000      0.000000     0.000000    Cartesian    0.00
    564 z         11.762026     11.758981    -0.003046    Cartesian   -0.03
    565 x          7.841351      7.842041     0.000690    Cartesian    0.01
    565 y          3.920675      3.920631    -0.000044    Cartesian   -0.00
    565 z         15.682702     15.679976    -0.002726    Cartesian   -0.02
    566 x          5.881013      5.882233     0.001219    Cartesian    0.02
    566 y          9.801689      9.801778     0.000090    Cartesian    0.00
    566 z         13.722364     13.722528     0.000164    Cartesian    0.00
    567 x         -0.000000      0.001181     0.001181    Cartesian *******
    567 y          7.841351      7.840305    -0.001046    Cartesian   -0.01
    567 z         15.682702     15.680171    -0.002531    Cartesian   -0.02
    568 x         17.643040     17.644075     0.001035    Cartesian    0.01
    568 y         -1.960338     -1.960343    -0.000005    Cartesian    0.00
    568 z          5.881013      5.881800     0.000787    Cartesian    0.01
    569 x         11.762026     11.762221     0.000195    Cartesian    0.00
    569 y          7.841351      7.839289    -0.002062    Cartesian   -0.03
    569 z         11.762026     11.759331    -0.002695    Cartesian   -0.02
    570 x         -9.801689     -9.800454     0.001234    Cartesian   -0.01
    570 y         -1.960338     -1.959934     0.000404    Cartesian   -0.02
    570 z         13.722364     13.721109    -0.001256    Cartesian   -0.01
    571 x         -9.801689     -9.799711     0.001978    Cartesian   -0.02
    571 y          9.801689      9.800201    -0.001487    Cartesian   -0.02
    571 z          9.801689      9.800201    -0.001487    Cartesian   -0.02
    572 x        -15.682702    -15.677408     0.005294    Cartesian   -0.03
    572 y          3.920675      3.920154    -0.000522    Cartesian   -0.01
    572 z          3.920675      3.920154    -0.000522    Cartesian   -0.01
    573 x          3.920675      3.921375     0.000699    Cartesian    0.02
    573 y          7.841351      7.840620    -0.000731    Cartesian   -0.01
    573 z         15.682702     15.680506    -0.002196    Cartesian   -0.01
    574 x          1.960338      1.960711     0.000373    Cartesian    0.02
    574 y         -1.960338     -1.961221    -0.000883    Cartesian    0.05
    574 z         17.643040     17.643262     0.000223    Cartesian    0.00
    575 x        -11.762026    -11.757910     0.004117    Cartesian   -0.03
    575 y          3.920675      3.919061    -0.001614    Cartesian   -0.04
    575 z         11.762026     11.758987    -0.003039    Cartesian   -0.03
    576 x          7.841351      7.842660     0.001309    Cartesian    0.02
    576 y         11.762026     11.760108    -0.001919    Cartesian   -0.02
    576 z         11.762026     11.760108    -0.001919    Cartesian   -0.02
    577 x        -13.722364    -13.720590     0.001775    Cartesian   -0.01
    577 y         -1.960338     -1.960052     0.000286    Cartesian   -0.01
    577 z          9.801689      9.801169    -0.000519    Cartesian   -0.01
    578 x         -1.960338     -1.960217     0.000121    Cartesian   -0.01
    578 y         -1.960338     -1.960509    -0.000171    Cartesian    0.01
    578 z         17.643040     17.643198     0.000158    Cartesian    0.00
    579 x         -7.841351     -7.839132     0.002219    Cartesian   -0.03
    579 y          0.000000      0.000000     0.000000    Cartesian    0.00
    579 z         15.682702     15.679293    -0.003409    Cartesian   -0.02
    580 x         -3.920675     -3.918632     0.002044    Cartesian   -0.05
    580 y          7.841351      7.840299    -0.001052    Cartesian   -0.01
    580 z         15.682702     15.679519    -0.003183    Cartesian   -0.02
    581 x         15.682702     15.681035    -0.001667    Cartesian   -0.01
    581 y          7.841351      7.839595    -0.001756    Cartesian   -0.02
    581 z          7.841351      7.839595    -0.001756    Cartesian   -0.02
    582 x         -5.881013     -5.880318     0.000695    Cartesian   -0.01
    582 y          9.801689      9.801464    -0.000225    Cartesian   -0.00
    582 z         13.722364     13.721688    -0.000677    Cartesian   -0.00
    583 x          5.881013      5.881603     0.000590    Cartesian    0.01
    583 y         17.643040     17.642595    -0.000445    Cartesian   -0.00
    583 z         -1.960338     -1.960690    -0.000352    Cartesian    0.02
    584 x         19.603377     19.600132    -0.003246    Cartesian   -0.02
    584 y          0.000000      0.000000     0.000000    Cartesian    0.00
    584 z          0.000000      0.000000     0.000000    Cartesian    0.00
    585 x         17.643040     17.643425     0.000385    Cartesian    0.00
    585 y          5.881013      5.881035     0.000022    Cartesian    0.00
    585 z          5.881013      5.881035     0.000022    Cartesian    0.00
    586 x         -7.841351     -7.839313     0.002038    Cartesian   -0.03
    586 y          3.920675      3.919629    -0.001047    Cartesian   -0.03
    586 z         15.682702     15.679000    -0.003702    Cartesian   -0.02
    587 x         -9.801689     -9.800614     0.001074    Cartesian   -0.01
    587 y          5.881013      5.880138    -0.000875    Cartesian   -0.01
    587 z         13.722364     13.721006    -0.001358    Cartesian   -0.01
    588 x        -15.682702    -15.677750     0.004952    Cartesian   -0.03
    588 y          0.000000      0.000000     0.000000    Cartesian    0.00
    588 z          7.841351      7.840372    -0.000979    Cartesian   -0.01
    589 x          1.960338      1.960598     0.000260    Cartesian    0.01
    589 y          5.881013      5.881217     0.000204    Cartesian    0.00
    589 z         17.643040     17.642552    -0.000487    Cartesian   -0.00
    590 x         15.682702     15.680748    -0.001954    Cartesian   -0.01
    590 y          0.000000      0.000000     0.000000    Cartesian    0.00
    590 z         11.762026     11.759164    -0.002862    Cartesian   -0.02
    591 x         13.722364     13.722250    -0.000115    Cartesian   -0.00
    591 y         -1.960338     -1.960201     0.000136    Cartesian   -0.01
    591 z         13.722364     13.721248    -0.001116    Cartesian   -0.01
    592 x         13.722364     13.722978     0.000614    Cartesian    0.00
    592 y          9.801689      9.801201    -0.000488    Cartesian   -0.00
    592 z          9.801689      9.801201    -0.000488    Cartesian   -0.00
    593 x          7.841351      7.841796     0.000445    Cartesian    0.01
    593 y          7.841351      7.840542    -0.000809    Cartesian   -0.01
    593 z         15.682702     15.680020    -0.002682    Cartesian   -0.02
    594 x        -13.722364    -13.720649     0.001715    Cartesian   -0.01
    594 y          5.881013      5.880443    -0.000570    Cartesian   -0.01
    594 z          9.801689      9.800828    -0.000860    Cartesian   -0.01
    595 x         19.603377     19.599474    -0.003904    Cartesian   -0.02
    595 y          0.000000      0.000000     0.000000    Cartesian    0.00
    595 z          3.920675      3.919730    -0.000945    Cartesian   -0.02
    596 x         -1.960338     -1.959927     0.000411    Cartesian   -0.02
    596 y         17.643040     17.642200    -0.000839    Cartesian   -0.00
    596 z          5.881013      5.880791    -0.000223    Cartesian   -0.00
    597 x         -7.841351     -7.838805     0.002546    Cartesian   -0.03
    597 y         11.762026     11.758875    -0.003152    Cartesian   -0.03
    597 z         11.762026     11.758875    -0.003152    Cartesian   -0.03
    598 x         11.762026     11.761851    -0.000175    Cartesian   -0.00
    598 y          0.000000      0.000000     0.000000    Cartesian    0.00
    598 z         15.682702     15.678754    -0.003948    Cartesian   -0.03
    599 x          9.801689      9.802195     0.000506    Cartesian    0.01
    599 y          9.801689      9.801163    -0.000526    Cartesian   -0.01
    599 z         13.722364     13.721783    -0.000582    Cartesian   -0.00
    600 x        -15.682702    -15.677510     0.005192    Cartesian   -0.03
    600 y          3.920675      3.919897    -0.000779    Cartesian   -0.02
    600 z          7.841351      7.839476    -0.001875    Cartesian   -0.02
    601 x        -17.643040    -17.640899     0.002141    Cartesian   -0.01
    601 y         -1.960338     -1.960118     0.000220    Cartesian   -0.01
    601 z         -1.960338     -1.960118     0.000220    Cartesian   -0.01
    602 x         15.682702     15.680419    -0.002283    Cartesian   -0.01
    602 y          3.920675      3.919467    -0.001209    Cartesian   -0.03
    602 z         11.762026     11.758706    -0.003321    Cartesian   -0.03
    603 x         -5.881013     -5.880523     0.000491    Cartesian   -0.01
    603 y         -1.960338     -1.960123     0.000215    Cartesian   -0.01
    603 z         17.643040     17.641821    -0.001219    Cartesian   -0.01
    604 x        -11.762026    -11.757796     0.004230    Cartesian   -0.04
    604 y          7.841351      7.839343    -0.002008    Cartesian   -0.03
    604 z         11.762026     11.758704    -0.003322    Cartesian   -0.03
    605 x          5.881013      5.881408     0.000395    Cartesian    0.01
    605 y         17.643040     17.642900    -0.000139    Cartesian   -0.00
    605 z          5.881013      5.881234     0.000220    Cartesian    0.00
    606 x         19.603377     19.598696    -0.004682    Cartesian   -0.02
    606 y          3.920675      3.919698    -0.000978    Cartesian   -0.02
    606 z          3.920675      3.919698    -0.000978    Cartesian   -0.02
    607 x         17.643040     17.642031    -0.001009    Cartesian   -0.01
    607 y          9.801689      9.800656    -0.001033    Cartesian   -0.01
    607 z         -1.960338     -1.960257     0.000081    Cartesian   -0.00
    608 x         11.762026     11.760766    -0.001261    Cartesian   -0.01
    608 y          3.920675      3.919614    -0.001061    Cartesian   -0.03
    608 z         15.682702     15.678696    -0.004006    Cartesian   -0.03
    609 x          1.960338      1.960462     0.000124    Cartesian    0.01
    609 y         13.722364     13.721192    -0.001172    Cartesian   -0.01
    609 z         13.722364     13.721192    -0.001172    Cartesian   -0.01
    610 x         13.722364     13.721169    -0.001195    Cartesian   -0.01
    610 y          5.881013      5.879848    -0.001165    Cartesian   -0.02
    610 z         13.722364     13.720629    -0.001736    Cartesian   -0.01
    611 x         -0.000000      0.001016     0.001016    Cartesian *******
    611 y         11.762026     11.758927    -0.003100    Cartesian   -0.03
    611 z         15.682702     15.678315    -0.004387    Cartesian   -0.03
    612 x         -0.000000      0.001088     0.001088    Cartesian *******
    612 y          0.000000      0.000000     0.000000    Cartesian    0.00
    612 z         19.603377     19.598269    -0.005109    Cartesian   -0.03
    613 x         -1.960338     -1.959389     0.000949    Cartesian   -0.05
    613 y         13.722364     13.720340    -0.002024    Cartesian   -0.01
    613 z         13.722364     13.720340    -0.002024    Cartesian   -0.01
    614 x         -7.841351     -7.838483     0.002868    Cartesian   -0.04
    614 y          7.841351      7.839072    -0.002279    Cartesian   -0.03
    614 z         15.682702     15.677792    -0.004910    Cartesian   -0.03
    615 x         11.762026     11.760962    -0.001064    Cartesian   -0.01
    615 y         11.762026     11.759155    -0.002872    Cartesian   -0.02
    615 z         11.762026     11.759155    -0.002872    Cartesian   -0.02
    616 x          9.801689      9.800972    -0.000717    Cartesian   -0.01
    616 y         -1.960338     -1.959718     0.000620    Cartesian   -0.03
    616 z         17.643040     17.640872    -0.002167    Cartesian   -0.01
    617 x          3.920675      3.920358    -0.000317    Cartesian   -0.01
    617 y         11.762026     11.758985    -0.003041    Cartesian   -0.03
    617 z         15.682702     15.678412    -0.004290    Cartesian   -0.03
    618 x          3.920675      3.920637    -0.000038    Cartesian   -0.00
    618 y          0.000000      0.000000     0.000000    Cartesian    0.00
    618 z         19.603377     19.597223    -0.006154    Cartesian   -0.03
    619 x        -17.643040    -17.639951     0.003089    Cartesian   -0.02
    619 y         -1.960338     -1.959757     0.000581    Cartesian   -0.03
    619 z          5.881013      5.879958    -0.001056    Cartesian   -0.02
    620 x         -5.881013     -5.879733     0.001280    Cartesian   -0.02
    620 y          5.881013      5.879901    -0.001112    Cartesian   -0.02
    620 z         17.643040     17.640362    -0.002677    Cartesian   -0.02
    621 x          5.881013      5.880155    -0.000858    Cartesian   -0.01
    621 y         13.722364     13.720481    -0.001883    Cartesian   -0.01
    621 z         13.722364     13.720481    -0.001883    Cartesian   -0.01
--------------------------------------------------------------------------------


  Time to end of optimisation  =       80.0713 seconds


  Peak dynamic memory used =    1719.07 MB 


  Timing analysis for GULP :

--------------------------------------------------------------------------------
  Task / Subroutine                                          Time (Seconds)
--------------------------------------------------------------------------------
  Calculation of reciprocal space energy and derivatives          0.0002
  Calculation of reciprocal space energy using symmetry           0.0002
  Calculation of real space energy and derivatives                0.0015
  Calculation of real space energy using symmetry                 0.0029
  Calculation for region 1 energy and derivatives (2-b)          41.4492
  Calculation for region 2a energy                               10.0834
  Calculation for region 2b energy                                0.0019
  Calculation and manipulation of Hessian matrix                 25.6411
  Calculation of matrix inversion                                 2.0520
  Symmetry generation of equivalent positions                     0.0016
--------------------------------------------------------------------------------
  Total CPU time                                                 80.0713
--------------------------------------------------------------------------------


  Dump file written as Li3OCl.grs


  Job Finished at 17:44.18 20th October    2020                               

