********************************************************************************
*                       GENERAL UTILITY LATTICE PROGRAM                        *
*                                 Julian Gale                                  *
*                       Curtin Institute for Computation                       *
*                    School of Molecular and Life Sciences                     *
*                    Curtin University, Western Australia                      *
********************************************************************************
* Version = 5.2.0 * Last modified =  10th September 2020                       *
********************************************************************************
*  optimise     - perform optimisation run                                     *
*  conp         - constant pressure calculation                                *
*  property     - calculate properties for final geometry                      *
*  defect       - perform defect calculation after bulk run                    *
*  compare      - compare initial and final structures                         *
********************************************************************************

  Job Started  at 17:47.28 20th October    2020                               

  Number of CPUs =     1


  Total number of configurations input =      1

********************************************************************************
*  Input for Configuration =   1                                               *
********************************************************************************

  Formula = ClOLi3                                                      

  Number of irreducible atoms/shells =       5


  Total number atoms/shells =       7

  Dimensionality = 3               :  Bulk   


  Symmetry :

  Crystal family                   :  Cubic       
  Crystal class  (Groth - 1921)    :  Cubic Hexakisoctahedral              

  Space group (centrosymmetric)    :  P M 3 M         

  Patterson group                  :  P m -3 m 

  Cartesian lattice vectors (Angstroms) :

        3.918873    0.000000    0.000000
        0.000000    3.918873    0.000000
        0.000000    0.000000    3.918873

  Cell parameters (Angstroms/Degrees):

  a =       3.9189    alpha =  90.0000
  b =       3.9189    beta  =  90.0000
  c =       3.9189    gamma =  90.0000

  Initial cell volume =          60.184349 Angs**3

  Temperature of configuration =   0.00     K 

  Pressure of configuration =         0.000 GPa 

  Fractional coordinates of asymmetric unit :

--------------------------------------------------------------------------------
   No.  Atomic       x           y          z         Charge      Occupancy
        Label      (Frac)      (Frac)     (Frac)        (e)         (Frac)  
--------------------------------------------------------------------------------
      1 Cl    c    0.000000    0.000000    0.000000     1.48500    1.000000    
      2 O     c    0.500000    0.500000    0.500000     0.18300    1.000000    
      3 Li    c    0.500000    0.500000    0.000000     1.00000    1.000000    
      4 Cl    s    0.000000    0.000000    0.000000    -2.48500    1.000000    
      5 O     s    0.500000    0.500000    0.500000    -2.18300    1.000000    
--------------------------------------------------------------------------------


  Constraints : 

--------------------------------------------------------------------------------
  Constraint no.      Unconstrained     Constrained    Coefficient    Offset
                         Variable         Variable
--------------------------------------------------------------------------------
           1              Strain 1        Strain 2       1.00000      0.0000
           2              Strain 1        Strain 3       1.00000      0.0000
--------------------------------------------------------------------------------


********************************************************************************
*  General input information                                                   *
********************************************************************************

  Species output for all configurations : 

--------------------------------------------------------------------------------
  Species    Type    Atomic    Atomic    Charge       Radii (Angs)     Library
                     Number     Mass       (e)     Cova   Ionic  VDW   Symbol
--------------------------------------------------------------------------------
    Li       Core        3       6.94   1.000000   0.680  0.000  1.800          
    O        Core        8      16.00   0.183000   0.730  0.000  1.360          
    O        Shell       8       0.00  -2.183000   0.730  0.000  1.360          
    Cl       Core       17      35.45   1.485000   0.990  0.000  1.650          
    Cl       Shell      17       0.00  -2.485000   0.990  0.000  1.650          
--------------------------------------------------------------------------------


  Lattice summation method               =    Ewald          (3-D)
                                         =    Parry          (2-D)
                                         =    Saunders et al (1-D)
  Accuracy factor for lattice sums       =   12.000


  Analytic derivatives to be used

  Time limit = Infinity

  Maximum range for interatomic potentials =    100000.000000 Angstroms

  General interatomic potentials :

--------------------------------------------------------------------------------
Atom  Types   Potential      Parameter       Value         Units   Cutoffs(Ang)
  1     2                                                            Min /  Max 
--------------------------------------------------------------------------------
O    c O    s Spring (c-s)  Spring k 2       593.72000    eV*Ang^-2 0.000  0.800
                            Spring k 4       0.0000000    eV*Ang^-4 
--------------------------------------------------------------------------------
Cl   c Cl   s Spring (c-s)  Spring k 2       29.380000    eV*Ang^-2 0.000  0.800
                            Spring k 4       0.0000000    eV*Ang^-4 
--------------------------------------------------------------------------------
Li   c Li   c Buckingham    Buckingham A     360.53000    eV        0.000 12.000
                            Buckingham rho  0.16100000    Ang       
                            Buckingham C     0.0000000    eV*Ang^6  
--------------------------------------------------------------------------------
Li   c O    s Buckingham    Buckingham A     292.30000    eV        0.000 12.000
                            Buckingham rho  0.34720000    Ang       
                            Buckingham C     0.0000000    eV*Ang^6  
--------------------------------------------------------------------------------
Li   c Cl   s Buckingham    Buckingham A     421.04000    eV        0.000 12.000
                            Buckingham rho  0.33400000    Ang       
                            Buckingham C     0.0000000    eV*Ang^6  
--------------------------------------------------------------------------------
O    s O    s Buckingham    Buckingham A     22764.300    eV        0.000 12.000
                            Buckingham rho  0.14900000    Ang       
                            Buckingham C     13.190000    eV*Ang^6  
--------------------------------------------------------------------------------
O    s Cl   s Buckingham    Buckingham A     8286.9100    eV        0.000 12.000
                            Buckingham rho  0.25900000    Ang       
                            Buckingham C     62.200000    eV*Ang^6  
--------------------------------------------------------------------------------
Cl   s Cl   s Buckingham    Buckingham A     1227.2000    eV        0.000 12.000
                            Buckingham rho  0.32100000    Ang       
                            Buckingham C     14.530000    eV*Ang^6  
--------------------------------------------------------------------------------

********************************************************************************
*  Output for configuration   1                                                *
********************************************************************************


  Components of energy : 

--------------------------------------------------------------------------------
  Interatomic potentials     =           7.26836263 eV    
  Monopole - monopole (real) =         -11.53475722 eV    
  Monopole - monopole (recip)=         -33.94580548 eV    
  Monopole - monopole (total)=         -45.48056271 eV    
--------------------------------------------------------------------------------
  Total lattice energy       =         -38.21220008 eV    
--------------------------------------------------------------------------------
  Total lattice energy       =           -3686.8932 kJ/(mole unit cells)
--------------------------------------------------------------------------------


  Number of variables =        1

  Maximum number of calculations  =          1000
  Maximum Hessian update interval =            10
  Maximum step size               =   1.000000000
  Maximum parameter tolerance     =   0.000010000
  Maximum function  tolerance     =   0.000010000
  Maximum gradient  tolerance     =   0.001000000
  Maximum gradient  component     =   0.010000000

  Symmetry constrained optimisation

  Symmetry used for second derivatives

  Cell parameters to be optimised using strains

  Newton-Raphson optimiser to be used

  BFGS hessian update to be used

  Lower half triangular hessian to be used

  Start of bulk optimisation :

  Cycle:      0 Energy:       -38.212200  Gnorm:      0.095699  CPU:    0.006
  ** Hessian calculated **
  Cycle:      1 Energy:       -38.212222  Gnorm:      0.000105  CPU:    0.007


  **** Optimisation achieved ****


  Final energy =     -38.21222207 eV
  Final Gnorm  =       0.00000016

  Components of energy : 

--------------------------------------------------------------------------------
  Interatomic potentials     =           7.24743141 eV    
  Monopole - monopole (real) =         -11.52945423 eV    
  Monopole - monopole (recip)=         -33.93019924 eV    
  Monopole - monopole (total)=         -45.45965348 eV    
--------------------------------------------------------------------------------
  Total lattice energy       =         -38.21222207 eV    
--------------------------------------------------------------------------------
  Total lattice energy       =           -3686.8953 kJ/(mole unit cells)
--------------------------------------------------------------------------------

  Final asymmetric unit coordinates :

--------------------------------------------------------------------------------
   No.  Atomic        x           y           z         Radius
        Label       (Frac)      (Frac)      (Frac)       (Angs) 
--------------------------------------------------------------------------------
     1  Cl    c     0.000000    0.000000    0.000000    0.000000
     2  O     c     0.500000    0.500000    0.500000    0.000000
     3  Li    c     0.500000    0.500000    0.000000    0.000000
     4  Cl    s     0.000000    0.000000    0.000000    0.000000
     5  O     s     0.500000    0.500000    0.500000    0.000000
--------------------------------------------------------------------------------

  Final Cartesian lattice vectors (Angstroms) :

        3.920675    0.000000    0.000000
        0.000000    3.920675    0.000000
        0.000000    0.000000    3.920675


  Final cell parameters and derivatives :

--------------------------------------------------------------------------------
       a            3.920675 Angstrom     dE/de1(xx)    -0.000000 eV/strain
       b            3.920675 Angstrom     dE/de2(yy)     0.000000 eV/strain
       c            3.920675 Angstrom     dE/de3(zz)     0.000000 eV/strain
       alpha       90.000000 Degrees      dE/de4(yz)     0.000000 eV/strain
       beta        90.000000 Degrees      dE/de5(xz)     0.000000 eV/strain
       gamma       90.000000 Degrees      dE/de6(xy)     0.000000 eV/strain
--------------------------------------------------------------------------------

  Primitive cell volume =            60.267433 Angs**3

  Density of cell =      1.991276 g/cm**3

  Non-primitive cell volume =            60.267433 Angs**3


  Final internal derivatives :

--------------------------------------------------------------------------------
   No.  Atomic          a             b             c           Radius
        Label          (eV)          (eV)          (eV)        (eV/Angs)
--------------------------------------------------------------------------------
      1 Cl    c       0.000000      0.000000      0.000000      0.000000
      2 O     c       0.000000      0.000000      0.000000      0.000000
      3 Li    c       0.000000      0.000000      0.000000      0.000000
      4 Cl    s       0.000000      0.000000      0.000000      0.000000
      5 O     s       0.000000      0.000000      0.000000      0.000000
--------------------------------------------------------------------------------
  Maximum abs         0.000000      0.000000      0.000000      0.000000
--------------------------------------------------------------------------------

  Comparison of initial and final structures : 

--------------------------------------------------------------------------------
  Parameter   Initial value   Final value   Difference    Units      Percent
--------------------------------------------------------------------------------
    Volume        60.184349     60.267433     0.083084    Angs**3      0.14
    a              3.918873      3.920675     0.001802    Angstroms    0.05
    b              3.918873      3.920675     0.001802    Angstroms    0.05
    c              3.918873      3.920675     0.001802    Angstroms    0.05
    alpha         90.000000     90.000000     0.000000    Degrees      0.00
    beta          90.000000     90.000000     0.000000    Degrees      0.00
    gamma         90.000000     90.000000     0.000000    Degrees      0.00
      1 x          0.000000      0.000000     0.000000    Fractional   0.00
      1 y          0.000000      0.000000     0.000000    Fractional   0.00
      1 z          0.000000      0.000000     0.000000    Fractional   0.00
      2 x          0.500000      0.500000     0.000000    Fractional   0.00
      2 y          0.500000      0.500000     0.000000    Fractional   0.00
      2 z          0.500000      0.500000     0.000000    Fractional   0.00
      3 x          0.500000      0.500000     0.000000    Fractional   0.00
      3 y          0.500000      0.500000     0.000000    Fractional   0.00
      3 z          0.000000      0.000000     0.000000    Fractional   0.00
      4 x          0.000000      0.000000     0.000000    Fractional   0.00
      4 y          0.000000      0.000000     0.000000    Fractional   0.00
      4 z          0.000000      0.000000     0.000000    Fractional   0.00
      5 x          0.500000      0.500000     0.000000    Fractional   0.00
      5 y          0.500000      0.500000     0.000000    Fractional   0.00
      5 z          0.500000      0.500000     0.000000    Fractional   0.00
--------------------------------------------------------------------------------


  Born effective charge tensors : 

-------------------------------------------------------------------------------
  Atom             x           y             z
-------------------------------------------------------------------------------
    1 Cl    x      -0.9489     -0.0000     -0.0000
            y      -0.0000     -0.9489     -0.0000
            z      -0.0000     -0.0000     -0.9489
-------------------------------------------------------------------------------
    2 O     x      -2.4688      0.0000      0.0000
            y       0.0000     -2.4688      0.0000
            z       0.0000      0.0000     -2.4688
-------------------------------------------------------------------------------
    3 Li    x       1.3129      0.0000     -0.0000
            y       0.0000      1.3129      0.0000
            z      -0.0000      0.0000      0.7919
-------------------------------------------------------------------------------




  Elastic Constant Matrix: (Units=GPa)

-------------------------------------------------------------------------------
  Indices      1         2         3         4         5         6    
-------------------------------------------------------------------------------
       1     94.3368   44.9178   44.9178    0.0000   -0.0000    0.0000
       2     44.9178   94.3368   44.9178   -0.0000    0.0000   -0.0000
       3     44.9178   44.9178   94.3368    0.0000   -0.0000    0.0000
       4      0.0000   -0.0000    0.0000   44.9178   -0.0000    0.0000
       5     -0.0000    0.0000   -0.0000   -0.0000   44.9178    0.0000
       6      0.0000   -0.0000    0.0000    0.0000    0.0000   44.9178
-------------------------------------------------------------------------------


  Elastic Compliance Matrix: (Units=1/GPa)

-------------------------------------------------------------------------------
  Indices      1         2         3         4         5         6    
-------------------------------------------------------------------------------
       1    0.015300 -0.004935 -0.004935 -0.000000  0.000000 -0.000000
       2   -0.004935  0.015300 -0.004935  0.000000 -0.000000  0.000000
       3   -0.004935 -0.004935  0.015300 -0.000000  0.000000 -0.000000
       4   -0.000000  0.000000 -0.000000  0.022263  0.000000 -0.000000
       5    0.000000 -0.000000  0.000000  0.000000  0.022263 -0.000000
       6   -0.000000  0.000000 -0.000000 -0.000000 -0.000000  0.022263
-------------------------------------------------------------------------------

  Mechanical properties :

-------------------------------------------------------------------------------
  Convention :                    Reuss         Voigt         Hill
-------------------------------------------------------------------------------
  Bulk  Modulus (GPa)     =      61.39080      61.39080      61.39080
  Shear Modulus (GPa)     =      33.84570      36.83448      35.34009
-------------------------------------------------------------------------------
  Velocity S-wave (km/s)  =       4.12274       4.30092       4.21277
  Velocity P-wave (km/s)  =       7.31386       7.44942       7.38195
-------------------------------------------------------------------------------
  Compressibility (1/GPa) =    0.01628909
-------------------------------------------------------------------------------
  Stress axis :                     x             y             z
-------------------------------------------------------------------------------
  Youngs Moduli (GPa)     =      65.35947      65.35947      65.35947
-------------------------------------------------------------------------------
  Poissons Ratio (x)      =                     0.32256       0.32256
  Poissons Ratio (y)      =       0.32256                     0.32256
  Poissons Ratio (z)      =       0.32256       0.32256
-------------------------------------------------------------------------------


  Piezoelectric Strain Matrix: (Units=C/m**2)

-------------------------------------------------------------------------------
  Indices      1         2         3         4         5         6    
-------------------------------------------------------------------------------
       x    -0.00000   0.00000   0.00000  -0.00000  -0.00000   0.00000
       y    -0.00000   0.00000   0.00000  -0.00000  -0.00000  -0.00000
       z     0.00000   0.00000   0.00000   0.00000  -0.00000  -0.00000
-------------------------------------------------------------------------------


  Piezoelectric Stress Matrix: (Units=10**-11 C/N)

-------------------------------------------------------------------------------
  Indices      1         2         3         4         5         6    
-------------------------------------------------------------------------------
       x    -0.00000   0.00000   0.00000  -0.00000  -0.00000   0.00000
       y    -0.00000   0.00000   0.00000  -0.00000  -0.00000  -0.00000
       z    -0.00000  -0.00000   0.00000   0.00000  -0.00000  -0.00000
-------------------------------------------------------------------------------


  Static dielectric constant tensor : 

-------------------------------------------------------------------------------
              x         y         z
-------------------------------------------------------------------------------
       x    12.11703   0.00000  -0.00000
       y     0.00000  12.11703  -0.00000
       z    -0.00000  -0.00000  12.11703
--------------------------------------------------------------------------------

  High frequency dielectric constant tensor : 

-------------------------------------------------------------------------------
              x         y         z
-------------------------------------------------------------------------------
       x     1.74104   0.00000   0.00000
       y     0.00000   1.74104   0.00000
       z     0.00000   0.00000   1.74104
-------------------------------------------------------------------------------

  Static refractive indices : 

-------------------------------------------------------------------------------
    1 =    3.48095      2 =    3.48095      3 =    3.48095
-------------------------------------------------------------------------------

  High frequency refractive indices : 

-------------------------------------------------------------------------------
    1 =    1.31948      2 =    1.31948      3 =    1.31948
-------------------------------------------------------------------------------


  Time to end of optimisation =       0.0125 seconds

********************************************************************************
*  Defect calculation for configuration   1 :                                  *
********************************************************************************

  Total number of defects =      3

  Total charge on defect  =   1.00

  Defect centre is at   1.7635   0.0000   0.0000  Angs

  Region 1 radius =  20.0000      Number of ions =   3902

  Number of symmetry inequivalent region 1 ions  =    629

  Region 2 radius =  24.0000      Number of ions =   2820

  Number of symmetry inequivalent region 2a ions =    409

  Region 2a mode = 4 : screened electrostatics due to region 1 
                       neglect correction to region 1 forces from 2a
                       region 2a displacements based on defects only

  Region 2a ions will only interact with defects in region 1

  Vacancies:

--------------------------------------------------------------------------------
    Specification type     Symbol/Number         x          y          z
--------------------------------------------------------------------------------
    Cartesian                                0.000000   0.000000   0.000000
    Cartesian                                3.918873   0.000000   0.000000
--------------------------------------------------------------------------------

  Interstitials:

--------------------------------------------------------------------------------
    Specification type     Symbol/Number         x          y          z
--------------------------------------------------------------------------------
    Atom/Fractional         Cl               1.763493   0.000000   0.000000
--------------------------------------------------------------------------------


  Symmetry reduced region 1 (Relative to defect centre) :

--------------------------------------------------------------------------------
   No.   Atomic       x            y             z       Radius  Multiplicity   
         Label      (Angs)       (Angs)        (Angs)    (Angs)     
--------------------------------------------------------------------------------
     1  Cl    c      1.2299       0.0000       0.0000    0.0000     1    Defect
     2  Li    c      0.1968 *    -1.9603 *     0.0000    0.0000     4          
     3  O     c      0.1968 *    -1.9603 *    -1.9603    0.0000     4          
     4  Li    c     -1.7635 *    -1.9603 *    -1.9603    0.0000     4          
     5  Li    c      2.1572 *    -1.9603 *    -1.9603    0.0000     4          
     6  Li    c     -3.7238 *    -1.9603 *     0.0000    0.0000     4          
     7  Cl    c     -1.7635 *     0.0000       3.9207 *  0.0000     4          
     8  Li    c      0.1968 *    -1.9603 *     3.9207 *  0.0000     8          
     9  Cl    c      2.1572 *     0.0000       3.9207 *  0.0000     4          
    10  Li    c      4.1175 *    -1.9603 *     0.0000    0.0000     4          
    11  O     c     -3.7238 *    -1.9603 *    -1.9603    0.0000     4          
    12  O     c      4.1175 *    -1.9603 *    -1.9603    0.0000     4          
    13  Cl    c     -5.6842 *     0.0000       0.0000    0.0000     1          
    14  Li    c     -3.7238 *    -1.9603 *     3.9207 *  0.0000     8          
    15  Cl    c     -1.7635 *     3.9207 *     3.9207    0.0000     4          
    16  Li    c      0.1968 *     5.8810 *     0.0000    0.0000     4          
    17  Cl    c      2.1572 *     3.9207 *     3.9207    0.0000     4          
    18  Li    c      4.1175 *     3.9207 *    -1.9603 *  0.0000     8          
    19  Cl    c      6.0779 *     0.0000       0.0000    0.0000     1          
    20  O     c      0.1968 *    -1.9603 *     5.8810 *  0.0000     8          
    21  Li    c     -5.6842 *    -1.9603 *    -1.9603    0.0000     4          
    22  Li    c     -1.7635 *    -1.9603 *     5.8810 *  0.0000     8          
    23  Li    c      2.1572 *    -1.9603 *     5.8810 *  0.0000     8          
    24  Li    c      6.0779 *    -1.9603 *    -1.9603    0.0000     4          
    25  Cl    c     -5.6842 *     0.0000       3.9207 *  0.0000     4          
    26  Li    c     -3.7238 *     5.8810 *     0.0000    0.0000     4          
    27  Li    c      0.1968 *     5.8810 *     3.9207 *  0.0000     8          
    28  Li    c      4.1175 *     5.8810 *     0.0000    0.0000     4          
    29  O     c     -3.7238 *    -1.9603 *     5.8810 *  0.0000     8          
    30  Cl    c      6.0779 *     0.0000       3.9207 *  0.0000     4          
    31  O     c      4.1175 *     5.8810 *    -1.9603 *  0.0000     8          
    32  Li    c     -7.6445 *    -1.9603 *     0.0000    0.0000     4          
    33  Cl    c     -5.6842 *     3.9207 *     3.9207    0.0000     4          
    34  Li    c     -3.7238 *     5.8810 *     3.9207 *  0.0000     8          
    35  Cl    c     -1.7635 *     0.0000       7.8414 *  0.0000     4          
    36  Li    c      0.1968 *    -1.9603 *     7.8414 *  0.0000     8          
    37  O     c     -7.6445 *    -1.9603 *    -1.9603    0.0000     4          
    38  Cl    c      2.1572 *     0.0000       7.8414 *  0.0000     4          
    39  Li    c      4.1175 *     5.8810 *     3.9207 *  0.0000     8          
    40  Cl    c      6.0779 *     3.9207 *     3.9207    0.0000     4          
    41  Li    c      8.0382 *    -1.9603 *     0.0000    0.0000     4          
    42  O     c      0.1968 *     5.8810 *     5.8810    0.0000     4          
    43  Li    c     -5.6842 *    -1.9603 *     5.8810 *  0.0000     8          
    44  Li    c     -1.7635 *     5.8810 *     5.8810    0.0000     4          
    45  O     c      8.0382 *    -1.9603 *    -1.9603    0.0000     4          
    46  Li    c      2.1572 *     5.8810 *     5.8810    0.0000     4          
    47  Li    c      6.0779 *    -1.9603 *     5.8810 *  0.0000     8          
    48  Li    c     -7.6445 *    -1.9603 *     3.9207 *  0.0000     8          
    49  Li    c     -3.7238 *    -1.9603 *     7.8414 *  0.0000     8          
    50  Cl    c     -1.7635 *     3.9207 *     7.8414 *  0.0000     8          
    51  Cl    c      2.1572 *     3.9207 *     7.8414 *  0.0000     8          
    52  Li    c      4.1175 *    -1.9603 *     7.8414 *  0.0000     8          
    53  O     c     -3.7238 *     5.8810 *     5.8810    0.0000     4          
    54  Li    c      8.0382 *    -1.9603 *     3.9207 *  0.0000     8          
    55  O     c      4.1175 *     5.8810 *     5.8810    0.0000     4          
    56  Cl    c     -9.6048 *     0.0000       0.0000    0.0000     1          
    57  Li    c     -7.6445 *     5.8810 *     0.0000    0.0000     4          
    58  Cl    c     -5.6842 *     0.0000       7.8414 *  0.0000     4          
    59  Li    c      0.1968 *     5.8810 *     7.8414 *  0.0000     8          
    60  Li    c      0.1968 *     9.8017 *     0.0000    0.0000     4          
    61  O     c     -7.6445 *    -1.9603 *     5.8810 *  0.0000     8          
    62  Cl    c      6.0779 *     0.0000       7.8414 *  0.0000     4          
    63  Li    c      8.0382 *     5.8810 *     0.0000    0.0000     4          
    64  Li    c     -9.6048 *    -1.9603 *    -1.9603    0.0000     4          
    65  O     c      0.1968 *    -1.9603 *     9.8017 *  0.0000     8          
    66  Cl    c      9.9985 *     0.0000       0.0000    0.0000     1          
    67  Li    c     -5.6842 *     5.8810 *     5.8810    0.0000     4          
    68  Li    c     -1.7635 *    -1.9603 *     9.8017 *  0.0000     8          
    69  O     c      8.0382 *    -1.9603 *     5.8810 *  0.0000     8          
    70  Li    c      2.1572 *    -1.9603 *     9.8017 *  0.0000     8          
    71  Li    c      6.0779 *     5.8810 *     5.8810    0.0000     4          
    72  Cl    c     -9.6048 *     0.0000       3.9207 *  0.0000     4          
    73  Li    c      9.9985 *    -1.9603 *    -1.9603    0.0000     4          
    74  Li    c     -7.6445 *     3.9207 *     5.8810 *  0.0000     8          
    75  Cl    c     -5.6842 *     3.9207 *     7.8414 *  0.0000     8          
    76  Li    c     -3.7238 *     7.8414 *     5.8810 *  0.0000     8          
    77  Li    c     -3.7238 *     9.8017 *     0.0000    0.0000     4          
    78  Li    c      0.1968 *     9.8017 *     3.9207 *  0.0000     8          
    79  Li    c      4.1175 *     5.8810 *     7.8414 *  0.0000     8          
    80  Li    c      4.1175 *     9.8017 *     0.0000    0.0000     4          
    81  O     c     -3.7238 *    -1.9603 *     9.8017 *  0.0000     8          
    82  Cl    c      6.0779 *     3.9207 *     7.8414 *  0.0000     8          
    83  Li    c      8.0382 *     5.8810 *     3.9207 *  0.0000     8          
    84  Cl    c      9.9985 *     0.0000       3.9207 *  0.0000     4          
    85  O     c      4.1175 *    -1.9603 *     9.8017 *  0.0000     8          
    86  Cl    c     -9.6048 *     3.9207 *     3.9207    0.0000     4          
    87  Li    c     -7.6445 *    -1.9603 *     7.8414 *  0.0000     8          
    88  Li    c     -3.7238 *     9.8017 *     3.9207 *  0.0000     8          
    89  Cl    c     -1.7635 *     7.8414 *     7.8414    0.0000     4          
    90  O     c     -7.6445 *     5.8810 *     5.8810    0.0000     4          
    91  Cl    c      2.1572 *     7.8414 *     7.8414    0.0000     4          
    92  Li    c      4.1175 *     9.8017 *     3.9207 *  0.0000     8          
    93  Li    c      8.0382 *    -1.9603 *     7.8414 *  0.0000     8          
    94  Li    c     -9.6048 *    -1.9603 *     5.8810 *  0.0000     8          
    95  O     c      0.1968 *     5.8810 *     9.8017 *  0.0000     8          
    96  Cl    c      9.9985 *     3.9207 *     3.9207    0.0000     4          
    97  Li    c     -5.6842 *    -1.9603 *     9.8017 *  0.0000     8          
    98  Li    c     -1.7635 *     9.8017 *     5.8810 *  0.0000     8          
    99  O     c      8.0382 *     5.8810 *     5.8810    0.0000     4          
   100  Li    c      2.1572 *     5.8810 *     9.8017 *  0.0000     8          
   101  Li    c      6.0779 *    -1.9603 *     9.8017 *  0.0000     8          
   102  Li    c    -11.5652 *    -1.9603 *     0.0000    0.0000     4          
   103  Li    c      9.9985 *    -1.9603 *     5.8810 *  0.0000     8          
   104  O     c    -11.5652 *    -1.9603 *    -1.9603    0.0000     4          
   105  Cl    c     -1.7635 *     0.0000      11.7620 *  0.0000     4          
   106  Li    c      0.1968 *    -1.9603 *    11.7620 *  0.0000     8          
   107  Cl    c      2.1572 *     0.0000      11.7620 *  0.0000     4          
   108  O     c     -3.7238 *     5.8810 *     9.8017 *  0.0000     8          
   109  Li    c     11.9589 *    -1.9603 *     0.0000    0.0000     4          
   110  O     c      4.1175 *     5.8810 *     9.8017 *  0.0000     8          
   111  O     c     11.9589 *    -1.9603 *    -1.9603    0.0000     4          
   112  Li    c    -11.5652 *    -1.9603 *     3.9207 *  0.0000     8          
   113  Cl    c     -9.6048 *     0.0000       7.8414 *  0.0000     4          
   114  Li    c     -7.6445 *     5.8810 *     7.8414 *  0.0000     8          
   115  Li    c     -7.6445 *     9.8017 *     0.0000    0.0000     4          
   116  Cl    c     -5.6842 *     7.8414 *     7.8414    0.0000     4          
   117  Li    c     -3.7238 *    11.7620 *    -1.9603 *  0.0000     8          
   118  Cl    c     -1.7635 *     3.9207 *    11.7620 *  0.0000     8          
   119  Li    c      0.1968 *     9.8017 *     7.8414 *  0.0000     8          
   120  O     c     -7.6445 *    -1.9603 *     9.8017 *  0.0000     8          
   121  Cl    c      2.1572 *    11.7620 *     3.9207 *  0.0000     8          
   122  Li    c      4.1175 *    -1.9603 *    11.7620 *  0.0000     8          
   123  Cl    c      6.0779 *     7.8414 *     7.8414    0.0000     4          
   124  Li    c      8.0382 *     5.8810 *     7.8414 *  0.0000     8          
   125  Li    c      8.0382 *     9.8017 *     0.0000    0.0000     4          
   126  Li    c     -9.6048 *     5.8810 *     5.8810    0.0000     4          
   127  Cl    c      9.9985 *     0.0000       7.8414 *  0.0000     4          
   128  Li    c     11.9589 *    -1.9603 *     3.9207 *  0.0000     8          
   129  Li    c     -5.6842 *     5.8810 *     9.8017 *  0.0000     8          
   130  O     c      8.0382 *    -1.9603 *     9.8017 *  0.0000     8          
   131  Li    c      6.0779 *     5.8810 *     9.8017 *  0.0000     8          
   132  Li    c    -11.5652 *     5.8810 *     0.0000    0.0000     4          
   133  Cl    c     -9.6048 *     7.8414 *     3.9207 *  0.0000     8          
   134  Li    c      9.9985 *     5.8810 *     5.8810    0.0000     4          
   135  Li    c     -7.6445 *     9.8017 *     3.9207 *  0.0000     8          
   136  Cl    c     -5.6842 *     0.0000      11.7620 *  0.0000     4          
   137  Li    c     -3.7238 *     7.8414 *     9.8017 *  0.0000     8          
   138  O     c    -11.5652 *    -1.9603 *     5.8810 *  0.0000     8          
   139  Li    c      0.1968 *     5.8810 *    11.7620 *  0.0000     8          
   140  Li    c      4.1175 *     9.8017 *     7.8414 *  0.0000     8          
   141  Cl    c      6.0779 *     0.0000      11.7620 *  0.0000     4          
   142  Li    c      8.0382 *     9.8017 *     3.9207 *  0.0000     8          
   143  Cl    c      9.9985 *     3.9207 *     7.8414 *  0.0000     8          
   144  Li    c     11.9589 *     5.8810 *     0.0000    0.0000     4          
   145  O     c     11.9589 *    -1.9603 *     5.8810 *  0.0000     8          
   146  Cl    c    -13.5255 *     0.0000       0.0000    0.0000     1          
   147  Li    c    -11.5652 *     5.8810 *     3.9207 *  0.0000     8          
   148  Cl    c     -5.6842 *     3.9207 *    11.7620 *  0.0000     8          
   149  Li    c     -3.7238 *    11.7620 *     5.8810 *  0.0000     8          
   150  Li    c      0.1968 *    13.7224 *     0.0000    0.0000     4          
   151  O     c     -7.6445 *     5.8810 *     9.8017 *  0.0000     8          
   152  Li    c      4.1175 *     5.8810 *    11.7620 *  0.0000     8          
   153  Li    c    -13.5255 *    -1.9603 *    -1.9603    0.0000     4          
   154  Cl    c      6.0779 *     3.9207 *    11.7620 *  0.0000     8          
   155  Li    c     -9.6048 *    -1.9603 *     9.8017 *  0.0000     8          
   156  O     c      0.1968 *    -1.9603 *    13.7224 *  0.0000     8          
   157  O     c      0.1968 *     9.8017 *     9.8017    0.0000     4          
   158  Li    c     11.9589 *     5.8810 *     3.9207 *  0.0000     8          
   159  Cl    c     13.9192 *     0.0000       0.0000    0.0000     1          
   160  Li    c     -1.7635 *    -1.9603 *    13.7224 *  0.0000     8          
   161  Li    c     -1.7635 *     9.8017 *     9.8017    0.0000     4          
   162  O     c      8.0382 *     5.8810 *     9.8017 *  0.0000     8          
   163  Li    c      2.1572 *    13.7224 *    -1.9603 *  0.0000     8          
   164  Li    c      2.1572 *     9.8017 *     9.8017    0.0000     4          
   165  Cl    c    -13.5255 *     0.0000       3.9207 *  0.0000     4          
   166  Li    c    -11.5652 *    -1.9603 *     7.8414 *  0.0000     8          
   167  Li    c      9.9985 *    -1.9603 *     9.8017 *  0.0000     8          
   168  Li    c     -7.6445 *    -1.9603 *    11.7620 *  0.0000     8          
   169  Li    c     13.9192 *    -1.9603 *    -1.9603    0.0000     4          
   170  Li    c     -3.7238 *    13.7224 *     0.0000    0.0000     4          
   171  O     c    -11.5652 *     5.8810 *     5.8810    0.0000     4          
   172  Cl    c     -1.7635 *     7.8414 *    11.7620 *  0.0000     8          
   173  Li    c      0.1968 *    13.7224 *     3.9207 *  0.0000     8          
   174  Cl    c      2.1572 *     7.8414 *    11.7620 *  0.0000     8          
   175  Li    c      4.1175 *    13.7224 *     0.0000    0.0000     4          
   176  O     c     -3.7238 *    13.7224 *    -1.9603 *  0.0000     8          
   177  O     c     -3.7238 *     9.8017 *     9.8017    0.0000     4          
   178  Li    c      8.0382 *    11.7620 *    -1.9603 *  0.0000     8          
   179  Li    c     11.9589 *    -1.9603 *     7.8414 *  0.0000     8          
   180  O     c      4.1175 *    13.7224 *    -1.9603 *  0.0000     8          
   181  O     c      4.1175 *     9.8017 *     9.8017    0.0000     4          
   182  Cl    c     13.9192 *     0.0000       3.9207 *  0.0000     4          
   183  O     c     11.9589 *     5.8810 *     5.8810    0.0000     4          
   184  Cl    c    -13.5255 *     3.9207 *     3.9207    0.0000     4          
   185  Cl    c     -9.6048 *     7.8414 *     7.8414    0.0000     4          
   186  Li    c     -7.6445 *     9.8017 *     7.8414 *  0.0000     8          
   187  Li    c     -3.7238 *    13.7224 *     3.9207 *  0.0000     8          
   188  Li    c      4.1175 *    13.7224 *     3.9207 *  0.0000     8          
   189  Li    c    -13.5255 *    -1.9603 *     5.8810 *  0.0000     8          
   190  Li    c      8.0382 *     9.8017 *     7.8414 *  0.0000     8          
   191  Li    c     -9.6048 *     5.8810 *     9.8017 *  0.0000     8          
   192  O     c      0.1968 *     5.8810 *    13.7224 *  0.0000     8          
   193  Cl    c      9.9985 *     7.8414 *     7.8414    0.0000     4          
   194  Li    c     -5.6842 *    -1.9603 *    13.7224 *  0.0000     8          
   195  Li    c     -5.6842 *     9.8017 *     9.8017    0.0000     4          
   196  Cl    c     13.9192 *     3.9207 *     3.9207    0.0000     4          
   197  Li    c     -1.7635 *     5.8810 *    13.7224 *  0.0000     8          
   198  Li    c      2.1572 *     5.8810 *    13.7224 *  0.0000     8          
   199  Li    c      6.0779 *    -1.9603 *    13.7224 *  0.0000     8          
   200  Li    c      6.0779 *     9.8017 *     9.8017    0.0000     4          
   201  Li    c    -11.5652 *     5.8810 *     7.8414 *  0.0000     8          
   202  Li    c    -11.5652 *     9.8017 *     0.0000    0.0000     4          
   203  Cl    c     -9.6048 *     0.0000      11.7620 *  0.0000     4          
   204  Li    c      9.9985 *     5.8810 *     9.8017 *  0.0000     8          
   205  Li    c     -7.6445 *     5.8810 *    11.7620 *  0.0000     8          
   206  Cl    c     -5.6842 *     7.8414 *    11.7620 *  0.0000     8          
   207  Li    c     13.9192 *    -1.9603 *     5.8810 *  0.0000     8          
   208  O     c    -11.5652 *    -1.9603 *     9.8017 *  0.0000     8          
   209  Li    c      0.1968 *     9.8017 *    11.7620 *  0.0000     8          
   210  O     c     -3.7238 *     5.8810 *    13.7224 *  0.0000     8          
   211  Cl    c      6.0779 *     7.8414 *    11.7620 *  0.0000     8          
   212  Li    c      8.0382 *    11.7620 *     5.8810 *  0.0000     8          
   213  Cl    c      9.9985 *     0.0000      11.7620 *  0.0000     4          
   214  Li    c     11.9589 *     5.8810 *     7.8414 *  0.0000     8          
   215  Li    c     11.9589 *     9.8017 *     0.0000    0.0000     4          
   216  O     c      4.1175 *    13.7224 *     5.8810 *  0.0000     8          
   217  O     c     11.9589 *    -1.9603 *     9.8017 *  0.0000     8          
   218  Li    c    -15.4859 *    -1.9603 *     0.0000    0.0000     4          
   219  Cl    c    -13.5255 *     0.0000       7.8414 *  0.0000     4          
   220  Li    c    -11.5652 *     9.8017 *     3.9207 *  0.0000     8          
   221  Cl    c     -9.6048 *     3.9207 *    11.7620 *  0.0000     8          
   222  Li    c     -7.6445 *    13.7224 *     0.0000    0.0000     4          
   223  O     c    -15.4859 *    -1.9603 *    -1.9603    0.0000     4          
   224  Li    c     -3.7238 *    11.7620 *     9.8017 *  0.0000     8          
   225  Cl    c     -1.7635 *     0.0000      15.6827 *  0.0000     4          
   226  Li    c      0.1968 *    -1.9603 *    15.6827 *  0.0000     8          
   227  Li    c      0.1968 *    13.7224 *     7.8414 *  0.0000     8          
   228  O     c     -7.6445 *    -1.9603 *    13.7224 *  0.0000     8          
   229  O     c     -7.6445 *     9.8017 *     9.8017    0.0000     4          
   230  Cl    c      2.1572 *     0.0000      15.6827 *  0.0000     4          
   231  Li    c      4.1175 *     9.8017 *    11.7620 *  0.0000     8          
   232  Li    c    -13.5255 *     5.8810 *     5.8810    0.0000     4          
   233  Li    c      8.0382 *    13.7224 *     0.0000    0.0000     4          
   234  Cl    c      9.9985 *    11.7620 *     3.9207 *  0.0000     8          
   235  Li    c     11.9589 *     9.8017 *     3.9207 *  0.0000     8          
   236  Li    c     -5.6842 *     5.8810 *    13.7224 *  0.0000     8          
   237  Cl    c     13.9192 *     0.0000       7.8414 *  0.0000     4          
   238  Li    c     15.8795 *    -1.9603 *     0.0000    0.0000     4          
   239  O     c      8.0382 *    -1.9603 *    13.7224 *  0.0000     8          
   240  O     c      8.0382 *     9.8017 *     9.8017    0.0000     4          
   241  Li    c    -15.4859 *    -1.9603 *     3.9207 *  0.0000     8          
   242  Cl    c    -13.5255 *     3.9207 *     7.8414 *  0.0000     8          
   243  Li    c      6.0779 *     5.8810 *    13.7224 *  0.0000     8          
   244  O     c     15.8795 *    -1.9603 *    -1.9603    0.0000     4          
   245  Li    c     -7.6445 *    13.7224 *     3.9207 *  0.0000     8          
   246  Li    c     13.9192 *     5.8810 *     5.8810    0.0000     4          
   247  Li    c     -3.7238 *    -1.9603 *    15.6827 *  0.0000     8          
   248  Li    c     -3.7238 *    13.7224 *     7.8414 *  0.0000     8          
   249  O     c    -11.5652 *     5.8810 *     9.8017 *  0.0000     8          
   250  Cl    c     -1.7635 *     3.9207 *    15.6827 *  0.0000     8          
   251  Cl    c      2.1572 *     3.9207 *    15.6827 *  0.0000     8          
   252  Li    c      4.1175 *    -1.9603 *    15.6827 *  0.0000     8          
   253  Li    c      4.1175 *    13.7224 *     7.8414 *  0.0000     8          
   254  Li    c      8.0382 *     3.9207 *    13.7224 *  0.0000     8          
   255  Cl    c     13.9192 *     3.9207 *     7.8414 *  0.0000     8          
   256  Li    c     15.8795 *     3.9207 *    -1.9603 *  0.0000     8          
   257  O     c     11.9589 *     5.8810 *     9.8017 *  0.0000     8          
   258  Li    c    -15.4859 *     5.8810 *     0.0000    0.0000     4          
   259  Li    c    -11.5652 *    11.7620 *    -1.9603 *  0.0000     8          
   260  O     c    -15.4859 *    -1.9603 *     5.8810 *  0.0000     8          
   261  Cl    c     -5.6842 *     0.0000      15.6827 *  0.0000     4          
   262  Cl    c     -1.7635 *    11.7620 *    11.7620    0.0000     4          
   263  Li    c      0.1968 *     5.8810 *    15.6827 *  0.0000     8          
   264  O     c     -7.6445 *     5.8810 *    13.7224 *  0.0000     8          
   265  Cl    c      2.1572 *    11.7620 *    11.7620    0.0000     4          
   266  Li    c    -13.5255 *     9.8017 *    -1.9603 *  0.0000     8          
   267  Cl    c      6.0779 *     0.0000      15.6827 *  0.0000     4          
   268  Li    c     -9.6048 *    -1.9603 *    13.7224 *  0.0000     8          
   269  Li    c     -9.6048 *     9.8017 *     9.8017    0.0000     4          
   270  O     c      0.1968 *     9.8017 *    13.7224 *  0.0000     8          
   271  Li    c     11.9589 *    11.7620 *    -1.9603 *  0.0000     8          
   272  Li    c     15.8795 *     5.8810 *     0.0000    0.0000     4          
   273  Li    c     -1.7635 *     9.8017 *    13.7224 *  0.0000     8          
   274  O     c      8.0382 *     5.8810 *    13.7224 *  0.0000     8          
   275  Li    c      2.1572 *     9.8017 *    13.7224 *  0.0000     8          
   276  Li    c    -15.4859 *     3.9207 *     5.8810 *  0.0000     8          
   277  O     c     15.8795 *     5.8810 *    -1.9603 *  0.0000     8          
   278  Li    c    -11.5652 *     7.8414 *     9.8017 *  0.0000     8          
   279  Cl    c     -9.6048 *     7.8414 *    11.7620 *  0.0000     8          
   280  Li    c      9.9985 *    -1.9603 *    13.7224 *  0.0000     8          
   281  Li    c      9.9985 *     9.8017 *     9.8017    0.0000     4          
   282  Li    c     -7.6445 *     9.8017 *    11.7620 *  0.0000     8          
   283  Cl    c     -5.6842 *     3.9207 *    15.6827 *  0.0000     8          
   284  Li    c     13.9192 *    -1.9603 *     9.8017 *  0.0000     8          
   285  Li    c     -3.7238 *     5.8810 *    15.6827 *  0.0000     8          
   286  Li    c      4.1175 *     5.8810 *    15.6827 *  0.0000     8          
   287  O     c     -3.7238 *     9.8017 *    13.7224 *  0.0000     8          
   288  Cl    c      6.0779 *     3.9207 *    15.6827 *  0.0000     8          
   289  Li    c      8.0382 *     9.8017 *    11.7620 *  0.0000     8          
   290  Cl    c      9.9985 *     7.8414 *    11.7620 *  0.0000     8          
   291  Li    c     11.9589 *     7.8414 *     9.8017 *  0.0000     8          
   292  O     c      4.1175 *     9.8017 *    13.7224 *  0.0000     8          
   293  Li    c     15.8795 *     3.9207 *     5.8810 *  0.0000     8          
   294  Cl    c    -17.4462 *     0.0000       0.0000    0.0000     1          
   295  Li    c    -15.4859 *    -1.9603 *     7.8414 *  0.0000     8          
   296  Cl    c    -13.5255 *     7.8414 *     7.8414    0.0000     4          
   297  Li    c    -11.5652 *    11.7620 *     5.8810 *  0.0000     8          
   298  Li    c     -7.6445 *    -1.9603 *    15.6827 *  0.0000     8          
   299  Li    c     -7.6445 *    13.7224 *     7.8414 *  0.0000     8          
   300  O     c    -15.4859 *     5.8810 *     5.8810    0.0000     4          
   301  Cl    c     -5.6842 *    11.7620 *    11.7620    0.0000     4          
   302  Cl    c     -1.7635 *     7.8414 *    15.6827 *  0.0000     8          
   303  Li    c      0.1968 *    17.6430 *     0.0000    0.0000     4          
   304  Li    c    -17.4462 *    -1.9603 *    -1.9603    0.0000     4          
   305  Cl    c      2.1572 *     7.8414 *    15.6827 *  0.0000     8          
   306  Li    c    -13.5255 *     9.8017 *     5.8810 *  0.0000     8          
   307  Cl    c      6.0779 *    11.7620 *    11.7620    0.0000     4          
   308  Li    c      8.0382 *    -1.9603 *    15.6827 *  0.0000     8          
   309  Li    c      8.0382 *     7.8414 *    13.7224 *  0.0000     8          
   310  Li    c     -9.6048 *     5.8810 *    13.7224 *  0.0000     8          
   311  O     c      0.1968 *    -1.9603 *    17.6430 *  0.0000     8          
   312  Li    c     11.9589 *    11.7620 *     5.8810 *  0.0000     8          
   313  Li    c     -5.6842 *     9.8017 *    13.7224 *  0.0000     8          
   314  Cl    c     13.9192 *     7.8414 *     7.8414    0.0000     4          
   315  Li    c     15.8795 *     7.8414 *    -1.9603 *  0.0000     8          
   316  Li    c     -1.7635 *    17.6430 *    -1.9603 *  0.0000     8          
   317  Cl    c     17.8399 *     0.0000       0.0000    0.0000     1          
   318  Cl    c    -17.4462 *     0.0000       3.9207 *  0.0000     4          
   319  Li    c      2.1572 *    -1.9603 *    17.6430 *  0.0000     8          
   320  Cl    c    -13.5255 *     0.0000      11.7620 *  0.0000     4          
   321  Li    c      6.0779 *     9.8017 *    13.7224 *  0.0000     8          
   322  O     c     15.8795 *     5.8810 *     5.8810    0.0000     4          
   323  Li    c    -11.5652 *    13.7224 *     0.0000    0.0000     4          
   324  Li    c      9.9985 *     5.8810 *    13.7224 *  0.0000     8          
   325  Li    c     13.9192 *     5.8810 *     9.8017 *  0.0000     8          
   326  Li    c     -3.7238 *    17.6430 *     0.0000    0.0000     4          
   327  O     c    -11.5652 *    -1.9603 *    13.7224 *  0.0000     8          
   328  O     c    -11.5652 *     9.8017 *     9.8017    0.0000     4          
   329  Li    c     17.8399 *    -1.9603 *    -1.9603    0.0000     4          
   330  Li    c      0.1968 *    13.7224 *    11.7620 *  0.0000     8          
   331  Li    c      0.1968 *     3.9207 *    17.6430 *  0.0000     8          
   332  Li    c      4.1175 *    17.6430 *     0.0000    0.0000     4          
   333  O     c     -3.7238 *    -1.9603 *    17.6430 *  0.0000     8          
   334  Li    c     11.9589 *    13.7224 *     0.0000    0.0000     4          
   335  O     c      4.1175 *    -1.9603 *    17.6430 *  0.0000     8          
   336  Cl    c     13.9192 *     0.0000      11.7620 *  0.0000     4          
   337  Cl    c     17.8399 *     0.0000       3.9207 *  0.0000     4          
   338  Cl    c    -17.4462 *     3.9207 *     3.9207    0.0000     4          
   339  O     c     11.9589 *    -1.9603 *    13.7224 *  0.0000     8          
   340  O     c     11.9589 *     9.8017 *     9.8017    0.0000     4          
   341  Li    c    -15.4859 *     7.8414 *     5.8810 *  0.0000     8          
   342  Li    c    -15.4859 *     9.8017 *     0.0000    0.0000     4          
   343  Cl    c    -13.5255 *     3.9207 *    11.7620 *  0.0000     8          
   344  Li    c    -11.5652 *     3.9207 *    13.7224 *  0.0000     8          
   345  Cl    c     -9.6048 *     0.0000      15.6827 *  0.0000     4          
   346  Li    c     -7.6445 *     5.8810 *    15.6827 *  0.0000     8          
   347  O     c    -15.4859 *    -1.9603 *     9.8017 *  0.0000     8          
   348  Cl    c     -5.6842 *     7.8414 *    15.6827 *  0.0000     8          
   349  Li    c     -3.7238 *    13.7224 *    11.7620 *  0.0000     8          
   350  Li    c     -3.7238 *    17.6430 *     3.9207 *  0.0000     8          
   351  Li    c      0.1968 *     9.8017 *    15.6827 *  0.0000     8          
   352  Li    c    -17.4462 *     5.8810 *    -1.9603 *  0.0000     8          
   353  O     c     -7.6445 *     9.8017 *    13.7224 *  0.0000     8          
   354  Li    c      4.1175 *    13.7224 *    11.7620 *  0.0000     8          
   355  Li    c      4.1175 *     3.9207 *    17.6430 *  0.0000     8          
   356  Cl    c      6.0779 *     7.8414 *    15.6827 *  0.0000     8          
   357  Li    c      8.0382 *     5.8810 *    15.6827 *  0.0000     8          
   358  O     c      0.1968 *     5.8810 *    17.6430 *  0.0000     8          
   359  Cl    c      9.9985 *     0.0000      15.6827 *  0.0000     4          
   360  Li    c     11.9589 *     3.9207 *    13.7224 *  0.0000     8          
   361  Li    c     -5.6842 *    17.6430 *    -1.9603 *  0.0000     8          
   362  Cl    c     13.9192 *     3.9207 *    11.7620 *  0.0000     8          
   363  Li    c     15.8795 *     7.8414 *     5.8810 *  0.0000     8          
   364  Li    c     15.8795 *     9.8017 *     0.0000    0.0000     4          
   365  Li    c     -1.7635 *    17.6430 *     5.8810 *  0.0000     8          
   366  O     c      8.0382 *     9.8017 *    13.7224 *  0.0000     8          
   367  Cl    c     17.8399 *     3.9207 *     3.9207    0.0000     4          
   368  Li    c      2.1572 *     5.8810 *    17.6430 *  0.0000     8          
   369  Li    c    -15.4859 *     9.8017 *     3.9207 *  0.0000     8          
   370  Li    c      6.0779 *    17.6430 *    -1.9603 *  0.0000     8          
   371  O     c     15.8795 *    -1.9603 *     9.8017 *  0.0000     8          
   372  Cl    c     -9.6048 *     3.9207 *    15.6827 *  0.0000     8          
   373  Li    c     -3.7238 *     9.8017 *    15.6827 *  0.0000     8          
   374  O     c    -11.5652 *     5.8810 *    13.7224 *  0.0000     8          
   375  Li    c     17.8399 *    -1.9603 *     5.8810 *  0.0000     8          
   376  Li    c      4.1175 *    15.6827 *     9.8017 *  0.0000     8          
   377  O     c     -3.7238 *     5.8810 *    17.6430 *  0.0000     8          
   378  Cl    c      9.9985 *     3.9207 *    15.6827 *  0.0000     8          
   379  O     c      4.1175 *     5.8810 *    17.6430 *  0.0000     8          
   380  Li    c     15.8795 *     9.8017 *     3.9207 *  0.0000     8          
   381  Cl    c    -17.4462 *     0.0000       7.8414 *  0.0000     4          
   382  O     c     11.9589 *     5.8810 *    13.7224 *  0.0000     8          
   383  Li    c    -11.5652 *     9.8017 *    11.7620 *  0.0000     8          
   384  Cl    c     -9.6048 *    11.7620 *    11.7620    0.0000     4          
   385  Li    c     -7.6445 *    17.6430 *     0.0000    0.0000     4          
   386  O     c    -15.4859 *     5.8810 *     9.8017 *  0.0000     8          
   387  Li    c      0.1968 *     7.8414 *    17.6430 *  0.0000     8          
   388  Li    c    -17.4462 *     5.8810 *     5.8810    0.0000     4          
   389  O     c     -7.6445 *    -1.9603 *    17.6430 *  0.0000     8          
   390  Li    c    -13.5255 *    13.7224 *    -1.9603 *  0.0000     8          
   391  Li    c    -13.5255 *     9.8017 *     9.8017    0.0000     4          
   392  Li    c      8.0382 *    17.6430 *     0.0000    0.0000     4          
   393  Li    c     -9.6048 *     9.8017 *    13.7224 *  0.0000     8          
   394  O     c      0.1968 *    13.7224 *    13.7224    0.0000     4          
   395  Cl    c      9.9985 *    11.7620 *    11.7620    0.0000     4          
   396  Li    c     11.9589 *     9.8017 *    11.7620 *  0.0000     8          
   397  Li    c     -5.6842 *    17.6430 *     5.8810 *  0.0000     8          
   398  Li    c     -1.7635 *    13.7224 *    13.7224    0.0000     4          
   399  O     c      8.0382 *    -1.9603 *    17.6430 *  0.0000     8          
   400  Cl    c     17.8399 *     0.0000       7.8414 *  0.0000     4          
   401  Li    c    -19.4065 *    -1.9603 *     0.0000    0.0000     4          
   402  Cl    c    -17.4462 *     3.9207 *     7.8414 *  0.0000     8          
   403  Li    c      2.1572 *    13.7224 *    13.7224    0.0000     4          
   404  Li    c    -15.4859 *    -1.9603 *    11.7620 *  0.0000     8          
   405  Cl    c    -13.5255 *     7.8414 *    11.7620 *  0.0000     8          
   406  Li    c      6.0779 *    17.6430 *     5.8810 *  0.0000     8          
   407  O     c     15.8795 *     5.8810 *     9.8017 *  0.0000     8          
   408  Li    c    -11.5652 *    -1.9603 *    15.6827 *  0.0000     8          
   409  Li    c    -11.5652 *     7.8414 *    13.7224 *  0.0000     8          
   410  O     c    -19.4065 *    -1.9603 *    -1.9603    0.0000     4          
   411  Li    c      9.9985 *     9.8017 *    13.7224 *  0.0000     8          
   412  Li    c     -7.6445 *    13.7224 *    11.7620 *  0.0000     8          
   413  Li    c     -7.6445 *     3.9207 *    17.6430 *  0.0000     8          
   414  Li    c     13.9192 *    -1.9603 *    13.7224 *  0.0000     8          
   415  Li    c     13.9192 *     9.8017 *     9.8017    0.0000     4          
   416  Li    c     -3.7238 *    17.6430 *     7.8414 *  0.0000     8          
   417  Cl    c     -1.7635 *    11.7620 *    15.6827 *  0.0000     8          
   418  Cl    c     -1.7635 *     0.0000      19.6034 *  0.0000     4          
   419  Li    c     17.8399 *     5.8810 *     5.8810    0.0000     4          
   420  Li    c      0.1968 *    -1.9603 *    19.6034 *  0.0000     8          
   421  Cl    c      2.1572 *    11.7620 *    15.6827 *  0.0000     8          
   422  Cl    c      2.1572 *     0.0000      19.6034 *  0.0000     4          
   423  Li    c      4.1175 *     7.8414 *    17.6430 *  0.0000     8          
   424  O     c     -3.7238 *    13.7224 *    13.7224    0.0000     4          
   425  Li    c      8.0382 *    13.7224 *    11.7620 *  0.0000     8          
   426  Li    c      8.0382 *    17.6430 *     3.9207 *  0.0000     8          
   427  Li    c     11.9589 *    -1.9603 *    15.6827 *  0.0000     8          
   428  Li    c     11.9589 *     7.8414 *    13.7224 *  0.0000     8          
   429  O     c      4.1175 *    13.7224 *    13.7224    0.0000     4          
   430  Cl    c     13.9192 *     7.8414 *    11.7620 *  0.0000     8          
   431  Li    c     15.8795 *    -1.9603 *    11.7620 *  0.0000     8          
   432  Cl    c     17.8399 *     3.9207 *     7.8414 *  0.0000     8          
   433  Li    c    -19.4065 *    -1.9603 *     3.9207 *  0.0000     8          
   434  Li    c     19.8002 *    -1.9603 *     0.0000    0.0000     4          
   435  Li    c    -15.4859 *     9.8017 *     7.8414 *  0.0000     8          
   436  Cl    c     -9.6048 *     7.8414 *    15.6827 *  0.0000     8          
   437  O     c     19.8002 *    -1.9603 *    -1.9603    0.0000     4          
   438  Cl    s      1.2299       0.0000       0.0000    0.0000     1    Defect
   439  O     s      0.1968 *    -1.9603 *    -1.9603    0.0000     4          
   440  Cl    s     -1.7635 *     0.0000       3.9207 *  0.0000     4          
   441  Cl    s      2.1572 *     0.0000       3.9207 *  0.0000     4          
   442  O     s     -3.7238 *    -1.9603 *    -1.9603    0.0000     4          
   443  O     s      4.1175 *    -1.9603 *    -1.9603    0.0000     4          
   444  Cl    s     -5.6842 *     0.0000       0.0000    0.0000     1          
   445  Cl    s     -1.7635 *     3.9207 *     3.9207    0.0000     4          
   446  Cl    s      2.1572 *     3.9207 *     3.9207    0.0000     4          
   447  Cl    s      6.0779 *     0.0000       0.0000    0.0000     1          
   448  O     s      0.1968 *    -1.9603 *     5.8810 *  0.0000     8          
   449  Cl    s     -5.6842 *     0.0000       3.9207 *  0.0000     4          
   450  O     s     -3.7238 *    -1.9603 *     5.8810 *  0.0000     8          
   451  Cl    s      6.0779 *     0.0000       3.9207 *  0.0000     4          
   452  O     s      4.1175 *     5.8810 *    -1.9603 *  0.0000     8          
   453  Cl    s     -5.6842 *     3.9207 *     3.9207    0.0000     4          
   454  Cl    s     -1.7635 *     0.0000       7.8414 *  0.0000     4          
   455  O     s     -7.6445 *    -1.9603 *    -1.9603    0.0000     4          
   456  Cl    s      2.1572 *     0.0000       7.8414 *  0.0000     4          
   457  Cl    s      6.0779 *     3.9207 *     3.9207    0.0000     4          
   458  O     s      0.1968 *     5.8810 *     5.8810    0.0000     4          
   459  O     s      8.0382 *    -1.9603 *    -1.9603    0.0000     4          
   460  Cl    s     -1.7635 *     3.9207 *     7.8414 *  0.0000     8          
   461  Cl    s      2.1572 *     3.9207 *     7.8414 *  0.0000     8          
   462  O     s     -3.7238 *     5.8810 *     5.8810    0.0000     4          
   463  O     s      4.1175 *     5.8810 *     5.8810    0.0000     4          
   464  Cl    s     -9.6048 *     0.0000       0.0000    0.0000     1          
   465  Cl    s     -5.6842 *     0.0000       7.8414 *  0.0000     4          
   466  O     s     -7.6445 *    -1.9603 *     5.8810 *  0.0000     8          
   467  Cl    s      6.0779 *     0.0000       7.8414 *  0.0000     4          
   468  O     s      0.1968 *    -1.9603 *     9.8017 *  0.0000     8          
   469  Cl    s      9.9985 *     0.0000       0.0000    0.0000     1          
   470  O     s      8.0382 *    -1.9603 *     5.8810 *  0.0000     8          
   471  Cl    s     -9.6048 *     0.0000       3.9207 *  0.0000     4          
   472  Cl    s     -5.6842 *     3.9207 *     7.8414 *  0.0000     8          
   473  O     s     -3.7238 *    -1.9603 *     9.8017 *  0.0000     8          
   474  Cl    s      6.0779 *     3.9207 *     7.8414 *  0.0000     8          
   475  Cl    s      9.9985 *     0.0000       3.9207 *  0.0000     4          
   476  O     s      4.1175 *    -1.9603 *     9.8017 *  0.0000     8          
   477  Cl    s     -9.6048 *     3.9207 *     3.9207    0.0000     4          
   478  Cl    s     -1.7635 *     7.8414 *     7.8414    0.0000     4          
   479  O     s     -7.6445 *     5.8810 *     5.8810    0.0000     4          
   480  Cl    s      2.1572 *     7.8414 *     7.8414    0.0000     4          
   481  O     s      0.1968 *     5.8810 *     9.8017 *  0.0000     8          
   482  Cl    s      9.9985 *     3.9207 *     3.9207    0.0000     4          
   483  O     s      8.0382 *     5.8810 *     5.8810    0.0000     4          
   484  O     s    -11.5652 *    -1.9603 *    -1.9603    0.0000     4          
   485  Cl    s     -1.7635 *     0.0000      11.7620 *  0.0000     4          
   486  Cl    s      2.1572 *     0.0000      11.7620 *  0.0000     4          
   487  O     s     -3.7238 *     5.8810 *     9.8017 *  0.0000     8          
   488  O     s      4.1175 *     5.8810 *     9.8017 *  0.0000     8          
   489  O     s     11.9589 *    -1.9603 *    -1.9603    0.0000     4          
   490  Cl    s     -9.6048 *     0.0000       7.8414 *  0.0000     4          
   491  Cl    s     -5.6842 *     7.8414 *     7.8414    0.0000     4          
   492  Cl    s     -1.7635 *     3.9207 *    11.7620 *  0.0000     8          
   493  O     s     -7.6445 *    -1.9603 *     9.8017 *  0.0000     8          
   494  Cl    s      2.1572 *    11.7620 *     3.9207 *  0.0000     8          
   495  Cl    s      6.0779 *     7.8414 *     7.8414    0.0000     4          
   496  Cl    s      9.9985 *     0.0000       7.8414 *  0.0000     4          
   497  O     s      8.0382 *    -1.9603 *     9.8017 *  0.0000     8          
   498  Cl    s     -9.6048 *     7.8414 *     3.9207 *  0.0000     8          
   499  Cl    s     -5.6842 *     0.0000      11.7620 *  0.0000     4          
   500  O     s    -11.5652 *    -1.9603 *     5.8810 *  0.0000     8          
   501  Cl    s      6.0779 *     0.0000      11.7620 *  0.0000     4          
   502  Cl    s      9.9985 *     3.9207 *     7.8414 *  0.0000     8          
   503  O     s     11.9589 *    -1.9603 *     5.8810 *  0.0000     8          
   504  Cl    s    -13.5255 *     0.0000       0.0000    0.0000     1          
   505  Cl    s     -5.6842 *     3.9207 *    11.7620 *  0.0000     8          
   506  O     s     -7.6445 *     5.8810 *     9.8017 *  0.0000     8          
   507  Cl    s      6.0779 *     3.9207 *    11.7620 *  0.0000     8          
   508  O     s      0.1968 *    -1.9603 *    13.7224 *  0.0000     8          
   509  O     s      0.1968 *     9.8017 *     9.8017    0.0000     4          
   510  Cl    s     13.9192 *     0.0000       0.0000    0.0000     1          
   511  O     s      8.0382 *     5.8810 *     9.8017 *  0.0000     8          
   512  Cl    s    -13.5255 *     0.0000       3.9207 *  0.0000     4          
   513  O     s    -11.5652 *     5.8810 *     5.8810    0.0000     4          
   514  Cl    s     -1.7635 *     7.8414 *    11.7620 *  0.0000     8          
   515  Cl    s      2.1572 *     7.8414 *    11.7620 *  0.0000     8          
   516  O     s     -3.7238 *    13.7224 *    -1.9603 *  0.0000     8          
   517  O     s     -3.7238 *     9.8017 *     9.8017    0.0000     4          
   518  O     s      4.1175 *    13.7224 *    -1.9603 *  0.0000     8          
   519  O     s      4.1175 *     9.8017 *     9.8017    0.0000     4          
   520  Cl    s     13.9192 *     0.0000       3.9207 *  0.0000     4          
   521  O     s     11.9589 *     5.8810 *     5.8810    0.0000     4          
   522  Cl    s    -13.5255 *     3.9207 *     3.9207    0.0000     4          
   523  Cl    s     -9.6048 *     7.8414 *     7.8414    0.0000     4          
   524  O     s      0.1968 *     5.8810 *    13.7224 *  0.0000     8          
   525  Cl    s      9.9985 *     7.8414 *     7.8414    0.0000     4          
   526  Cl    s     13.9192 *     3.9207 *     3.9207    0.0000     4          
   527  Cl    s     -9.6048 *     0.0000      11.7620 *  0.0000     4          
   528  Cl    s     -5.6842 *     7.8414 *    11.7620 *  0.0000     8          
   529  O     s    -11.5652 *    -1.9603 *     9.8017 *  0.0000     8          
   530  O     s     -3.7238 *     5.8810 *    13.7224 *  0.0000     8          
   531  Cl    s      6.0779 *     7.8414 *    11.7620 *  0.0000     8          
   532  Cl    s      9.9985 *     0.0000      11.7620 *  0.0000     4          
   533  O     s      4.1175 *    13.7224 *     5.8810 *  0.0000     8          
   534  O     s     11.9589 *    -1.9603 *     9.8017 *  0.0000     8          
   535  Cl    s    -13.5255 *     0.0000       7.8414 *  0.0000     4          
   536  Cl    s     -9.6048 *     3.9207 *    11.7620 *  0.0000     8          
   537  O     s    -15.4859 *    -1.9603 *    -1.9603    0.0000     4          
   538  Cl    s     -1.7635 *     0.0000      15.6827 *  0.0000     4          
   539  O     s     -7.6445 *    -1.9603 *    13.7224 *  0.0000     8          
   540  O     s     -7.6445 *     9.8017 *     9.8017    0.0000     4          
   541  Cl    s      2.1572 *     0.0000      15.6827 *  0.0000     4          
   542  Cl    s      9.9985 *    11.7620 *     3.9207 *  0.0000     8          
   543  Cl    s     13.9192 *     0.0000       7.8414 *  0.0000     4          
   544  O     s      8.0382 *    -1.9603 *    13.7224 *  0.0000     8          
   545  O     s      8.0382 *     9.8017 *     9.8017    0.0000     4          
   546  Cl    s    -13.5255 *     3.9207 *     7.8414 *  0.0000     8          
   547  O     s     15.8795 *    -1.9603 *    -1.9603    0.0000     4          
   548  O     s    -11.5652 *     5.8810 *     9.8017 *  0.0000     8          
   549  Cl    s     -1.7635 *     3.9207 *    15.6827 *  0.0000     8          
   550  Cl    s      2.1572 *     3.9207 *    15.6827 *  0.0000     8          
   551  Cl    s     13.9192 *     3.9207 *     7.8414 *  0.0000     8          
   552  O     s     11.9589 *     5.8810 *     9.8017 *  0.0000     8          
   553  O     s    -15.4859 *    -1.9603 *     5.8810 *  0.0000     8          
   554  Cl    s     -5.6842 *     0.0000      15.6827 *  0.0000     4          
   555  Cl    s     -1.7635 *    11.7620 *    11.7620    0.0000     4          
   556  O     s     -7.6445 *     5.8810 *    13.7224 *  0.0000     8          
   557  Cl    s      2.1572 *    11.7620 *    11.7620    0.0000     4          
   558  Cl    s      6.0779 *     0.0000      15.6827 *  0.0000     4          
   559  O     s      0.1968 *     9.8017 *    13.7224 *  0.0000     8          
   560  O     s      8.0382 *     5.8810 *    13.7224 *  0.0000     8          
   561  O     s     15.8795 *     5.8810 *    -1.9603 *  0.0000     8          
   562  Cl    s     -9.6048 *     7.8414 *    11.7620 *  0.0000     8          
   563  Cl    s     -5.6842 *     3.9207 *    15.6827 *  0.0000     8          
   564  O     s     -3.7238 *     9.8017 *    13.7224 *  0.0000     8          
   565  Cl    s      6.0779 *     3.9207 *    15.6827 *  0.0000     8          
   566  Cl    s      9.9985 *     7.8414 *    11.7620 *  0.0000     8          
   567  O     s      4.1175 *     9.8017 *    13.7224 *  0.0000     8          
   568  Cl    s    -17.4462 *     0.0000       0.0000    0.0000     1          
   569  Cl    s    -13.5255 *     7.8414 *     7.8414    0.0000     4          
   570  O     s    -15.4859 *     5.8810 *     5.8810    0.0000     4          
   571  Cl    s     -5.6842 *    11.7620 *    11.7620    0.0000     4          
   572  Cl    s     -1.7635 *     7.8414 *    15.6827 *  0.0000     8          
   573  Cl    s      2.1572 *     7.8414 *    15.6827 *  0.0000     8          
   574  Cl    s      6.0779 *    11.7620 *    11.7620    0.0000     4          
   575  O     s      0.1968 *    -1.9603 *    17.6430 *  0.0000     8          
   576  Cl    s     13.9192 *     7.8414 *     7.8414    0.0000     4          
   577  Cl    s     17.8399 *     0.0000       0.0000    0.0000     1          
   578  Cl    s    -17.4462 *     0.0000       3.9207 *  0.0000     4          
   579  Cl    s    -13.5255 *     0.0000      11.7620 *  0.0000     4          
   580  O     s     15.8795 *     5.8810 *     5.8810    0.0000     4          
   581  O     s    -11.5652 *    -1.9603 *    13.7224 *  0.0000     8          
   582  O     s    -11.5652 *     9.8017 *     9.8017    0.0000     4          
   583  O     s     -3.7238 *    -1.9603 *    17.6430 *  0.0000     8          
   584  O     s      4.1175 *    -1.9603 *    17.6430 *  0.0000     8          
   585  Cl    s     13.9192 *     0.0000      11.7620 *  0.0000     4          
   586  Cl    s     17.8399 *     0.0000       3.9207 *  0.0000     4          
   587  Cl    s    -17.4462 *     3.9207 *     3.9207    0.0000     4          
   588  O     s     11.9589 *    -1.9603 *    13.7224 *  0.0000     8          
   589  O     s     11.9589 *     9.8017 *     9.8017    0.0000     4          
   590  Cl    s    -13.5255 *     3.9207 *    11.7620 *  0.0000     8          
   591  Cl    s     -9.6048 *     0.0000      15.6827 *  0.0000     4          
   592  O     s    -15.4859 *    -1.9603 *     9.8017 *  0.0000     8          
   593  Cl    s     -5.6842 *     7.8414 *    15.6827 *  0.0000     8          
   594  O     s     -7.6445 *     9.8017 *    13.7224 *  0.0000     8          
   595  Cl    s      6.0779 *     7.8414 *    15.6827 *  0.0000     8          
   596  O     s      0.1968 *     5.8810 *    17.6430 *  0.0000     8          
   597  Cl    s      9.9985 *     0.0000      15.6827 *  0.0000     4          
   598  Cl    s     13.9192 *     3.9207 *    11.7620 *  0.0000     8          
   599  O     s      8.0382 *     9.8017 *    13.7224 *  0.0000     8          
   600  Cl    s     17.8399 *     3.9207 *     3.9207    0.0000     4          
   601  O     s     15.8795 *    -1.9603 *     9.8017 *  0.0000     8          
   602  Cl    s     -9.6048 *     3.9207 *    15.6827 *  0.0000     8          
   603  O     s    -11.5652 *     5.8810 *    13.7224 *  0.0000     8          
   604  O     s     -3.7238 *     5.8810 *    17.6430 *  0.0000     8          
   605  Cl    s      9.9985 *     3.9207 *    15.6827 *  0.0000     8          
   606  O     s      4.1175 *     5.8810 *    17.6430 *  0.0000     8          
   607  Cl    s    -17.4462 *     0.0000       7.8414 *  0.0000     4          
   608  O     s     11.9589 *     5.8810 *    13.7224 *  0.0000     8          
   609  Cl    s     -9.6048 *    11.7620 *    11.7620    0.0000     4          
   610  O     s    -15.4859 *     5.8810 *     9.8017 *  0.0000     8          
   611  O     s     -7.6445 *    -1.9603 *    17.6430 *  0.0000     8          
   612  O     s      0.1968 *    13.7224 *    13.7224    0.0000     4          
   613  Cl    s      9.9985 *    11.7620 *    11.7620    0.0000     4          
   614  O     s      8.0382 *    -1.9603 *    17.6430 *  0.0000     8          
   615  Cl    s     17.8399 *     0.0000       7.8414 *  0.0000     4          
   616  Cl    s    -17.4462 *     3.9207 *     7.8414 *  0.0000     8          
   617  Cl    s    -13.5255 *     7.8414 *    11.7620 *  0.0000     8          
   618  O     s     15.8795 *     5.8810 *     9.8017 *  0.0000     8          
   619  O     s    -19.4065 *    -1.9603 *    -1.9603    0.0000     4          
   620  Cl    s     -1.7635 *    11.7620 *    15.6827 *  0.0000     8          
   621  Cl    s     -1.7635 *     0.0000      19.6034 *  0.0000     4          
   622  Cl    s      2.1572 *    11.7620 *    15.6827 *  0.0000     8          
   623  Cl    s      2.1572 *     0.0000      19.6034 *  0.0000     4          
   624  O     s     -3.7238 *    13.7224 *    13.7224    0.0000     4          
   625  O     s      4.1175 *    13.7224 *    13.7224    0.0000     4          
   626  Cl    s     13.9192 *     7.8414 *    11.7620 *  0.0000     8          
   627  Cl    s     17.8399 *     3.9207 *     7.8414 *  0.0000     8          
   628  Cl    s     -9.6048 *     7.8414 *    15.6827 *  0.0000     8          
   629  O     s     19.8002 *    -1.9603 *    -1.9603    0.0000     4          
--------------------------------------------------------------------------------


  Constraints on symmetry reduced coordinates :

--------------------------------------------------------------------------------
  Constraint no.      Unconstrained     Constrained    Coefficient    
                         Variable         Variable
--------------------------------------------------------------------------------
           1                 3 y             3 z         1.00000
           2                 4 y             4 z         1.00000
           3                 5 y             5 z         1.00000
           4                11 y            11 z         1.00000
           5                12 y            12 z         1.00000
           6                15 y            15 z         1.00000
           7                17 y            17 z         1.00000
           8                21 y            21 z         1.00000
           9                24 y            24 z         1.00000
          10                33 y            33 z         1.00000
          11                37 y            37 z         1.00000
          12                40 y            40 z         1.00000
          13                42 y            42 z         1.00000
          14                44 y            44 z         1.00000
          15                45 y            45 z         1.00000
          16                46 y            46 z         1.00000
          17                53 y            53 z         1.00000
          18                55 y            55 z         1.00000
          19                64 y            64 z         1.00000
          20                67 y            67 z         1.00000
          21                71 y            71 z         1.00000
          22                73 y            73 z         1.00000
          23                86 y            86 z         1.00000
          24                89 y            89 z         1.00000
          25                90 y            90 z         1.00000
          26                91 y            91 z         1.00000
          27                96 y            96 z         1.00000
          28                99 y            99 z         1.00000
          29               104 y           104 z         1.00000
          30               111 y           111 z         1.00000
          31               116 y           116 z         1.00000
          32               123 y           123 z         1.00000
          33               126 y           126 z         1.00000
          34               134 y           134 z         1.00000
          35               153 y           153 z         1.00000
          36               157 y           157 z         1.00000
          37               161 y           161 z         1.00000
          38               164 y           164 z         1.00000
          39               169 y           169 z         1.00000
          40               171 y           171 z         1.00000
          41               177 y           177 z         1.00000
          42               181 y           181 z         1.00000
          43               183 y           183 z         1.00000
          44               184 y           184 z         1.00000
          45               185 y           185 z         1.00000
          46               193 y           193 z         1.00000
          47               195 y           195 z         1.00000
          48               196 y           196 z         1.00000
          49               200 y           200 z         1.00000
          50               223 y           223 z         1.00000
          51               229 y           229 z         1.00000
          52               232 y           232 z         1.00000
          53               240 y           240 z         1.00000
          54               244 y           244 z         1.00000
          55               246 y           246 z         1.00000
          56               262 y           262 z         1.00000
          57               265 y           265 z         1.00000
          58               269 y           269 z         1.00000
          59               281 y           281 z         1.00000
          60               296 y           296 z         1.00000
          61               300 y           300 z         1.00000
          62               301 y           301 z         1.00000
          63               304 y           304 z         1.00000
          64               307 y           307 z         1.00000
          65               314 y           314 z         1.00000
          66               322 y           322 z         1.00000
          67               328 y           328 z         1.00000
          68               329 y           329 z         1.00000
          69               338 y           338 z         1.00000
          70               340 y           340 z         1.00000
          71               367 y           367 z         1.00000
          72               384 y           384 z         1.00000
          73               388 y           388 z         1.00000
          74               391 y           391 z         1.00000
          75               394 y           394 z         1.00000
          76               395 y           395 z         1.00000
          77               398 y           398 z         1.00000
          78               403 y           403 z         1.00000
          79               410 y           410 z         1.00000
          80               415 y           415 z         1.00000
[...]
    549 y          3.920675      3.920624    -0.000051    Cartesian   -0.00
    549 z         15.682702     15.680455    -0.002247    Cartesian   -0.01
    550 x          3.920675      3.918724    -0.001951    Cartesian   -0.05
    550 y          3.920675      3.920202    -0.000473    Cartesian   -0.01
    550 z         15.682702     15.679699    -0.003003    Cartesian   -0.02
    551 x         15.682702     15.673653    -0.009049    Cartesian   -0.06
    551 y          3.920675      3.917854    -0.002821    Cartesian   -0.07
    551 z          7.841351      7.836512    -0.004839    Cartesian   -0.06
    552 x         13.722364     13.716788    -0.005576    Cartesian   -0.04
    552 y          5.881013      5.878403    -0.002610    Cartesian   -0.04
    552 z          9.801689      9.797802    -0.003887    Cartesian   -0.04
    553 x        -13.722364    -13.722985    -0.000620    Cartesian    0.00
    553 y         -1.960338     -1.960312     0.000026    Cartesian   -0.00
    553 z          5.881013      5.880640    -0.000373    Cartesian   -0.01
    554 x         -3.920675     -3.921078    -0.000402    Cartesian    0.01
    554 y          0.000000      0.000000     0.000000    Cartesian    0.00
    554 z         15.682702     15.680607    -0.002095    Cartesian   -0.01
    555 x          0.000000     -0.000942    -0.000942    Cartesian *******
    555 y         11.762026     11.759547    -0.002479    Cartesian   -0.02
    555 z         11.762026     11.759547    -0.002479    Cartesian   -0.02
    556 x         -5.881013     -5.882602    -0.001589    Cartesian    0.03
    556 y          5.881013      5.881252     0.000239    Cartesian    0.00
    556 z         13.722364     13.723116     0.000752    Cartesian    0.01
    557 x          3.920675      3.919371    -0.001305    Cartesian   -0.03
    557 y         11.762026     11.758613    -0.003414    Cartesian   -0.03
    557 z         11.762026     11.758613    -0.003414    Cartesian   -0.03
    558 x          7.841351      7.837714    -0.003637    Cartesian   -0.05
    558 y          0.000000      0.000000     0.000000    Cartesian    0.00
    558 z         15.682702     15.678581    -0.004121    Cartesian   -0.03
    559 x          1.960338      1.959591    -0.000747    Cartesian   -0.04
    559 y          9.801689      9.801402    -0.000287    Cartesian   -0.00
    559 z         13.722364     13.722262    -0.000102    Cartesian   -0.00
    560 x          9.801689      9.799968    -0.001720    Cartesian   -0.02
    560 y          5.881013      5.880112    -0.000902    Cartesian   -0.02
    560 z         13.722364     13.720593    -0.001772    Cartesian   -0.01
    561 x         17.643040     17.638321    -0.004718    Cartesian   -0.03
    561 y          5.881013      5.878949    -0.002065    Cartesian   -0.04
    561 z         -1.960338     -1.959707     0.000631    Cartesian   -0.03
    562 x         -7.841351     -7.841625    -0.000274    Cartesian    0.00
    562 y          7.841351      7.840203    -0.001148    Cartesian   -0.01
    562 z         11.762026     11.760077    -0.001949    Cartesian   -0.02
    563 x         -3.920675     -3.921315    -0.000640    Cartesian    0.02
    563 y          3.920675      3.920659    -0.000017    Cartesian   -0.00
    563 z         15.682702     15.680717    -0.001985    Cartesian   -0.01
    564 x         -1.960338     -1.961870    -0.001532    Cartesian    0.08
    564 y          9.801689      9.802321     0.000632    Cartesian    0.01
    564 z         13.722364     13.723136     0.000772    Cartesian    0.01
    565 x          7.841351      7.838927    -0.002424    Cartesian   -0.03
    565 y          3.920675      3.920134    -0.000541    Cartesian   -0.01
    565 z         15.682702     15.678944    -0.003758    Cartesian   -0.02
    566 x         11.762026     11.757381    -0.004646    Cartesian   -0.04
    566 y          7.841351      7.838014    -0.003337    Cartesian   -0.04
    566 z         11.762026     11.757692    -0.004334    Cartesian   -0.04
    567 x          5.881013      5.880961    -0.000052    Cartesian   -0.00
    567 y          9.801689      9.800951    -0.000738    Cartesian   -0.01
    567 z         13.722364     13.721593    -0.000771    Cartesian   -0.01
    568 x        -15.682702    -15.680501     0.002201    Cartesian   -0.01
    568 y          0.000000      0.000000     0.000000    Cartesian    0.00
    568 z          0.000000      0.000000     0.000000    Cartesian    0.00
    569 x        -11.762026    -11.760001     0.002026    Cartesian   -0.02
    569 y          7.841351      7.839573    -0.001778    Cartesian   -0.02
    569 z          7.841351      7.839573    -0.001778    Cartesian   -0.02
    570 x        -13.722364    -13.722784    -0.000419    Cartesian    0.00
    570 y          5.881013      5.881377     0.000364    Cartesian    0.01
    570 z          5.881013      5.881377     0.000364    Cartesian    0.01
    571 x         -3.920675     -3.921386    -0.000711    Cartesian    0.02
    571 y         11.762026     11.760843    -0.001184    Cartesian   -0.01
    571 z         11.762026     11.760843    -0.001184    Cartesian   -0.01
    572 x          0.000000     -0.000742    -0.000742    Cartesian *******
    572 y          7.841351      7.840856    -0.000495    Cartesian   -0.01
    572 z         15.682702     15.680861    -0.001841    Cartesian   -0.01
    573 x          3.920675      3.919678    -0.000998    Cartesian   -0.03
    573 y          7.841351      7.840464    -0.000887    Cartesian   -0.01
    573 z         15.682702     15.680313    -0.002389    Cartesian   -0.02
    574 x          7.841351      7.839885    -0.001466    Cartesian   -0.02
    574 y         11.762026     11.759006    -0.003021    Cartesian   -0.03
    574 z         11.762026     11.759006    -0.003021    Cartesian   -0.03
    575 x          1.960338      1.959664    -0.000673    Cartesian   -0.03
    575 y         -1.960338     -1.961311    -0.000973    Cartesian    0.05
    575 z         17.643040     17.643093     0.000054    Cartesian    0.00
    576 x         15.682702     15.676455    -0.006247    Cartesian   -0.04
    576 y          7.841351      7.838190    -0.003161    Cartesian   -0.04
    576 z          7.841351      7.838190    -0.003161    Cartesian   -0.04
    577 x         19.603377     19.595925    -0.007453    Cartesian   -0.04
    577 y          0.000000      0.000000     0.000000    Cartesian    0.00
    577 z          0.000000      0.000000     0.000000    Cartesian    0.00
    578 x        -15.682702    -15.680524     0.002178    Cartesian   -0.01
    578 y          0.000000      0.000000     0.000000    Cartesian    0.00
    578 z          3.920675      3.920607    -0.000068    Cartesian   -0.00
    579 x        -11.762026    -11.761265     0.000761    Cartesian   -0.01
    579 y          0.000000      0.000000     0.000000    Cartesian    0.00
    579 z         11.762026     11.760539    -0.001488    Cartesian   -0.01
    580 x         17.643040     17.639195    -0.003845    Cartesian   -0.02
    580 y          5.881013      5.879899    -0.001114    Cartesian   -0.02
    580 z          5.881013      5.879899    -0.001114    Cartesian   -0.02
    581 x         -9.801689     -9.803844    -0.002156    Cartesian    0.02
    581 y         -1.960338     -1.960460    -0.000122    Cartesian    0.01
    581 z         13.722364     13.723943     0.001579    Cartesian    0.01
    582 x         -9.801689     -9.802705    -0.001016    Cartesian    0.01
    582 y          9.801689      9.802031     0.000342    Cartesian    0.00
    582 z          9.801689      9.802031     0.000342    Cartesian    0.00
    583 x         -1.960338     -1.961103    -0.000766    Cartesian    0.04
    583 y         -1.960338     -1.960772    -0.000434    Cartesian    0.02
    583 z         17.643040     17.642889    -0.000151    Cartesian   -0.00
    584 x          5.881013      5.880562    -0.000451    Cartesian   -0.01
    584 y         -1.960338     -1.960563    -0.000225    Cartesian    0.01
    584 z         17.643040     17.642053    -0.000986    Cartesian   -0.01
    585 x         15.682702     15.677667    -0.005035    Cartesian   -0.03
    585 y          0.000000      0.000000     0.000000    Cartesian    0.00
    585 z         11.762026     11.758421    -0.003606    Cartesian   -0.03
    586 x         19.603377     19.597951    -0.005426    Cartesian   -0.03
    586 y          0.000000      0.000000     0.000000    Cartesian    0.00
    586 z          3.920675      3.920621    -0.000054    Cartesian   -0.00
    587 x        -15.682702    -15.680365     0.002337    Cartesian   -0.01
    587 y          3.920675      3.920467    -0.000209    Cartesian   -0.01
    587 z          3.920675      3.920467    -0.000209    Cartesian   -0.01
    588 x         13.722364     13.720755    -0.001609    Cartesian   -0.01
    588 y         -1.960338     -1.959890     0.000448    Cartesian   -0.02
    588 z         13.722364     13.720992    -0.001372    Cartesian   -0.01
    589 x         13.722364     13.719898    -0.002466    Cartesian   -0.02
    589 y          9.801689      9.799956    -0.001733    Cartesian   -0.02
    589 z          9.801689      9.799956    -0.001733    Cartesian   -0.02
    590 x        -11.762026    -11.761162     0.000865    Cartesian   -0.01
    590 y          3.920675      3.920412    -0.000264    Cartesian   -0.01
    590 z         11.762026     11.760269    -0.001758    Cartesian   -0.01
    591 x         -7.841351     -7.841568    -0.000217    Cartesian    0.00
    591 y          0.000000      0.000000     0.000000    Cartesian    0.00
    591 z         15.682702     15.680797    -0.001905    Cartesian   -0.01
    592 x        -13.722364    -13.722688    -0.000323    Cartesian    0.00
    592 y         -1.960338     -1.960282     0.000056    Cartesian   -0.00
    592 z          9.801689      9.801946     0.000258    Cartesian    0.00
    593 x         -3.920675     -3.921368    -0.000693    Cartesian    0.02
    593 y          7.841351      7.840940    -0.000411    Cartesian   -0.01
    593 z         15.682702     15.680760    -0.001942    Cartesian   -0.01
    594 x         -5.881013     -5.881865    -0.000852    Cartesian    0.01
    594 y          9.801689      9.802485     0.000796    Cartesian    0.01
    594 z         13.722364     13.722841     0.000477    Cartesian    0.00
    595 x          7.841351      7.840121    -0.001230    Cartesian   -0.02
    595 y          7.841351      7.839797    -0.001554    Cartesian   -0.02
    595 z         15.682702     15.679517    -0.003185    Cartesian   -0.02
    596 x          1.960338      1.960006    -0.000331    Cartesian   -0.02
    596 y          5.881013      5.881337     0.000323    Cartesian    0.01
    596 z         17.643040     17.642652    -0.000388    Cartesian   -0.00
    597 x         11.762026     11.759516    -0.002511    Cartesian   -0.02
    597 y          0.000000      0.000000     0.000000    Cartesian    0.00
    597 z         15.682702     15.678988    -0.003714    Cartesian   -0.02
    598 x         15.682702     15.677860    -0.004842    Cartesian   -0.03
    598 y          3.920675      3.919172    -0.001504    Cartesian   -0.04
    598 z         11.762026     11.758555    -0.003471    Cartesian   -0.03
    599 x          9.801689      9.801056    -0.000633    Cartesian   -0.01
    599 y          9.801689      9.800758    -0.000931    Cartesian   -0.01
    599 z         13.722364     13.721397    -0.000968    Cartesian   -0.01
    600 x         19.603377     19.598263    -0.005114    Cartesian   -0.03
    600 y          3.920675      3.919800    -0.000876    Cartesian   -0.02
    600 z          3.920675      3.919800    -0.000876    Cartesian   -0.02
    601 x         17.643040     17.640271    -0.002768    Cartesian   -0.02
    601 y         -1.960338     -1.959846     0.000491    Cartesian   -0.03
    601 z          9.801689      9.800556    -0.001133    Cartesian   -0.01
    602 x         -7.841351     -7.841180     0.000171    Cartesian   -0.00
    602 y          3.920675      3.920363    -0.000313    Cartesian   -0.01
    602 z         15.682702     15.680415    -0.002287    Cartesian   -0.01
    603 x         -9.801689     -9.801974    -0.000285    Cartesian    0.00
    603 y          5.881013      5.880729    -0.000284    Cartesian   -0.00
    603 z         13.722364     13.721863    -0.000501    Cartesian   -0.00
    604 x         -1.960338     -1.960766    -0.000429    Cartesian    0.02
    604 y          5.881013      5.881350     0.000337    Cartesian    0.01
    604 z         17.643040     17.643002    -0.000038    Cartesian   -0.00
    605 x         11.762026     11.759216    -0.002811    Cartesian   -0.02
    605 y          3.920675      3.919621    -0.001055    Cartesian   -0.03
    605 z         15.682702     15.678690    -0.004012    Cartesian   -0.03
    606 x          5.881013      5.880753    -0.000260    Cartesian   -0.00
    606 y          5.881013      5.880985    -0.000028    Cartesian   -0.00
    606 z         17.643040     17.642358    -0.000682    Cartesian   -0.00
    607 x        -15.682702    -15.678757     0.003945    Cartesian   -0.03
    607 y          0.000000      0.000000     0.000000    Cartesian    0.00
    607 z          7.841351      7.839587    -0.001764    Cartesian   -0.02
    608 x         13.722364     13.720397    -0.001967    Cartesian   -0.01
    608 y          5.881013      5.880000    -0.001014    Cartesian   -0.02
    608 z         13.722364     13.720524    -0.001841    Cartesian   -0.01
    609 x         -7.841351     -7.841291     0.000060    Cartesian   -0.00
    609 y         11.762026     11.760410    -0.001617    Cartesian   -0.01
    609 z         11.762026     11.760410    -0.001617    Cartesian   -0.01
    610 x        -13.722364    -13.721777     0.000588    Cartesian   -0.00
    610 y          5.881013      5.880841    -0.000173    Cartesian   -0.00
    610 z          9.801689      9.800899    -0.000790    Cartesian   -0.01
    611 x         -5.881013     -5.880691     0.000323    Cartesian   -0.01
    611 y         -1.960338     -1.960381    -0.000044    Cartesian    0.00
    611 z         17.643040     17.642116    -0.000924    Cartesian   -0.01
    612 x          1.960338      1.960206    -0.000132    Cartesian   -0.01
    612 y         13.722364     13.721397    -0.000967    Cartesian   -0.01
    612 z         13.722364     13.721397    -0.000967    Cartesian   -0.01
    613 x         11.762026     11.759365    -0.002662    Cartesian   -0.02
    613 y         11.762026     11.758705    -0.003321    Cartesian   -0.03
    613 z         11.762026     11.758705    -0.003321    Cartesian   -0.03
    614 x          9.801689      9.800525    -0.001164    Cartesian   -0.01
    614 y         -1.960338     -1.960212     0.000126    Cartesian   -0.01
    614 z         17.643040     17.641161    -0.001878    Cartesian   -0.01
    615 x         19.603377     19.597514    -0.005863    Cartesian   -0.03
    615 y          0.000000      0.000000     0.000000    Cartesian    0.00
    615 z          7.841351      7.838813    -0.002538    Cartesian   -0.03
    616 x        -15.682702    -15.678298     0.004404    Cartesian   -0.03
    616 y          3.920675      3.919671    -0.001005    Cartesian   -0.03
    616 z          7.841351      7.839364    -0.001987    Cartesian   -0.03
    617 x        -11.762026    -11.759650     0.002376    Cartesian   -0.02
    617 y          7.841351      7.839709    -0.001642    Cartesian   -0.02
    617 z         11.762026     11.759239    -0.002788    Cartesian   -0.02
    618 x         17.643040     17.639941    -0.003098    Cartesian   -0.02
    618 y          5.881013      5.879718    -0.001295    Cartesian   -0.02
    618 z          9.801689      9.799794    -0.001894    Cartesian   -0.02
    619 x        -17.643040    -17.642858     0.000182    Cartesian   -0.00
    619 y         -1.960338     -1.960462    -0.000124    Cartesian    0.01
    619 z         -1.960338     -1.960462    -0.000124    Cartesian    0.01
    620 x          0.000000      0.000317     0.000317    Cartesian *******
    620 y         11.762026     11.759351    -0.002676    Cartesian   -0.02
    620 z         15.682702     15.678748    -0.003954    Cartesian   -0.03
    621 x          0.000000      0.000127     0.000127    Cartesian *******
    621 y          0.000000      0.000000     0.000000    Cartesian    0.00
    621 z         19.603377     19.597339    -0.006038    Cartesian   -0.03
    622 x          3.920675      3.919758    -0.000918    Cartesian   -0.02
    622 y         11.762026     11.759001    -0.003025    Cartesian   -0.03
    622 z         15.682702     15.678386    -0.004316    Cartesian   -0.03
    623 x          3.920675      3.919698    -0.000978    Cartesian   -0.02
    623 y          0.000000      0.000000     0.000000    Cartesian    0.00
    623 z         19.603377     19.597288    -0.006090    Cartesian   -0.03
    624 x         -1.960338     -1.959680     0.000658    Cartesian   -0.03
    624 y         13.722364     13.720874    -0.001490    Cartesian   -0.01
    624 z         13.722364     13.720874    -0.001490    Cartesian   -0.01
    625 x          5.881013      5.880069    -0.000944    Cartesian   -0.02
    625 y         13.722364     13.720360    -0.002004    Cartesian   -0.01
    625 z         13.722364     13.720360    -0.002004    Cartesian   -0.01
    626 x         15.682702     15.677549    -0.005153    Cartesian   -0.03
    626 y          7.841351      7.838582    -0.002769    Cartesian   -0.04
    626 z         11.762026     11.757848    -0.004179    Cartesian   -0.04
    627 x         19.603377     19.597097    -0.006280    Cartesian   -0.03
    627 y          3.920675      3.919136    -0.001539    Cartesian   -0.04
    627 z          7.841351      7.838596    -0.002755    Cartesian   -0.04
    628 x         -7.841351     -7.839667     0.001684    Cartesian   -0.02
    628 y          7.841351      7.839182    -0.002169    Cartesian   -0.03
    628 z         15.682702     15.677962    -0.004740    Cartesian   -0.03
    629 x         21.563715     21.560376    -0.003339    Cartesian   -0.02
    629 y         -1.960338     -1.959766     0.000571    Cartesian   -0.03
    629 z         -1.960338     -1.959766     0.000571    Cartesian   -0.03
--------------------------------------------------------------------------------


  Time to end of optimisation  =       86.9029 seconds


  Peak dynamic memory used =    1755.92 MB 


  Timing analysis for GULP :

--------------------------------------------------------------------------------
  Task / Subroutine                                          Time (Seconds)
--------------------------------------------------------------------------------
  Calculation of reciprocal space energy and derivatives          0.0004
  Calculation of reciprocal space energy using symmetry           0.0004
  Calculation of real space energy and derivatives                0.0021
  Calculation of real space energy using symmetry                 0.0040
  Calculation for region 1 energy and derivatives (2-b)          45.9768
  Calculation for region 2a energy                               11.4922
  Calculation for region 2b energy                                0.0021
  Calculation and manipulation of Hessian matrix                 26.4142
  Calculation of matrix inversion                                 2.1427
  Symmetry generation of equivalent positions                     0.0018
--------------------------------------------------------------------------------
  Total CPU time                                                 86.9030
--------------------------------------------------------------------------------


  Dump file written as Li3OCl.grs


  Job Finished at 17:48.55 20th October    2020                               

