********************************************************************************
*                       GENERAL UTILITY LATTICE PROGRAM                        *
*                                 Julian Gale                                  *
*                       Curtin Institute for Computation                       *
*                    School of Molecular and Life Sciences                     *
*                    Curtin University, Western Australia                      *
********************************************************************************
* Version = 5.2.0 * Last modified =  10th September 2020                       *
********************************************************************************
* Na vacancy in NaCl                                                           *
*  optimise     - perform optimisation run                                     *
*  conp         - constant pressure calculation                                *
*  property     - calculate properties for final geometry                      *
*  defect       - perform defect calculation after bulk run                    *
********************************************************************************
* Na vacancy in NaCl                                                           *
********************************************************************************


  Job Started  at 16:26.21  2nd October    2020                               

  Number of CPUs =     1


  Total number of configurations input =      1

********************************************************************************
*  Input for Configuration =   1 : NaCl                                        *
********************************************************************************

  Formula = NaCl                                                        

  Number of irreducible atoms/shells =       4


  Total number atoms/shells =       4

  Dimensionality = 3               :  Bulk   


  Symmetry :

  Crystal family                   :  Cubic       
  Crystal class  (Groth - 1921)    :  Cubic Hexakisoctahedral              

  Space group (centrosymmetric)    :  F M 3 M         

  Patterson group                  :  F m -3 m 

  Cartesian lattice vectors (Angstroms) :

        0.000000    2.789000    2.789000
        2.789000    0.000000    2.789000
        2.789000    2.789000    0.000000

  Primitive cell parameters :            Full cell parameters :

  a =   3.9442    alpha =  60.0000       a =   5.5780    alpha =  90.0000
  b =   3.9442    beta  =  60.0000       b =   5.5780    beta  =  90.0000
  c =   3.9442    gamma =  60.0000       c =   5.5780    gamma =  90.0000

  Initial volumes (Angstroms**3):

  Primitive cell =          43.388590    Full cell =         173.554361

  Temperature of configuration =   0.00     K 

  Pressure of configuration =         0.000 GPa 

  Fractional coordinates of asymmetric unit :

--------------------------------------------------------------------------------
   No.  Atomic       x           y          z         Charge      Occupancy
        Label      (Frac)      (Frac)     (Frac)        (e)         (Frac)  
--------------------------------------------------------------------------------
      1 Na    c    0.000000    0.000000    0.000000    -1.12800    1.000000    
      2 Cl    c    0.500000    0.000000    0.000000     1.48500    1.000000    
      3 Na    s    0.000000    0.000000    0.000000     2.12800    1.000000    
      4 Cl    s    0.500000    0.000000    0.000000    -2.48500    1.000000    
--------------------------------------------------------------------------------


  Constraints : 

--------------------------------------------------------------------------------
  Constraint no.      Unconstrained     Constrained    Coefficient    Offset
                         Variable         Variable
--------------------------------------------------------------------------------
           1              Strain 1        Strain 2       1.00000      0.0000
           2              Strain 1        Strain 3       1.00000      0.0000
--------------------------------------------------------------------------------


********************************************************************************
*  General input information                                                   *
********************************************************************************

  Species output for all configurations : 

--------------------------------------------------------------------------------
  Species    Type    Atomic    Atomic    Charge       Radii (Angs)     Library
                     Number     Mass       (e)     Cova   Ionic  VDW   Symbol
--------------------------------------------------------------------------------
    Na       Core       11      22.99  -1.128000   0.970  0.000  2.300          
    Na       Shell      11       0.00   2.128000   0.970  0.000  2.300          
    Cl       Core       17      35.45   1.485000   0.990  0.000  1.650          
    Cl       Shell      17       0.00  -2.485000   0.990  0.000  1.650          
--------------------------------------------------------------------------------


  Lattice summation method               =    Ewald          (3-D)
                                         =    Parry          (2-D)
                                         =    Saunders et al (1-D)
  Accuracy factor for lattice sums       =   12.000


  Analytic derivatives to be used

  Time limit = Infinity

  Maximum range for interatomic potentials =    100000.000000 Angstroms

  General interatomic potentials :

--------------------------------------------------------------------------------
Atom  Types   Potential      Parameter       Value         Units   Cutoffs(Ang)
  1     2                                                            Min /  Max 
--------------------------------------------------------------------------------
Na   s Na   s Buckingham    Buckingham A     7895.0000    eV        0.000 12.000
                            Buckingham rho  0.17090000    Ang       
                            Buckingham C     14.530000    eV*Ang^6  
--------------------------------------------------------------------------------
Na   s Cl   s Buckingham    Buckingham A     2314.7000    eV        0.000 12.000
                            Buckingham rho  0.29030000    Ang       
                            Buckingham C     0.0000000    eV*Ang^6  
--------------------------------------------------------------------------------
Cl   s Cl   s Buckingham    Buckingham A     1227.2000    eV        0.000 12.000
                            Buckingham rho  0.32140000    Ang       
                            Buckingham C     14.530000    eV*Ang^6  
--------------------------------------------------------------------------------
Na   c Na   s Spring (c-s)  Spring k 2       96.440000    eV*Ang^-2 0.000  0.800
                            Spring k 4       0.0000000    eV*Ang^-4 
--------------------------------------------------------------------------------
Cl   c Cl   s Spring (c-s)  Spring k 2       29.380000    eV*Ang^-2 0.000  0.800
                            Spring k 4       0.0000000    eV*Ang^-4 
--------------------------------------------------------------------------------

********************************************************************************
*  Output for configuration   1 : NaCl                                         *
********************************************************************************


  Components of energy : 

--------------------------------------------------------------------------------
  Interatomic potentials     =           0.91447856 eV    
  Monopole - monopole (real) =          -0.72412017 eV    
  Monopole - monopole (recip)=          -8.29865070 eV    
  Monopole - monopole (total)=          -9.02277087 eV    
--------------------------------------------------------------------------------
  Total lattice energy : 
    Primitive unit cell      =          -8.10829230 eV    
    Non-primitive unit cell  =         -32.43316921 eV    
--------------------------------------------------------------------------------
  Total lattice energy (in kJmol-1): 
    Primitive unit cell      =            -782.3263 kJ/(mole unit cells)
    Non-primitive unit cell  =           -3129.3050 kJ/(mole unit cells)
--------------------------------------------------------------------------------


  Number of variables =        1

  Maximum number of calculations  =          1000
  Maximum Hessian update interval =            10
  Maximum step size               =   1.000000000
  Maximum parameter tolerance     =   0.000010000
  Maximum function  tolerance     =   0.000010000
  Maximum gradient  tolerance     =   0.001000000
  Maximum gradient  component     =   0.010000000

  Symmetry constrained optimisation

  Symmetry used for second derivatives

  Cell parameters to be optimised using strains

  Newton-Raphson optimiser to be used

  BFGS hessian update to be used

  Lower half triangular hessian to be used

  Start of bulk optimisation :

  Cycle:      0 Energy:        -8.108292  Gnorm:      0.062231  CPU:    0.010
  ** Hessian calculated **
  Cycle:      1 Energy:        -8.108320  Gnorm:      0.000040  CPU:    0.013


  **** Optimisation achieved ****


  Final energy =      -8.10831952 eV
  Final Gnorm  =       0.00000017

  Components of energy : 

--------------------------------------------------------------------------------
  Interatomic potentials     =           0.90655178 eV    
  Monopole - monopole (real) =          -0.72348619 eV    
  Monopole - monopole (recip)=          -8.29138511 eV    
  Monopole - monopole (total)=          -9.01487130 eV    
--------------------------------------------------------------------------------
  Total lattice energy : 
    Primitive unit cell      =          -8.10831952 eV    
    Non-primitive unit cell  =         -32.43327809 eV    
--------------------------------------------------------------------------------
  Total lattice energy (in kJmol-1): 
    Primitive unit cell      =            -782.3289 kJ/(mole unit cells)
    Non-primitive unit cell  =           -3129.3155 kJ/(mole unit cells)
--------------------------------------------------------------------------------

  Final asymmetric unit coordinates :

--------------------------------------------------------------------------------
   No.  Atomic        x           y           z         Radius
        Label       (Frac)      (Frac)      (Frac)       (Angs) 
--------------------------------------------------------------------------------
     1  Na    c     0.000000    0.000000    0.000000    0.000000
     2  Cl    c     0.500000    0.000000    0.000000    0.000000
     3  Na    s     0.000000    0.000000    0.000000    0.000000
     4  Cl    s     0.500000    0.000000    0.000000    0.000000
--------------------------------------------------------------------------------

  Final Cartesian lattice vectors (Angstroms) :

        0.000000    2.791444    2.791444
        2.791444    0.000000    2.791444
        2.791444    2.791444    0.000000


  Final cell parameters and derivatives :

--------------------------------------------------------------------------------
       a            3.947698 Angstrom     dE/de1(xx)    -0.000000 eV/strain
       b            3.947698 Angstrom     dE/de2(yy)     0.000000 eV/strain
       c            3.947698 Angstrom     dE/de3(zz)     0.000000 eV/strain
       alpha       60.000000 Degrees      dE/de4(yz)     0.000000 eV/strain
       beta        60.000000 Degrees      dE/de5(xz)     0.000000 eV/strain
       gamma       60.000000 Degrees      dE/de6(xy)     0.000000 eV/strain
--------------------------------------------------------------------------------

  Primitive cell volume =            43.502752 Angs**3

  Density of cell =      2.230743 g/cm**3

  Non-primitive lattice parameters :

  a    =     5.582888  b   =     5.582888  c    =     5.582888
  alpha=    90.000000  beta=    90.000000  gamma=    90.000000

  Non-primitive cell volume =           174.011008 Angs**3


  Final internal derivatives :

--------------------------------------------------------------------------------
   No.  Atomic          a             b             c           Radius
        Label          (eV)          (eV)          (eV)        (eV/Angs)
--------------------------------------------------------------------------------
      1 Na    c       0.000000      0.000000      0.000000      0.000000
      2 Cl    c       0.000000      0.000000      0.000000      0.000000
      3 Na    s       0.000000      0.000000      0.000000      0.000000
      4 Cl    s       0.000000      0.000000      0.000000      0.000000
--------------------------------------------------------------------------------
  Maximum abs         0.000000      0.000000      0.000000      0.000000
--------------------------------------------------------------------------------


  Born effective charge tensors : 

-------------------------------------------------------------------------------
  Atom             x           y             z
-------------------------------------------------------------------------------
    1 Na    x       1.0608      0.0000      0.0000
            y       0.0000      1.0608      0.0000
            z       0.0000      0.0000      1.0608
-------------------------------------------------------------------------------
    2 Cl    x      -1.0608     -0.0000     -0.0000
            y      -0.0000     -1.0608     -0.0000
            z      -0.0000     -0.0000     -1.0608
-------------------------------------------------------------------------------




  Elastic Constant Matrix: (Units=GPa)

-------------------------------------------------------------------------------
  Indices      1         2         3         4         5         6    
-------------------------------------------------------------------------------
       1     58.2962   14.2997   14.2997   -0.0000    0.0000   -0.0000
       2     14.2997   58.2962   14.2997    0.0000    0.0000   -0.0000
       3     14.2997   14.2997   58.2962    0.0000    0.0000   -0.0000
       4     -0.0000    0.0000    0.0000   14.2997    0.0000   -0.0000
       5      0.0000    0.0000    0.0000    0.0000   14.2997   -0.0000
       6     -0.0000   -0.0000   -0.0000   -0.0000   -0.0000   14.2997
-------------------------------------------------------------------------------


  Elastic Compliance Matrix: (Units=1/GPa)

-------------------------------------------------------------------------------
  Indices      1         2         3         4         5         6    
-------------------------------------------------------------------------------
       1    0.018989 -0.003740 -0.003740  0.000000 -0.000000 -0.000000
       2   -0.003740  0.018989 -0.003740 -0.000000 -0.000000  0.000000
       3   -0.003740 -0.003740  0.018989 -0.000000 -0.000000  0.000000
       4    0.000000 -0.000000 -0.000000  0.069931 -0.000000  0.000000
       5   -0.000000 -0.000000 -0.000000 -0.000000  0.069931  0.000000
       6   -0.000000  0.000000  0.000000  0.000000  0.000000  0.069931
-------------------------------------------------------------------------------

  Mechanical properties :

-------------------------------------------------------------------------------
  Convention :                    Reuss         Voigt         Hill
-------------------------------------------------------------------------------
  Bulk  Modulus (GPa)     =      28.96523      28.96523      28.96523
  Shear Modulus (GPa)     =      16.62729      17.37914      17.00321
-------------------------------------------------------------------------------
  Velocity S-wave (km/s)  =       2.73015       2.79119       2.76084
  Velocity P-wave (km/s)  =       4.78778       4.83448       4.81119
-------------------------------------------------------------------------------
  Compressibility (1/GPa) =    0.03452416
-------------------------------------------------------------------------------
  Stress axis :                     x             y             z
-------------------------------------------------------------------------------
  Youngs Moduli (GPa)     =      52.66277      52.66277      52.66277
-------------------------------------------------------------------------------
  Poissons Ratio (x)      =                     0.19698       0.19698
  Poissons Ratio (y)      =       0.19698                     0.19698
  Poissons Ratio (z)      =       0.19698       0.19698
-------------------------------------------------------------------------------


  Piezoelectric Strain Matrix: (Units=C/m**2)

-------------------------------------------------------------------------------
  Indices      1         2         3         4         5         6    
-------------------------------------------------------------------------------
       x    -0.00000  -0.00000  -0.00000  -0.00000  -0.00000  -0.00000
       y    -0.00000   0.00000  -0.00000  -0.00000  -0.00000  -0.00000
       z    -0.00000  -0.00000   0.00000  -0.00000  -0.00000  -0.00000
-------------------------------------------------------------------------------


  Piezoelectric Stress Matrix: (Units=10**-11 C/N)

-------------------------------------------------------------------------------
  Indices      1         2         3         4         5         6    
-------------------------------------------------------------------------------
       x    -0.00000  -0.00000  -0.00000  -0.00000  -0.00000  -0.00000
       y    -0.00000   0.00000  -0.00000  -0.00000  -0.00000  -0.00000
       z    -0.00000  -0.00000   0.00000  -0.00000  -0.00000  -0.00000
-------------------------------------------------------------------------------


  Static dielectric constant tensor : 

-------------------------------------------------------------------------------
              x         y         z
-------------------------------------------------------------------------------
       x     5.49480   0.00000   0.00000
       y     0.00000   5.49480  -0.00000
       z     0.00000  -0.00000   5.49480
--------------------------------------------------------------------------------

  High frequency dielectric constant tensor : 

-------------------------------------------------------------------------------
              x         y         z
-------------------------------------------------------------------------------
       x     2.38570  -0.00000   0.00000
       y    -0.00000   2.38570   0.00000
       z     0.00000   0.00000   2.38570
-------------------------------------------------------------------------------

  Static refractive indices : 

-------------------------------------------------------------------------------
    1 =    2.34410      2 =    2.34410      3 =    2.34410
-------------------------------------------------------------------------------

  High frequency refractive indices : 

-------------------------------------------------------------------------------
    1 =    1.54457      2 =    1.54457      3 =    1.54457
-------------------------------------------------------------------------------


  Time to end of optimisation =       0.0182 seconds

********************************************************************************
*  Defect calculation for configuration   1 :                                  *
********************************************************************************

  Total number of defects =      1

  Total charge on defect  =   1.00

  Defect centre is at   0.5000   0.2500   0.2500  Frac

  Region 1 radius =  10.0000      Number of ions =    394

  Number of symmetry inequivalent region 1 ions  =     78

  Region 2 radius =  20.0000      Number of ions =   2640

  Number of symmetry inequivalent region 2a ions =    408

  Region 2a mode = 4 : screened electrostatics due to region 1 
                       neglect correction to region 1 forces from 2a
                       region 2a displacements based on defects only

  Region 2a ions will only interact with defects in region 1

  Interstitials:

--------------------------------------------------------------------------------
    Specification type     Symbol/Number         x          y          z
--------------------------------------------------------------------------------
    Atom/Fractional         Na               0.500000   0.250000   0.250000
--------------------------------------------------------------------------------


  Symmetry reduced region 1 (Relative to defect centre) :

--------------------------------------------------------------------------------
   No.   Atomic       x            y             z       Radius  Multiplicity   
         Label      (Angs)       (Angs)        (Angs)    (Angs)     
--------------------------------------------------------------------------------
     1  Na    c      0.0000       0.0000       0.0000    0.0000     1    Defect
     2  Na    c      0.0000       1.3957 *    -1.3957    0.0000     2          
     3  Cl    c      0.0000      -1.3957 *    -1.3957    0.0000     2          
     4  Na    c     -2.7914 *    -1.3957 *    -1.3957    0.0000     4          
     5  Cl    c      2.7914 *     1.3957 *    -1.3957    0.0000     4          
     6  Na    c      0.0000       4.1872 *     1.3957 *  0.0000     4          
     7  Cl    c      0.0000      -4.1872 *     1.3957 *  0.0000     4          
     8  Na    c      2.7914 *     4.1872 *    -1.3957 *  0.0000     8          
     9  Cl    c     -2.7914 *    -4.1872 *    -1.3957 *  0.0000     8          
    10  Na    c      0.0000      -4.1872 *     4.1872    0.0000     2          
    11  Na    c     -5.5829 *    -1.3957 *     1.3957    0.0000     4          
    12  Cl    c      5.5829 *     1.3957 *     1.3957    0.0000     4          
    13  Cl    c      0.0000       4.1872 *     4.1872    0.0000     2          
    14  Na    c      2.7914 *     4.1872 *     4.1872    0.0000     4          
    15  Cl    c      2.7914 *    -4.1872 *     4.1872    0.0000     4          
    16  Na    c     -5.5829 *    -4.1872 *    -1.3957 *  0.0000     8          
    17  Cl    c      5.5829 *     4.1872 *    -1.3957 *  0.0000     8          
    18  Na    c      0.0000      -1.3957 *     6.9786 *  0.0000     4          
    19  Cl    c      0.0000       1.3957 *     6.9786 *  0.0000     4          
    20  Na    c      2.7914 *     6.9786 *     1.3957 *  0.0000     8          
    21  Cl    c     -2.7914 *    -6.9786 *     1.3957 *  0.0000     8          
    22  Na    c     -5.5829 *    -4.1872 *     4.1872    0.0000     4          
    23  Na    c      0.0000       6.9786 *     4.1872 *  0.0000     4          
    24  Cl    c      0.0000      -6.9786 *     4.1872 *  0.0000     4          
    25  Cl    c     -5.5829 *    -4.1872 *    -4.1872    0.0000     4          
    26  Na    c     -8.3743 *    -1.3957 *    -1.3957    0.0000     4          
    27  Cl    c     -8.3743 *    -1.3957 *     1.3957    0.0000     4          
    28  Na    c     -2.7914 *    -6.9786 *     4.1872 *  0.0000     8          
    29  Cl    c      2.7914 *     6.9786 *     4.1872 *  0.0000     8          
    30  Na    c      5.5829 *     6.9786 *    -1.3957 *  0.0000     8          
    31  Cl    c     -5.5829 *    -6.9786 *    -1.3957 *  0.0000     8          
    32  Na    c     -8.3743 *    -4.1872 *     1.3957 *  0.0000     8          
    33  Cl    c      8.3743 *     4.1872 *     1.3957 *  0.0000     8          
    34  Na    c      5.5829 *     4.1872 *     6.9786 *  0.0000     8          
    35  Na    c      0.0000       1.3957 *     9.7701 *  0.0000     4          
    36  Cl    c      5.5829 *    -4.1872 *     6.9786 *  0.0000     8          
    37  Cl    c      0.0000      -1.3957 *     9.7701 *  0.0000     4          
    38  Na    c      0.0000      -6.9786 *     6.9786    0.0000     2          
    39  Cl    c      0.0000       6.9786 *     6.9786    0.0000     2          
    40  Na    s      0.0000       0.0000       0.0000    0.0000     1    Defect
    41  Na    s      0.0000       1.3957 *    -1.3957    0.0000     2          
    42  Cl    s      0.0000      -1.3957 *    -1.3957    0.0000     2          
    43  Na    s     -2.7914 *    -1.3957 *    -1.3957    0.0000     4          
    44  Cl    s      2.7914 *     1.3957 *    -1.3957    0.0000     4          
    45  Na    s      0.0000       4.1872 *     1.3957 *  0.0000     4          
    46  Cl    s      0.0000      -4.1872 *     1.3957 *  0.0000     4          
    47  Na    s      2.7914 *     4.1872 *    -1.3957 *  0.0000     8          
    48  Cl    s     -2.7914 *    -4.1872 *    -1.3957 *  0.0000     8          
    49  Na    s      0.0000      -4.1872 *     4.1872    0.0000     2          
    50  Na    s     -5.5829 *    -1.3957 *     1.3957    0.0000     4          
    51  Cl    s      5.5829 *     1.3957 *     1.3957    0.0000     4          
    52  Cl    s      0.0000       4.1872 *     4.1872    0.0000     2          
    53  Na    s      2.7914 *     4.1872 *     4.1872    0.0000     4          
    54  Cl    s      2.7914 *    -4.1872 *     4.1872    0.0000     4          
    55  Na    s     -5.5829 *    -4.1872 *    -1.3957 *  0.0000     8          
    56  Cl    s      5.5829 *     4.1872 *    -1.3957 *  0.0000     8          
    57  Na    s      0.0000      -1.3957 *     6.9786 *  0.0000     4          
    58  Cl    s      0.0000       1.3957 *     6.9786 *  0.0000     4          
    59  Na    s      2.7914 *     6.9786 *     1.3957 *  0.0000     8          
    60  Cl    s     -2.7914 *    -6.9786 *     1.3957 *  0.0000     8          
    61  Na    s     -5.5829 *    -4.1872 *     4.1872    0.0000     4          
    62  Na    s      0.0000       6.9786 *     4.1872 *  0.0000     4          
    63  Cl    s      0.0000      -6.9786 *     4.1872 *  0.0000     4          
    64  Cl    s     -5.5829 *    -4.1872 *    -4.1872    0.0000     4          
    65  Na    s     -8.3743 *    -1.3957 *    -1.3957    0.0000     4          
    66  Cl    s     -8.3743 *    -1.3957 *     1.3957    0.0000     4          
    67  Na    s     -2.7914 *    -6.9786 *     4.1872 *  0.0000     8          
    68  Cl    s      2.7914 *     6.9786 *     4.1872 *  0.0000     8          
    69  Na    s      5.5829 *     6.9786 *    -1.3957 *  0.0000     8          
    70  Cl    s     -5.5829 *    -6.9786 *    -1.3957 *  0.0000     8          
    71  Na    s     -8.3743 *    -4.1872 *     1.3957 *  0.0000     8          
    72  Cl    s      8.3743 *     4.1872 *     1.3957 *  0.0000     8          
    73  Na    s      5.5829 *     4.1872 *     6.9786 *  0.0000     8          
    74  Na    s      0.0000       1.3957 *     9.7701 *  0.0000     4          
    75  Cl    s      5.5829 *    -4.1872 *     6.9786 *  0.0000     8          
    76  Cl    s      0.0000      -1.3957 *     9.7701 *  0.0000     4          
    77  Na    s      0.0000      -6.9786 *     6.9786    0.0000     2          
    78  Cl    s      0.0000       6.9786 *     6.9786    0.0000     2          
--------------------------------------------------------------------------------


  Constraints on symmetry reduced coordinates :

--------------------------------------------------------------------------------
  Constraint no.      Unconstrained     Constrained    Coefficient    
                         Variable         Variable
--------------------------------------------------------------------------------
           1                 2 y             2 z        -1.00000
           2                 3 y             3 z         1.00000
           3                 4 y             4 z         1.00000
           4                 5 y             5 z        -1.00000
           5                10 y            10 z        -1.00000
           6                11 y            11 z        -1.00000
           7                12 y            12 z         1.00000
           8                13 y            13 z         1.00000
           9                14 y            14 z         1.00000
          10                15 y            15 z        -1.00000
          11                22 y            22 z        -1.00000
          12                25 y            25 z         1.00000
          13                26 y            26 z         1.00000
          14                27 y            27 z        -1.00000
          15                38 y            38 z        -1.00000
          16                39 y            39 z         1.00000
          17                41 y            41 z        -1.00000
          18                42 y            42 z         1.00000
          19                43 y            43 z         1.00000
          20                44 y            44 z        -1.00000
          21                49 y            49 z        -1.00000
          22                50 y            50 z        -1.00000
          23                51 y            51 z         1.00000
          24                52 y            52 z         1.00000
          25                53 y            53 z         1.00000
          26                54 y            54 z        -1.00000
          27                61 y            61 z        -1.00000
          28                64 y            64 z         1.00000
          29                65 y            65 z         1.00000
          30                66 y            66 z        -1.00000
          31                77 y            77 z        -1.00000
          32                78 y            78 z         1.00000
--------------------------------------------------------------------------------


  Components of defect energy : 

--------------------------------------------------------------------------------
  Region 1 - region 1                   =      4.83802159 eV
  Region 1 - region 2a (unrelaxed)      =     -0.00052719 eV
  Region 1 - 2a (relaxed - correction)  =     -0.57985893 eV
  Region 1 (Total)                      =      4.25763547 eV
  Region 2a                             =      0.29000021 eV
  Region 2b                             =     -0.29605589 eV
--------------------------------------------------------------------------------
  Total defect energy                   =      4.25157979 eV
--------------------------------------------------------------------------------

  Largest displacement in region 2 =   0.0119 Angstroms


  Number of variables =      168

  Maximum number of calculations  =        1000
  Maximum Hessian update interval =          10
  Maximum step size               =   1.0000000
  Maximum parameter tolerance     =   0.0000100
  Maximum function  tolerance     =   0.0000100
  Maximum gradient  tolerance     =   0.0010000

  Symmetry adapted optimisation

  Symmetry to be used for second derivatives

  Newton-Raphson optimiser to be used

  BFGS hessian update to be used

  Lower half triangular hessian to be used

  Start of defect optimisation :

  Cycle:      0 Defect Energy:   4.251580  Gnorm:     0.270739  CPU:    0.308
  ** Hessian calculated **
  Cycle:      1 Defect Energy:  -0.960677  Gnorm:     0.042691  CPU:    0.820
  Cycle:      2 Defect Energy:  -1.427392  Gnorm:     0.020862  CPU:    1.168
  Cycle:      3 Defect Energy:  -1.513500  Gnorm:     0.015132  CPU:    1.244
  Cycle:      4 Defect Energy:  -1.575845  Gnorm:     0.010135  CPU:    1.317
  Cycle:      5 Defect Energy:  -1.608100  Gnorm:     0.007278  CPU:    1.392
  Cycle:      6 Defect Energy:  -1.625596  Gnorm:     0.005056  CPU:    1.466
  Cycle:      7 Defect Energy:  -1.634782  Gnorm:     0.003624  CPU:    1.540
  Cycle:      8 Defect Energy:  -1.639656  Gnorm:     0.002554  CPU:    1.614
  Cycle:      9 Defect Energy:  -1.642192  Gnorm:     0.001829  CPU:    1.688
  Cycle:     10 Defect Energy:  -1.643560  Gnorm:     0.001299  CPU:    1.762
  ** Hessian calculated **
  Cycle:     11 Defect Energy:  -1.644257  Gnorm:     0.000911  CPU:    1.938
  Cycle:     12 Defect Energy:  -1.644609  Gnorm:     0.000640  CPU:    2.012
  Cycle:     13 Defect Energy:  -1.644791  Gnorm:     0.000449  CPU:    2.086
  Cycle:     14 Defect Energy:  -1.644884  Gnorm:     0.000315  CPU:    2.160
  Cycle:     15 Defect Energy:  -1.644933  Gnorm:     0.000221  CPU:    2.234
  Cycle:     16 Defect Energy:  -1.644959  Gnorm:     0.000155  CPU:    2.308
  Cycle:     17 Defect Energy:  -1.644973  Gnorm:     0.000108  CPU:    2.382
  Cycle:     18 Defect Energy:  -1.644981  Gnorm:     0.000076  CPU:    2.459


  **** Optimisation achieved ****


  Final defect energy  =       -1.64498546
  Final defect Gnorm   =        0.00005313

  Components of defect energy : 

--------------------------------------------------------------------------------
  Region 1 - region 1                   =     -1.34876634 eV
  Region 1 - region 2a (unrelaxed)      =      0.25110898 eV
  Region 1 - 2a (relaxed - correction)  =     -0.50225561 eV
  Region 1 (Total)                      =     -1.59991297 eV
  Region 2a                             =      0.25098339 eV
  Region 2b                             =     -0.29605589 eV
--------------------------------------------------------------------------------
  Total defect energy                   =     -1.64498546 eV
--------------------------------------------------------------------------------

  Largest displacement in region 2 =   0.0119 Angstroms

  Final coordinates of region 1 :

--------------------------------------------------------------------------------
   No.  Atomic        x           y           z          Radius      Charge
        Label       (Angs)      (Angs)      (Angs)       (Angs)       (e) 
--------------------------------------------------------------------------------
     1  Na    c     2.791444    1.395722    1.395722    0.000000   -1.128000
     2  Na    c     2.791444    3.358277   -0.566833    0.000000   -1.128000
     3  Na    c     2.791444   -0.566833    3.358277    0.000000   -1.128000
     4  Cl    c     2.791444   -0.337868   -0.337868    0.000000    1.485000
     5  Cl    c     2.791444    3.129312    3.129312    0.000000    1.485000
     6  Na    c    -0.006058   -0.108288   -0.108288    0.000000   -1.128000
     7  Na    c     5.588946    2.899732    2.899732    0.000000   -1.128000
     8  Na    c    -0.006058    2.899732    2.899732    0.000000   -1.128000
     9  Na    c     5.588946   -0.108288   -0.108288    0.000000   -1.128000
    10  Cl    c     5.258201    2.701142    0.090302    0.000000    1.485000
    11  Cl    c     5.258201    0.090302    2.701142    0.000000    1.485000
    12  Cl    c     0.324687    0.090302    2.701142    0.000000    1.485000
    13  Cl    c     0.324687    2.701142    0.090302    0.000000    1.485000
    14  Na    c     2.791444    5.764754    2.848699    0.000000   -1.128000
    15  Na    c     2.791444    2.848699    5.764754    0.000000   -1.128000
    16  Na    c     2.791444   -0.057255   -2.973310    0.000000   -1.128000
    17  Na    c     2.791444   -2.973310   -0.057255    0.000000   -1.128000
    18  Cl    c     2.791444   -3.040565    2.803892    0.000000    1.485000
    19  Cl    c     2.791444    2.803892   -3.040565    0.000000    1.485000
    20  Cl    c     2.791444   -0.012448    5.832009    0.000000    1.485000
    21  Cl    c     2.791444    5.832009   -0.012448    0.000000    1.485000
    22  Na    c     5.596224    5.662092    0.028228    0.000000   -1.128000
    23  Na    c    -0.013336   -2.870648    2.763216    0.000000   -1.128000
    24  Na    c    -0.013336    5.662092    0.028228    0.000000   -1.128000
    25  Na    c     5.596224   -2.870648    2.763216    0.000000   -1.128000
    26  Na    c     5.596224    0.028228    5.662092    0.000000   -1.128000
    27  Na    c    -0.013336    2.763216   -2.870648    0.000000   -1.128000
    28  Na    c    -0.013336    0.028228    5.662092    0.000000   -1.128000
    29  Na    c     5.596224    2.763216   -2.870648    0.000000   -1.128000
    30  Cl    c    -0.007682   -2.841191   -0.000664    0.000000    1.485000
    31  Cl    c     5.590570    5.632635    2.792108    0.000000    1.485000
    32  Cl    c    -0.007682    5.632635    2.792108    0.000000    1.485000
    33  Cl    c     5.590570   -2.841191   -0.000664    0.000000    1.485000
    34  Cl    c    -0.007682   -0.000664   -2.841191    0.000000    1.485000
    35  Cl    c     5.590570    2.792108    5.632635    0.000000    1.485000
    36  Cl    c    -0.007682    2.792108    5.632635    0.000000    1.485000
    37  Cl    c     5.590570   -0.000664   -2.841191    0.000000    1.485000
    38  Na    c     2.791444   -2.931826    5.723269    0.000000   -1.128000
    39  Na    c     2.791444    5.723269   -2.931826    0.000000   -1.128000
    40  Na    c    -2.802098    0.006275    2.785169    0.000000   -1.128000
    41  Na    c    -2.802098    2.785169    0.006275    0.000000   -1.128000
    42  Na    c     8.384986    2.785169    0.006275    0.000000   -1.128000
    43  Na    c     8.384986    0.006275    2.785169    0.000000   -1.128000
    44  Cl    c     8.322857    2.778361    2.778361    0.000000    1.485000
    45  Cl    c    -2.739969    0.013083    0.013083    0.000000    1.485000
    46  Cl    c    -2.739969    2.778361    2.778361    0.000000    1.485000
    47  Cl    c     8.322857    0.013083    0.013083    0.000000    1.485000
    48  Cl    c     2.791444    5.643299    5.643299    0.000000    1.485000
    49  Cl    c     2.791444   -2.851855   -2.851855    0.000000    1.485000
    50  Na    c     5.582369    5.613225    5.613225    0.000000   -1.128000
    51  Na    c     0.000519    5.613225    5.613225    0.000000   -1.128000
    52  Na    c     0.000519   -2.821781   -2.821781    0.000000   -1.128000
    53  Na    c     5.582369   -2.821781   -2.821781    0.000000   -1.128000
    54  Cl    c     5.540822   -2.749748    5.541192    0.000000    1.485000
    55  Cl    c     5.540822    5.541192   -2.749748    0.000000    1.485000
    56  Cl    c     0.042066   -2.749748    5.541192    0.000000    1.485000
    57  Cl    c     0.042066    5.541192   -2.749748    0.000000    1.485000
    58  Na    c    -2.802556   -2.813472   -0.012863    0.000000   -1.128000
    59  Na    c     8.385443    5.604916    2.804307    0.000000   -1.128000
    60  Na    c     8.385443    2.804307    5.604916    0.000000   -1.128000
    61  Na    c    -2.802556   -0.012863   -2.813472    0.000000   -1.128000
    62  Na    c    -2.802556    2.804307    5.604916    0.000000   -1.128000
    63  Na    c    -2.802556    5.604916    2.804307    0.000000   -1.128000
    64  Na    c     8.385443   -0.012863   -2.813472    0.000000   -1.128000
    65  Na    c     8.385443   -2.813472   -0.012863    0.000000   -1.128000
    66  Cl    c     8.344131    5.550667    0.004782    0.000000    1.485000
    67  Cl    c     8.344131    0.004782    5.550667    0.000000    1.485000
    68  Cl    c    -2.761243   -2.759223    2.786662    0.000000    1.485000
    69  Cl    c    -2.761243    2.786662   -2.759223    0.000000    1.485000
    70  Cl    c    -2.761243    0.004782    5.550667    0.000000    1.485000
    71  Cl    c    -2.761243    5.550667    0.004782    0.000000    1.485000
    72  Cl    c     8.344131    2.786662   -2.759223    0.000000    1.485000
    73  Cl    c     8.344131   -2.759223    2.786662    0.000000    1.485000
    74  Na    c     2.791444   -0.004702    8.502217    0.000000   -1.128000
    75  Na    c     2.791444    8.502217   -0.004702    0.000000   -1.128000
    76  Na    c     2.791444   -5.710773    2.796146    0.000000   -1.128000
    77  Na    c     2.791444    2.796146   -5.710773    0.000000   -1.128000
    78  Cl    c     2.791444    2.801368    8.451767    0.000000    1.485000
    79  Cl    c     2.791444    8.451767    2.801368    0.000000    1.485000
    80  Cl    c     2.791444   -5.660324   -0.009924    0.000000    1.485000
    81  Cl    c     2.791444   -0.009924   -5.660324    0.000000    1.485000
    82  Na    c     5.595650    8.418573    2.803382    0.000000   -1.128000
    83  Na    c     5.595650    2.803382    8.418573    0.000000   -1.128000
    84  Na    c    -0.012762    2.803382    8.418573    0.000000   -1.128000
    85  Na    c    -0.012762    8.418573    2.803382    0.000000   -1.128000
    86  Na    c    -0.012762   -5.627129   -0.011938    0.000000   -1.128000
    87  Na    c    -0.012762   -0.011938   -5.627129    0.000000   -1.128000
    88  Na    c     5.595650   -0.011938   -5.627129    0.000000   -1.128000
    89  Na    c     5.595650   -5.627129   -0.011938    0.000000   -1.128000
    90  Cl    c    -0.008467   -5.609409    2.793221    0.000000    1.485000
    91  Cl    c    -0.008467    2.793221   -5.609409    0.000000    1.485000
    92  Cl    c     5.591355   -0.001778    8.400853    0.000000    1.485000
    93  Cl    c     5.591355    8.400853   -0.001778    0.000000    1.485000
    94  Cl    c    -0.008467   -0.001778    8.400853    0.000000    1.485000
    95  Cl    c    -0.008467    8.400853   -0.001778    0.000000    1.485000
    96  Cl    c     5.591355   -5.609409    2.793221    0.000000    1.485000
    97  Cl    c     5.591355    2.793221   -5.609409    0.000000    1.485000
    98  Na    c    -2.791813   -2.791091    5.582535    0.000000   -1.128000
    99  Na    c    -2.791813    5.582535   -2.791091    0.000000   -1.128000
   100  Na    c     8.374701    5.582535   -2.791091    0.000000   -1.128000
   101  Na    c     8.374701   -2.791091    5.582535    0.000000   -1.128000
   102  Na    c     2.791444    8.414014    5.612531    0.000000   -1.128000
   103  Na    c     2.791444    5.612531    8.414014    0.000000   -1.128000
   104  Na    c     2.791444   -2.821087   -5.622570    0.000000   -1.128000
   105  Na    c     2.791444   -5.622570   -2.821087    0.000000   -1.128000
   106  Cl    c     2.791444   -5.626742    5.609938    0.000000    1.485000
   107  Cl    c     2.791444    5.609938   -5.626742    0.000000    1.485000
   108  Cl    c     2.791444   -2.818495    8.418186    0.000000    1.485000
   109  Cl    c     2.791444    8.418186   -2.818495    0.000000    1.485000
   110  Cl    c    -2.785627   -2.789134   -2.789134    0.000000    1.485000
   111  Cl    c     8.368515    5.580578    5.580578    0.000000    1.485000
   112  Cl    c    -2.785627    5.580578    5.580578    0.000000    1.485000
   113  Cl    c     8.368515   -2.789134   -2.789134    0.000000    1.485000
   114  Na    c    -5.591272   -0.001625   -0.001625    0.000000   -1.128000
   115  Na    c    -5.591272    2.793069    2.793069    0.000000   -1.128000
   116  Na    c    11.174160    2.793069    2.793069    0.000000   -1.128000
   117  Na    c    11.174160   -0.001625   -0.001625    0.000000   -1.128000
   118  Cl    c    -5.566643    0.003034    2.788410    0.000000    1.485000
   119  Cl    c    -5.566643    2.788410    0.003034    0.000000    1.485000
   120  Cl    c    11.149531    2.788410    0.003034    0.000000    1.485000
   121  Cl    c    11.149531    0.003034    2.788410    0.000000    1.485000
   122  Na    c    -0.007647   -5.602328    5.588404    0.000000   -1.128000
   123  Na    c     5.590535   -2.796960    8.393772    0.000000   -1.128000
   124  Na    c     5.590535    8.393772   -2.796960    0.000000   -1.128000
   125  Na    c    -0.007647    5.588404   -5.602328    0.000000   -1.128000
   126  Na    c    -0.007647   -2.796960    8.393772    0.000000   -1.128000
   127  Na    c    -0.007647    8.393772   -2.796960    0.000000   -1.128000
   128  Na    c     5.590535   -5.602328    5.588404    0.000000   -1.128000
   129  Na    c     5.590535    5.588404   -5.602328    0.000000   -1.128000
   130  Cl    c     5.587901    8.378231    5.580366    0.000000    1.485000
   131  Cl    c     5.587901    5.580366    8.378231    0.000000    1.485000
   132  Cl    c    -0.005013    5.580366    8.378231    0.000000    1.485000
   133  Cl    c    -0.005013    8.378231    5.580366    0.000000    1.485000
   134  Cl    c    -0.005013   -5.586787   -2.788922    0.000000    1.485000
   135  Cl    c    -0.005013   -2.788922   -5.586787    0.000000    1.485000
   136  Cl    c     5.587901   -2.788922   -5.586787    0.000000    1.485000
   137  Cl    c     5.587901   -5.586787   -2.788922    0.000000    1.485000
   138  Na    c     8.387352    8.393056    0.002387    0.000000   -1.128000
   139  Na    c    -2.804464   -5.601612    2.789057    0.000000   -1.128000
   140  Na    c     8.387352    0.002387    8.393056    0.000000   -1.128000
   141  Na    c    -2.804464    2.789057   -5.601612    0.000000   -1.128000
   142  Na    c    -2.804464    0.002387    8.393056    0.000000   -1.128000
   143  Na    c    -2.804464    8.393056    0.002387    0.000000   -1.128000
   144  Na    c     8.387352    2.789057   -5.601612    0.000000   -1.128000
   145  Na    c     8.387352   -5.601612    2.789057    0.000000   -1.128000
   146  Cl    c    -2.792517   -5.579635    0.004392    0.000000    1.485000
   147  Cl    c    -2.792517    0.004392   -5.579635    0.000000    1.485000
   148  Cl    c     8.375405    8.371079    2.787052    0.000000    1.485000
   149  Cl    c     8.375405    2.787052    8.371079    0.000000    1.485000
   150  Cl    c    -2.792517    2.787052    8.371079    0.000000    1.485000
   151  Cl    c    -2.792517    8.371079    2.787052    0.000000    1.485000
   152  Cl    c     8.375405    0.004392   -5.579635    0.000000    1.485000
   153  Cl    c     8.375405   -5.579635    0.004392    0.000000    1.485000
   154  Na    c    -5.597923   -2.798748    2.795629    0.000000   -1.128000
   155  Na    c    -5.597923    2.795629   -2.798748    0.000000   -1.128000
   156  Na    c    -5.597923   -0.004185    5.590192    0.000000   -1.128000
   157  Na    c    -5.597923    5.590192   -0.004185    0.000000   -1.128000
   158  Na    c    11.180811    5.590192   -0.004185    0.000000   -1.128000
   159  Na    c    11.180811   -0.004185    5.590192    0.000000   -1.128000
   160  Na    c    11.180811    2.795629   -2.798748    0.000000   -1.128000
   161  Na    c    11.180811   -2.798748    2.795629    0.000000   -1.128000
   162  Cl    c    11.149922    5.570503    2.783440    0.000000    1.485000
   163  Cl    c    11.149922    2.783440    5.570503    0.000000    1.485000
   164  Cl    c    -5.567034   -2.779059    0.008004    0.000000    1.485000
   165  Cl    c    -5.567034    0.008004   -2.779059    0.000000    1.485000
   166  Cl    c    -5.567034    2.783440    5.570503    0.000000    1.485000
   167  Cl    c    -5.567034    5.570503    2.783440    0.000000    1.485000
   168  Cl    c    11.149922    0.008004   -2.779059    0.000000    1.485000
   169  Cl    c    11.149922   -2.779059    0.008004    0.000000    1.485000
   170  Na    c     8.387216    5.595433    8.392616    0.000000   -1.128000
   171  Na    c    -2.804328    5.595433    8.392616    0.000000   -1.128000
   172  Na    c    -2.804328   -2.803989   -5.601172    0.000000   -1.128000
   173  Na    c     8.387216   -2.803989   -5.601172    0.000000   -1.128000
   174  Na    c     8.387216    8.392616    5.595433    0.000000   -1.128000
   175  Na    c    -2.804328    8.392616    5.595433    0.000000   -1.128000
   176  Na    c    -2.804328   -5.601172   -2.803989    0.000000   -1.128000
   177  Na    c     8.387216   -5.601172   -2.803989    0.000000   -1.128000
   178  Na    c     2.791444    2.806997   11.216652    0.000000   -1.128000
   179  Na    c     2.791444   11.216652    2.806997    0.000000   -1.128000
   180  Na    c     2.791444   -8.425208   -0.015553    0.000000   -1.128000
   181  Na    c     2.791444   -0.015553   -8.425208    0.000000   -1.128000
   182  Cl    c     8.360803   -2.780822    8.352593    0.000000    1.485000
   183  Cl    c    -2.777915    5.572266   -5.561149    0.000000    1.485000
   184  Cl    c    -2.777915   -2.780822    8.352593    0.000000    1.485000
   185  Cl    c     8.360803    5.572266   -5.561149    0.000000    1.485000
   186  Cl    c     8.360803    8.352593   -2.780822    0.000000    1.485000
   187  Cl    c    -2.777915   -5.561149    5.572266    0.000000    1.485000
   188  Cl    c    -2.777915    8.352593   -2.780822    0.000000    1.485000
   189  Cl    c     8.360803   -5.561149    5.572266    0.000000    1.485000
   190  Cl    c     2.791444    0.001496   11.193257    0.000000    1.485000
   191  Cl    c     2.791444   11.193257    0.001496    0.000000    1.485000
   192  Cl    c     2.791444   -8.401813    2.789948    0.000000    1.485000
   193  Cl    c     2.791444    2.789948   -8.401813    0.000000    1.485000
   194  Na    c     2.791444   -5.627099    8.418543    0.000000   -1.128000
   195  Na    c     2.791444    8.418543   -5.627099    0.000000   -1.128000
   196  Cl    c     2.791444    8.378343    8.378343    0.000000    1.485000
   197  Cl    c     2.791444   -5.586899   -5.586899    0.000000    1.485000
   198  Na    s     2.791444    1.395722    1.395722    0.000000    2.128000
   199  Na    s     2.791444    3.365772   -0.574328    0.000000    2.128000
   200  Na    s     2.791444   -0.574328    3.365772    0.000000    2.128000
   201  Cl    s     2.791444   -0.302698   -0.302698    0.000000   -2.485000
   202  Cl    s     2.791444    3.094142    3.094142    0.000000   -2.485000
   203  Na    s    -0.006664   -0.110231   -0.110231    0.000000    2.128000
   204  Na    s     5.589552    2.901675    2.901675    0.000000    2.128000
   205  Na    s    -0.006664    2.901675    2.901675    0.000000    2.128000
   206  Na    s     5.589552   -0.110231   -0.110231    0.000000    2.128000
   207  Cl    s     5.219674    2.701571    0.089873    0.000000   -2.485000
   208  Cl    s     5.219674    0.089873    2.701571    0.000000   -2.485000
   209  Cl    s     0.363214    0.089873    2.701571    0.000000   -2.485000
   210  Cl    s     0.363214    2.701571    0.089873    0.000000   -2.485000
   211  Na    s     2.791444    5.764112    2.850498    0.000000    2.128000
   212  Na    s     2.791444    2.850498    5.764112    0.000000    2.128000
   213  Na    s     2.791444   -0.059054   -2.972668    0.000000    2.128000
   214  Na    s     2.791444   -2.972668   -0.059054    0.000000    2.128000
   215  Cl    s     2.791444   -3.005885    2.815498    0.000000   -2.485000
   216  Cl    s     2.791444    2.815498   -3.005885    0.000000   -2.485000
   217  Cl    s     2.791444   -0.024054    5.797329    0.000000   -2.485000
   218  Cl    s     2.791444    5.797329   -0.024054    0.000000   -2.485000
   219  Na    s     5.597210    5.666186    0.028480    0.000000    2.128000
   220  Na    s    -0.014322   -2.874742    2.762964    0.000000    2.128000
   221  Na    s    -0.014322    5.666186    0.028480    0.000000    2.128000
   222  Na    s     5.597210   -2.874742    2.762964    0.000000    2.128000
   223  Na    s     5.597210    0.028480    5.666186    0.000000    2.128000
   224  Na    s    -0.014322    2.762964   -2.874742    0.000000    2.128000
   225  Na    s    -0.014322    0.028480    5.666186    0.000000    2.128000
   226  Na    s     5.597210    2.762964   -2.874742    0.000000    2.128000
   227  Cl    s    -0.008361   -2.835993    0.003187    0.000000   -2.485000
   228  Cl    s     5.591249    5.627437    2.788257    0.000000   -2.485000
   229  Cl    s    -0.008361    5.627437    2.788257    0.000000   -2.485000
   230  Cl    s     5.591249   -2.835993    0.003187    0.000000   -2.485000
   231  Cl    s    -0.008361    0.003187   -2.835993    0.000000   -2.485000
   232  Cl    s     5.591249    2.788257    5.627437    0.000000   -2.485000
   233  Cl    s    -0.008361    2.788257    5.627437    0.000000   -2.485000
   234  Cl    s     5.591249    0.003187   -2.835993    0.000000   -2.485000
   235  Na    s     2.791444   -2.935530    5.726974    0.000000    2.128000
   236  Na    s     2.791444    5.726974   -2.935530    0.000000    2.128000
   237  Na    s    -2.806864    0.006128    2.785316    0.000000    2.128000
   238  Na    s    -2.806864    2.785316    0.006128    0.000000    2.128000
   239  Na    s     8.389752    2.785316    0.006128    0.000000    2.128000
   240  Na    s     8.389752    0.006128    2.785316    0.000000    2.128000
   241  Cl    s     8.313871    2.774831    2.774831    0.000000   -2.485000
   242  Cl    s    -2.730983    0.016613    0.016613    0.000000   -2.485000
   243  Cl    s    -2.730983    2.774831    2.774831    0.000000   -2.485000
   244  Cl    s     8.313871    0.016613    0.016613    0.000000   -2.485000
   245  Cl    s     2.791444    5.645743    5.645743    0.000000   -2.485000
   246  Cl    s     2.791444   -2.854299   -2.854299    0.000000   -2.485000
   247  Na    s     5.582545    5.614514    5.614514    0.000000    2.128000
   248  Na    s     0.000343    5.614514    5.614514    0.000000    2.128000
   249  Na    s     0.000343   -2.823070   -2.823070    0.000000    2.128000
   250  Na    s     5.582545   -2.823070   -2.823070    0.000000    2.128000
   251  Cl    s     5.535006   -2.746880    5.538324    0.000000   -2.485000
   252  Cl    s     5.535006    5.538324   -2.746880    0.000000   -2.485000
   253  Cl    s     0.047882   -2.746880    5.538324    0.000000   -2.485000
   254  Cl    s     0.047882    5.538324   -2.746880    0.000000   -2.485000
   255  Na    s    -2.803016   -2.814696   -0.013280    0.000000    2.128000
   256  Na    s     8.385904    5.606140    2.804724    0.000000    2.128000
   257  Na    s     8.385904    2.804724    5.606140    0.000000    2.128000
   258  Na    s    -2.803016   -0.013280   -2.814696    0.000000    2.128000
   259  Na    s    -2.803016    2.804724    5.606140    0.000000    2.128000
   260  Na    s    -2.803016    5.606140    2.804724    0.000000    2.128000
   261  Na    s     8.385904   -0.013280   -2.814696    0.000000    2.128000
   262  Na    s     8.385904   -2.814696   -0.013280    0.000000    2.128000
   263  Cl    s     8.336558    5.545565    0.004598    0.000000   -2.485000
   264  Cl    s     8.336558    0.004598    5.545565    0.000000   -2.485000
   265  Cl    s    -2.753670   -2.754121    2.786846    0.000000   -2.485000
   266  Cl    s    -2.753670    2.786846   -2.754121    0.000000   -2.485000
   267  Cl    s    -2.753670    0.004598    5.545565    0.000000   -2.485000
   268  Cl    s    -2.753670    5.545565    0.004598    0.000000   -2.485000
   269  Cl    s     8.336558    2.786846   -2.754121    0.000000   -2.485000
   270  Cl    s     8.336558   -2.754121    2.786846    0.000000   -2.485000
   271  Na    s     2.791444   -0.004530    8.502172    0.000000    2.128000
   272  Na    s     2.791444    8.502172   -0.004530    0.000000    2.128000
   273  Na    s     2.791444   -5.710729    2.795974    0.000000    2.128000
   274  Na    s     2.791444    2.795974   -5.710729    0.000000    2.128000
   275  Cl    s     2.791444    2.801497    8.440786    0.000000   -2.485000
   276  Cl    s     2.791444    8.440786    2.801497    0.000000   -2.485000
   277  Cl    s     2.791444   -5.649342   -0.010053    0.000000   -2.485000
   278  Cl    s     2.791444   -0.010053   -5.649342    0.000000   -2.485000
   279  Na    s     5.596131    8.419408    2.803924    0.000000    2.128000
   280  Na    s     5.596131    2.803924    8.419408    0.000000    2.128000
   281  Na    s    -0.013244    2.803924    8.419408    0.000000    2.128000
   282  Na    s    -0.013244    8.419408    2.803924    0.000000    2.128000
   283  Na    s    -0.013244   -5.627965   -0.012480    0.000000    2.128000
   284  Na    s    -0.013244   -0.012480   -5.627965    0.000000    2.128000
   285  Na    s     5.596131   -0.012480   -5.627965    0.000000    2.128000
   286  Na    s     5.596131   -5.627965   -0.012480    0.000000    2.128000
   287  Cl    s    -0.008910   -5.606611    2.793826    0.000000   -2.485000
   288  Cl    s    -0.008910    2.793826   -5.606611    0.000000   -2.485000
   289  Cl    s     5.591798   -0.002382    8.398055    0.000000   -2.485000
   290  Cl    s     5.591798    8.398055   -0.002382    0.000000   -2.485000
   291  Cl    s    -0.008910   -0.002382    8.398055    0.000000   -2.485000
   292  Cl    s    -0.008910    8.398055   -0.002382    0.000000   -2.485000
   293  Cl    s     5.591798   -5.606611    2.793826    0.000000   -2.485000
   294  Cl    s     5.591798    2.793826   -5.606611    0.000000   -2.485000
   295  Na    s    -2.792560   -2.791567    5.583011    0.000000    2.128000
   296  Na    s    -2.792560    5.583011   -2.791567    0.000000    2.128000
   297  Na    s     8.375448    5.583011   -2.791567    0.000000    2.128000
   298  Na    s     8.375448   -2.791567    5.583011    0.000000    2.128000
   299  Na    s     2.791444    8.414218    5.613458    0.000000    2.128000
   300  Na    s     2.791444    5.613458    8.414218    0.000000    2.128000
   301  Na    s     2.791444   -2.822014   -5.622774    0.000000    2.128000
   302  Na    s     2.791444   -5.622774   -2.822014    0.000000    2.128000
   303  Cl    s     2.791444   -5.619538    5.611404    0.000000   -2.485000
   304  Cl    s     2.791444    5.611404   -5.619538    0.000000   -2.485000
   305  Cl    s     2.791444   -2.819960    8.410982    0.000000   -2.485000
   306  Cl    s     2.791444    8.410982   -2.819960    0.000000   -2.485000
   307  Cl    s    -2.785200   -2.786034   -2.786034    0.000000   -2.485000
   308  Cl    s     8.368088    5.577478    5.577478    0.000000   -2.485000
   309  Cl    s    -2.785200    5.577478    5.577478    0.000000   -2.485000
   310  Cl    s     8.368088   -2.786034   -2.786034    0.000000   -2.485000
   311  Na    s    -5.592546   -0.001858   -0.001858    0.000000    2.128000
   312  Na    s    -5.592546    2.793302    2.793302    0.000000    2.128000
   313  Na    s    11.175434    2.793302    2.793302    0.000000    2.128000
   314  Na    s    11.175434   -0.001858   -0.001858    0.000000    2.128000
   315  Cl    s    -5.562479    0.004161    2.787283    0.000000   -2.485000
   316  Cl    s    -5.562479    2.787283    0.004161    0.000000   -2.485000
   317  Cl    s    11.145367    2.787283    0.004161    0.000000   -2.485000
   318  Cl    s    11.145367    0.004161    2.787283    0.000000   -2.485000
   319  Na    s    -0.008240   -5.603953    5.588498    0.000000    2.128000
   320  Na    s     5.591128   -2.797054    8.395397    0.000000    2.128000
   321  Na    s     5.591128    8.395397   -2.797054    0.000000    2.128000
   322  Na    s    -0.008240    5.588498   -5.603953    0.000000    2.128000
   323  Na    s    -0.008240   -2.797054    8.395397    0.000000    2.128000
   324  Na    s    -0.008240    8.395397   -2.797054    0.000000    2.128000
   325  Na    s     5.591128   -5.603953    5.588498    0.000000    2.128000
   326  Na    s     5.591128    5.588498   -5.603953    0.000000    2.128000
   327  Cl    s     5.587442    8.376424    5.579346    0.000000   -2.485000
   328  Cl    s     5.587442    5.579346    8.376424    0.000000   -2.485000
   329  Cl    s    -0.004554    5.579346    8.376424    0.000000   -2.485000
   330  Cl    s    -0.004554    8.376424    5.579346    0.000000   -2.485000
   331  Cl    s    -0.004554   -5.584980   -2.787902    0.000000   -2.485000
   332  Cl    s    -0.004554   -2.787902   -5.584980    0.000000   -2.485000
   333  Cl    s     5.587442   -2.787902   -5.584980    0.000000   -2.485000
   334  Cl    s     5.587442   -5.584980   -2.787902    0.000000   -2.485000
   335  Na    s     8.387511    8.394423    0.002356    0.000000    2.128000
   336  Na    s    -2.804623   -5.602979    2.789088    0.000000    2.128000
   337  Na    s     8.387511    0.002356    8.394423    0.000000    2.128000
   338  Na    s    -2.804623    2.789088   -5.602979    0.000000    2.128000
   339  Na    s    -2.804623    0.002356    8.394423    0.000000    2.128000
   340  Na    s    -2.804623    8.394423    0.002356    0.000000    2.128000
   341  Na    s     8.387511    2.789088   -5.602979    0.000000    2.128000
   342  Na    s     8.387511   -5.602979    2.789088    0.000000    2.128000
   343  Cl    s    -2.791614   -5.577289    0.006469    0.000000   -2.485000
   344  Cl    s    -2.791614    0.006469   -5.577289    0.000000   -2.485000
   345  Cl    s     8.374502    8.368733    2.784975    0.000000   -2.485000
   346  Cl    s     8.374502    2.784975    8.368733    0.000000   -2.485000
   347  Cl    s    -2.791614    2.784975    8.368733    0.000000   -2.485000
   348  Cl    s    -2.791614    8.368733    2.784975    0.000000   -2.485000
   349  Cl    s     8.374502    0.006469   -5.577289    0.000000   -2.485000
   350  Cl    s     8.374502   -5.577289    0.006469    0.000000   -2.485000
   351  Na    s    -5.599104   -2.798993    2.795571    0.000000    2.128000
   352  Na    s    -5.599104    2.795571   -2.798993    0.000000    2.128000
   353  Na    s    -5.599104   -0.004127    5.590437    0.000000    2.128000
   354  Na    s    -5.599104    5.590437   -0.004127    0.000000    2.128000
   355  Na    s    11.181992    5.590437   -0.004127    0.000000    2.128000
   356  Na    s    11.181992   -0.004127    5.590437    0.000000    2.128000
   357  Na    s    11.181992    2.795571   -2.798993    0.000000    2.128000
   358  Na    s    11.181992   -2.798993    2.795571    0.000000    2.128000
   359  Cl    s    11.146109    5.568512    2.782701    0.000000   -2.485000
   360  Cl    s    11.146109    2.782701    5.568512    0.000000   -2.485000
   361  Cl    s    -5.563221   -2.777068    0.008743    0.000000   -2.485000
   362  Cl    s    -5.563221    0.008743   -2.777068    0.000000   -2.485000
   363  Cl    s    -5.563221    2.782701    5.568512    0.000000   -2.485000
   364  Cl    s    -5.563221    5.568512    2.782701    0.000000   -2.485000
   365  Cl    s    11.146109    0.008743   -2.777068    0.000000   -2.485000
   366  Cl    s    11.146109   -2.777068    0.008743    0.000000   -2.485000
   367  Na    s     8.387558    5.595990    8.393360    0.000000    2.128000
   368  Na    s    -2.804670    5.595990    8.393360    0.000000    2.128000
   369  Na    s    -2.804670   -2.804546   -5.601916    0.000000    2.128000
   370  Na    s     8.387558   -2.804546   -5.601916    0.000000    2.128000
   371  Na    s     8.387558    8.393360    5.595990    0.000000    2.128000
   372  Na    s    -2.804670    8.393360    5.595990    0.000000    2.128000
   373  Na    s    -2.804670   -5.601916   -2.804546    0.000000    2.128000
   374  Na    s     8.387558   -5.601916   -2.804546    0.000000    2.128000
   375  Na    s     2.791444    2.807553   11.217091    0.000000    2.128000
   376  Na    s     2.791444   11.217091    2.807553    0.000000    2.128000
   377  Na    s     2.791444   -8.425647   -0.016109    0.000000    2.128000
   378  Na    s     2.791444   -0.016109   -8.425647    0.000000    2.128000
   379  Cl    s     8.357669   -2.779307    8.349265    0.000000   -2.485000
   380  Cl    s    -2.774781    5.570751   -5.557821    0.000000   -2.485000
   381  Cl    s    -2.774781   -2.779307    8.349265    0.000000   -2.485000
   382  Cl    s     8.357669    5.570751   -5.557821    0.000000   -2.485000
   383  Cl    s     8.357669    8.349265   -2.779307    0.000000   -2.485000
   384  Cl    s    -2.774781   -5.557821    5.570751    0.000000   -2.485000
   385  Cl    s    -2.774781    8.349265   -2.779307    0.000000   -2.485000
   386  Cl    s     8.357669   -5.557821    5.570751    0.000000   -2.485000
   387  Cl    s     2.791444    0.000071   11.182492    0.000000   -2.485000
   388  Cl    s     2.791444   11.182492    0.000071    0.000000   -2.485000
   389  Cl    s     2.791444   -8.391048    2.791373    0.000000   -2.485000
   390  Cl    s     2.791444    2.791373   -8.391048    0.000000   -2.485000
   391  Na    s     2.791444   -5.628154    8.419598    0.000000    2.128000
   392  Na    s     2.791444    8.419598   -5.628154    0.000000    2.128000
   393  Cl    s     2.791444    8.375908    8.375908    0.000000   -2.485000
   394  Cl    s     2.791444   -5.584464   -5.584464    0.000000   -2.485000
--------------------------------------------------------------------------------

  Final coordinates of symmetry reduced region 1 (relative to defect centre):

--------------------------------------------------------------------------------
   No.  Atomic        x           y           z          Charge
        Label       (Angs)      (Angs)      (Angs)         (e) 
--------------------------------------------------------------------------------
     1  Na    c     0.000000    0.000000    0.000000   -1.128000
     2  Na    c     0.000000    1.962555   -1.962555   -1.128000
     3  Cl    c     0.000000   -1.733590   -1.733590    1.485000
     4  Na    c    -2.797502   -1.504010   -1.504010   -1.128000
     5  Cl    c     2.466757    1.305420   -1.305420    1.485000
     6  Na    c     0.000000    4.369032    1.452977   -1.128000
     7  Cl    c     0.000000   -4.436287    1.408170    1.485000
     8  Na    c     2.804780    4.266370   -1.367494   -1.128000
     9  Cl    c    -2.799126   -4.236913   -1.396386    1.485000
    10  Na    c     0.000000   -4.327547    4.327547   -1.128000
    11  Na    c    -5.593542   -1.389447    1.389447   -1.128000
    12  Cl    c     5.531413    1.382639    1.382639    1.485000
    13  Cl    c     0.000000    4.247577    4.247577    1.485000
    14  Na    c     2.790925    4.217503    4.217503   -1.128000
    15  Cl    c     2.749378   -4.145470    4.145470    1.485000
    16  Na    c    -5.594000   -4.209194   -1.408585   -1.128000
    17  Cl    c     5.552687    4.154945   -1.390940    1.485000
    18  Na    c     0.000000   -1.400424    7.106495   -1.128000
    19  Cl    c     0.000000    1.405646    7.056045    1.485000
    20  Na    c     2.804206    7.022851    1.407660   -1.128000
    21  Cl    c    -2.799911   -7.005131    1.397499    1.485000
    22  Na    c    -5.583257   -4.186813    4.186813   -1.128000
    23  Na    c     0.000000    7.018292    4.216809   -1.128000
    24  Cl    c     0.000000   -7.022464    4.214217    1.485000
    25  Cl    c    -5.577071   -4.184856   -4.184856    1.485000
    26  Na    c    -8.382716   -1.397347   -1.397347   -1.128000
    27  Cl    c    -8.358087   -1.392688    1.392688    1.485000
    28  Na    c    -2.799091   -6.998050    4.192682   -1.128000
    29  Cl    c     2.796457    6.982509    4.184644    1.485000
    30  Na    c     5.595908    6.997334   -1.393335   -1.128000
    31  Cl    c    -5.583961   -6.975357   -1.391330    1.485000
    32  Na    c    -8.389367   -4.194470    1.399907   -1.128000
    33  Cl    c     8.358478    4.174781    1.387718    1.485000
    34  Na    c     5.595772    4.199711    6.996894   -1.128000
    35  Na    c     0.000000    1.411275    9.820930   -1.128000
    36  Cl    c     5.569359   -4.176544    6.956871    1.485000
    37  Cl    c     0.000000   -1.394226    9.797535    1.485000
    38  Na    c     0.000000   -7.022821    7.022821   -1.128000
    39  Cl    c     0.000000    6.982621    6.982621    1.485000
    40  Na    s     0.000000    0.000000    0.000000    2.128000
    41  Na    s     0.000000    1.970050   -1.970050    2.128000
    42  Cl    s     0.000000   -1.698420   -1.698420   -2.485000
    43  Na    s    -2.798108   -1.505953   -1.505953    2.128000
    44  Cl    s     2.428230    1.305849   -1.305849   -2.485000
    45  Na    s     0.000000    4.368390    1.454776    2.128000
    46  Cl    s     0.000000   -4.401607    1.419776   -2.485000
    47  Na    s     2.805766    4.270464   -1.367242    2.128000
    48  Cl    s    -2.799805   -4.231715   -1.392535   -2.485000
    49  Na    s     0.000000   -4.331252    4.331252    2.128000
    50  Na    s    -5.598308   -1.389594    1.389594    2.128000
    51  Cl    s     5.522427    1.379109    1.379109   -2.485000
    52  Cl    s     0.000000    4.250021    4.250021   -2.485000
    53  Na    s     2.791101    4.218792    4.218792    2.128000
    54  Cl    s     2.743562   -4.142602    4.142602   -2.485000
    55  Na    s    -5.594460   -4.210418   -1.409002    2.128000
    56  Cl    s     5.545114    4.149843   -1.391124   -2.485000
    57  Na    s     0.000000   -1.400252    7.106450    2.128000
    58  Cl    s     0.000000    1.405775    7.045064   -2.485000
    59  Na    s     2.804688    7.023686    1.408202    2.128000
    60  Cl    s    -2.800354   -7.002333    1.398104   -2.485000
    61  Na    s    -5.584004   -4.187289    4.187289    2.128000
    62  Na    s     0.000000    7.018496    4.217736    2.128000
    63  Cl    s     0.000000   -7.015260    4.215682   -2.485000
    64  Cl    s    -5.576644   -4.181756   -4.181756   -2.485000
    65  Na    s    -8.383990   -1.397580   -1.397580    2.128000
    66  Cl    s    -8.353923   -1.391561    1.391561   -2.485000
    67  Na    s    -2.799684   -6.999675    4.192776    2.128000
    68  Cl    s     2.795998    6.980702    4.183624   -2.485000
    69  Na    s     5.596067    6.998701   -1.393366    2.128000
    70  Cl    s    -5.583058   -6.973011   -1.389253   -2.485000
    71  Na    s    -8.390548   -4.194715    1.399849    2.128000
    72  Cl    s     8.354665    4.172790    1.386979   -2.485000
    73  Na    s     5.596114    4.200268    6.997638    2.128000
    74  Na    s     0.000000    1.411831    9.821369    2.128000
    75  Cl    s     5.566225   -4.175029    6.953543   -2.485000
    76  Cl    s     0.000000   -1.395651    9.786770   -2.485000
    77  Na    s     0.000000   -7.023876    7.023876    2.128000
    78  Cl    s     0.000000    6.980186    6.980186   -2.485000
--------------------------------------------------------------------------------


  Final derivatives for region 1 :

--------------------------------------------------------------------------------
   No.  Atomic          x             y             z            Radius
        Label       (eV/Angs)     (eV/Angs)     (eV/Angs)       (eV/Angs)
--------------------------------------------------------------------------------
     1  Na    c       0.000000      0.000000      0.000000      0.000000
     2  Na    c       0.000000     -0.000404      0.000000      0.000000
     3  Cl    c       0.000000      0.000615      0.000000      0.000000
     4  Na    c       0.000254      0.000997      0.000000      0.000000
     5  Cl    c       0.000991     -0.000655      0.000000      0.000000
     6  Na    c       0.000000     -0.000309     -0.000091      0.000000
     7  Cl    c       0.000000     -0.001376     -0.000383      0.000000
     8  Na    c      -0.000470     -0.000523      0.000356      0.000000
     9  Cl    c      -0.000145     -0.000406     -0.000007      0.000000
    10  Na    c       0.000000      0.000185      0.000000      0.000000
    11  Na    c       0.000101      0.000253      0.000000      0.000000
    12  Cl    c       0.000307      0.000050      0.000000      0.000000
    13  Cl    c       0.000000      0.000178      0.000000      0.000000
    14  Na    c      -0.000089     -0.000229      0.000000      0.000000
    15  Cl    c       0.000043     -0.000145      0.000000      0.000000
    16  Na    c       0.000241      0.000177      0.000039      0.000000
    17  Cl    c       0.000177      0.000088     -0.000150      0.000000
    18  Na    c       0.000000      0.000043      0.000030      0.000000
    19  Cl    c       0.000000     -0.000026      0.000224      0.000000
    20  Na    c      -0.000097     -0.000188     -0.000032      0.000000
    21  Cl    c      -0.000130     -0.000168      0.000061      0.000000
    22  Na    c       0.000051      0.000080      0.000000      0.000000
    23  Na    c       0.000000     -0.000098     -0.000044      0.000000
    24  Cl    c       0.000000     -0.000032      0.000100      0.000000
    25  Cl    c      -0.000098     -0.000127      0.000000      0.000000
    26  Na    c       0.000054      0.000023      0.000000      0.000000
    27  Cl    c      -0.000051     -0.000046      0.000000      0.000000
    28  Na    c       0.000026      0.000084     -0.000116      0.000000
    29  Cl    c       0.000081      0.000194      0.000082      0.000000
    30  Na    c      -0.000109     -0.000070      0.000051      0.000000
    31  Cl    c      -0.000126     -0.000157      0.000003      0.000000
    32  Na    c       0.000066      0.000100     -0.000045      0.000000
    33  Cl    c       0.000156      0.000060     -0.000002      0.000000
    34  Na    c      -0.000096     -0.000060     -0.000110      0.000000
    35  Na    c       0.000000     -0.000016     -0.000063      0.000000
    36  Cl    c       0.000067     -0.000059      0.000082      0.000000
    37  Cl    c       0.000000     -0.000007      0.000060      0.000000
    38  Na    c       0.000000      0.000022      0.000000      0.000000
    39  Cl    c       0.000000      0.000067      0.000000      0.000000
    40  Na    s       0.000000      0.000000      0.000000      0.000000
    41  Na    s       0.000000     -0.001639      0.000000      0.000000
    42  Cl    s       0.000000      0.007915      0.000000      0.000000
    43  Na    s      -0.000518     -0.001281      0.000000      0.000000
    44  Cl    s       0.000173      0.000514      0.000000      0.000000
    45  Na    s       0.000000      0.000166      0.000278      0.000000
    46  Cl    s       0.000000     -0.000412      0.000681      0.000000
    47  Na    s       0.000756      0.001034     -0.000516      0.000000
    48  Cl    s       0.000303      0.000396      0.000075      0.000000
    49  Na    s       0.000000     -0.000148      0.000000      0.000000
    50  Na    s      -0.000193     -0.000356      0.000000      0.000000
    51  Cl    s      -0.000281     -0.000167      0.000000      0.000000
    52  Cl    s       0.000000     -0.000324      0.000000      0.000000
    53  Na    s       0.000170      0.000411      0.000000      0.000000
    54  Cl    s       0.000009      0.000149      0.000000      0.000000
    55  Na    s      -0.000426     -0.000312     -0.000034      0.000000
    56  Cl    s      -0.000266     -0.000157      0.000263      0.000000
    57  Na    s       0.000000     -0.000081     -0.000035      0.000000
    58  Cl    s       0.000000      0.000006     -0.000114      0.000000
    59  Na    s       0.000174      0.000382      0.000035      0.000000
    60  Cl    s       0.000231      0.000305     -0.000122      0.000000
    61  Na    s      -0.000067     -0.000109      0.000000      0.000000
    62  Na    s       0.000000      0.000180      0.000084      0.000000
    63  Cl    s       0.000000      0.000089     -0.000167      0.000000
    64  Cl    s       0.000160      0.000220      0.000000      0.000000
    65  Na    s      -0.000142     -0.000041      0.000000      0.000000
    66  Cl    s       0.000149      0.000073      0.000000      0.000000
    67  Na    s      -0.000049     -0.000164      0.000215      0.000000
    68  Cl    s      -0.000146     -0.000292     -0.000138      0.000000
    69  Na    s       0.000202      0.000225     -0.000081      0.000000
    70  Cl    s       0.000200      0.000228      0.000006      0.000000
    71  Na    s      -0.000237     -0.000158      0.000076      0.000000
    72  Cl    s      -0.000240     -0.000107     -0.000001      0.000000
    73  Na    s       0.000179      0.000114      0.000206      0.000000
    74  Na    s       0.000000      0.000019      0.000122      0.000000
    75  Cl    s      -0.000109      0.000098     -0.000126      0.000000
    76  Cl    s       0.000000      0.000024     -0.000169      0.000000
    77  Na    s       0.000000     -0.000058      0.000000      0.000000
    78  Cl    s       0.000000     -0.000105      0.000000      0.000000
--------------------------------------------------------------------------------


  Time to end of optimisation  =        2.5335 seconds


  Peak dynamic memory used =      32.87 MB 


  Timing analysis for GULP :

--------------------------------------------------------------------------------
  Task / Subroutine                                          Time (Seconds)
--------------------------------------------------------------------------------
  Calculation of reciprocal space energy and derivatives          0.0002
  Calculation of reciprocal space energy using symmetry           0.0004
  Calculation of real space energy and derivatives                0.0015
  Calculation of real space energy using symmetry                 0.0081
  Calculation for region 1 energy and derivatives (2-b)           0.9003
  Calculation for region 2a energy                                1.5395
  Calculation and manipulation of Hessian matrix                  0.0414
  Calculation of matrix inversion                                 0.0020
  Symmetry generation of equivalent positions                     0.0025
--------------------------------------------------------------------------------
  Total CPU time                                                  2.5336
--------------------------------------------------------------------------------


  Dump file written as NaCl.grs


  Job Finished at 16:26.24  2nd October    2020                               

