********************************************************************************
*                       GENERAL UTILITY LATTICE PROGRAM                        *
*                                 Julian Gale                                  *
*                       Curtin Institute for Computation                       *
*                    School of Molecular and Life Sciences                     *
*                    Curtin University, Western Australia                      *
********************************************************************************
* Version = 5.2.0 * Last modified =  10th September 2020                       *
********************************************************************************
* Na vacancy in NaCl                                                           *
*  optimise     - perform optimisation run                                     *
*  conp         - constant pressure calculation                                *
*  property     - calculate properties for final geometry                      *
*  defect       - perform defect calculation after bulk run                    *
********************************************************************************
* Na vacancy in NaCl                                                           *
********************************************************************************


  Job Started  at 14:20.21  2nd October    2020                               

  Number of CPUs =     1


  Total number of configurations input =      1

********************************************************************************
*  Input for Configuration =   1 : NaCl                                        *
********************************************************************************

  Formula = NaCl                                                        

  Number of irreducible atoms/shells =       4


  Total number atoms/shells =       4

  Dimensionality = 3               :  Bulk   


  Symmetry :

  Crystal family                   :  Cubic       
  Crystal class  (Groth - 1921)    :  Cubic Hexakisoctahedral              

  Space group (centrosymmetric)    :  F M 3 M         

  Patterson group                  :  F m -3 m 

  Cartesian lattice vectors (Angstroms) :

        0.000000    2.789000    2.789000
        2.789000    0.000000    2.789000
        2.789000    2.789000    0.000000

  Primitive cell parameters :            Full cell parameters :

  a =   3.9442    alpha =  60.0000       a =   5.5780    alpha =  90.0000
  b =   3.9442    beta  =  60.0000       b =   5.5780    beta  =  90.0000
  c =   3.9442    gamma =  60.0000       c =   5.5780    gamma =  90.0000

  Initial volumes (Angstroms**3):

  Primitive cell =          43.388590    Full cell =         173.554361

  Temperature of configuration =   0.00     K 

  Pressure of configuration =         0.000 GPa 

  Fractional coordinates of asymmetric unit :

--------------------------------------------------------------------------------
   No.  Atomic       x           y          z         Charge      Occupancy
        Label      (Frac)      (Frac)     (Frac)        (e)         (Frac)  
--------------------------------------------------------------------------------
      1 Na    c    0.000000    0.000000    0.000000    -1.12800    1.000000    
      2 Cl    c    0.500000    0.000000    0.000000     1.48500    1.000000    
      3 Na    s    0.000000    0.000000    0.000000     2.12800    1.000000    
      4 Cl    s    0.500000    0.000000    0.000000    -2.48500    1.000000    
--------------------------------------------------------------------------------


  Constraints : 

--------------------------------------------------------------------------------
  Constraint no.      Unconstrained     Constrained    Coefficient    Offset
                         Variable         Variable
--------------------------------------------------------------------------------
           1              Strain 1        Strain 2       1.00000      0.0000
           2              Strain 1        Strain 3       1.00000      0.0000
--------------------------------------------------------------------------------


********************************************************************************
*  General input information                                                   *
********************************************************************************

  Species output for all configurations : 

--------------------------------------------------------------------------------
  Species    Type    Atomic    Atomic    Charge       Radii (Angs)     Library
                     Number     Mass       (e)     Cova   Ionic  VDW   Symbol
--------------------------------------------------------------------------------
    Na       Core       11      22.99  -1.128000   0.970  0.000  2.300          
    Na       Shell      11       0.00   2.128000   0.970  0.000  2.300          
    Cl       Core       17      35.45   1.485000   0.990  0.000  1.650          
    Cl       Shell      17       0.00  -2.485000   0.990  0.000  1.650          
--------------------------------------------------------------------------------


  Lattice summation method               =    Ewald          (3-D)
                                         =    Parry          (2-D)
                                         =    Saunders et al (1-D)
  Accuracy factor for lattice sums       =   12.000


  Analytic derivatives to be used

  Time limit = Infinity

  Maximum range for interatomic potentials =    100000.000000 Angstroms

  General interatomic potentials :

--------------------------------------------------------------------------------
Atom  Types   Potential      Parameter       Value         Units   Cutoffs(Ang)
  1     2                                                            Min /  Max 
--------------------------------------------------------------------------------
Na   s Na   s Buckingham    Buckingham A     7895.0000    eV        0.000 12.000
                            Buckingham rho  0.17090000    Ang       
                            Buckingham C     14.530000    eV*Ang^6  
--------------------------------------------------------------------------------
Na   s Cl   s Buckingham    Buckingham A     2314.7000    eV        0.000 12.000
                            Buckingham rho  0.29030000    Ang       
                            Buckingham C     0.0000000    eV*Ang^6  
--------------------------------------------------------------------------------
Cl   s Cl   s Buckingham    Buckingham A     1227.2000    eV        0.000 12.000
                            Buckingham rho  0.32140000    Ang       
                            Buckingham C     14.530000    eV*Ang^6  
--------------------------------------------------------------------------------
Na   c Na   s Spring (c-s)  Spring k 2       96.440000    eV*Ang^-2 0.000  0.800
                            Spring k 4       0.0000000    eV*Ang^-4 
--------------------------------------------------------------------------------
Cl   c Cl   s Spring (c-s)  Spring k 2       29.380000    eV*Ang^-2 0.000  0.800
                            Spring k 4       0.0000000    eV*Ang^-4 
--------------------------------------------------------------------------------

********************************************************************************
*  Output for configuration   1 : NaCl                                         *
********************************************************************************


  Components of energy : 

--------------------------------------------------------------------------------
  Interatomic potentials     =           0.91447856 eV    
  Monopole - monopole (real) =          -0.72412017 eV    
  Monopole - monopole (recip)=          -8.29865070 eV    
  Monopole - monopole (total)=          -9.02277087 eV    
--------------------------------------------------------------------------------
  Total lattice energy : 
    Primitive unit cell      =          -8.10829230 eV    
    Non-primitive unit cell  =         -32.43316921 eV    
--------------------------------------------------------------------------------
  Total lattice energy (in kJmol-1): 
    Primitive unit cell      =            -782.3263 kJ/(mole unit cells)
    Non-primitive unit cell  =           -3129.3050 kJ/(mole unit cells)
--------------------------------------------------------------------------------


  Number of variables =        1

  Maximum number of calculations  =          1000
  Maximum Hessian update interval =            10
  Maximum step size               =   1.000000000
  Maximum parameter tolerance     =   0.000010000
  Maximum function  tolerance     =   0.000010000
  Maximum gradient  tolerance     =   0.001000000
  Maximum gradient  component     =   0.010000000

  Symmetry constrained optimisation

  Symmetry used for second derivatives

  Cell parameters to be optimised using strains

  Newton-Raphson optimiser to be used

  BFGS hessian update to be used

  Lower half triangular hessian to be used

  Start of bulk optimisation :

  Cycle:      0 Energy:        -8.108292  Gnorm:      0.062231  CPU:    0.009
  ** Hessian calculated **
  Cycle:      1 Energy:        -8.108320  Gnorm:      0.000040  CPU:    0.013


  **** Optimisation achieved ****


  Final energy =      -8.10831952 eV
  Final Gnorm  =       0.00000017

  Components of energy : 

--------------------------------------------------------------------------------
  Interatomic potentials     =           0.90655178 eV    
  Monopole - monopole (real) =          -0.72348619 eV    
  Monopole - monopole (recip)=          -8.29138511 eV    
  Monopole - monopole (total)=          -9.01487130 eV    
--------------------------------------------------------------------------------
  Total lattice energy : 
    Primitive unit cell      =          -8.10831952 eV    
    Non-primitive unit cell  =         -32.43327809 eV    
--------------------------------------------------------------------------------
  Total lattice energy (in kJmol-1): 
    Primitive unit cell      =            -782.3289 kJ/(mole unit cells)
    Non-primitive unit cell  =           -3129.3155 kJ/(mole unit cells)
--------------------------------------------------------------------------------

  Final asymmetric unit coordinates :

--------------------------------------------------------------------------------
   No.  Atomic        x           y           z         Radius
        Label       (Frac)      (Frac)      (Frac)       (Angs) 
--------------------------------------------------------------------------------
     1  Na    c     0.000000    0.000000    0.000000    0.000000
     2  Cl    c     0.500000    0.000000    0.000000    0.000000
     3  Na    s     0.000000    0.000000    0.000000    0.000000
     4  Cl    s     0.500000    0.000000    0.000000    0.000000
--------------------------------------------------------------------------------

  Final Cartesian lattice vectors (Angstroms) :

        0.000000    2.791444    2.791444
        2.791444    0.000000    2.791444
        2.791444    2.791444    0.000000


  Final cell parameters and derivatives :

--------------------------------------------------------------------------------
       a            3.947698 Angstrom     dE/de1(xx)    -0.000000 eV/strain
       b            3.947698 Angstrom     dE/de2(yy)     0.000000 eV/strain
       c            3.947698 Angstrom     dE/de3(zz)     0.000000 eV/strain
       alpha       60.000000 Degrees      dE/de4(yz)     0.000000 eV/strain
       beta        60.000000 Degrees      dE/de5(xz)     0.000000 eV/strain
       gamma       60.000000 Degrees      dE/de6(xy)     0.000000 eV/strain
--------------------------------------------------------------------------------

  Primitive cell volume =            43.502752 Angs**3

  Density of cell =      2.230743 g/cm**3

  Non-primitive lattice parameters :

  a    =     5.582888  b   =     5.582888  c    =     5.582888
  alpha=    90.000000  beta=    90.000000  gamma=    90.000000

  Non-primitive cell volume =           174.011008 Angs**3


  Final internal derivatives :

--------------------------------------------------------------------------------
   No.  Atomic          a             b             c           Radius
        Label          (eV)          (eV)          (eV)        (eV/Angs)
--------------------------------------------------------------------------------
      1 Na    c       0.000000      0.000000      0.000000      0.000000
      2 Cl    c       0.000000      0.000000      0.000000      0.000000
      3 Na    s       0.000000      0.000000      0.000000      0.000000
      4 Cl    s       0.000000      0.000000      0.000000      0.000000
--------------------------------------------------------------------------------
  Maximum abs         0.000000      0.000000      0.000000      0.000000
--------------------------------------------------------------------------------


  Born effective charge tensors : 

-------------------------------------------------------------------------------
  Atom             x           y             z
-------------------------------------------------------------------------------
    1 Na    x       1.0608      0.0000      0.0000
            y       0.0000      1.0608      0.0000
            z       0.0000      0.0000      1.0608
-------------------------------------------------------------------------------
    2 Cl    x      -1.0608     -0.0000     -0.0000
            y      -0.0000     -1.0608     -0.0000
            z      -0.0000     -0.0000     -1.0608
-------------------------------------------------------------------------------




  Elastic Constant Matrix: (Units=GPa)

-------------------------------------------------------------------------------
  Indices      1         2         3         4         5         6    
-------------------------------------------------------------------------------
       1     58.2962   14.2997   14.2997   -0.0000    0.0000   -0.0000
       2     14.2997   58.2962   14.2997    0.0000    0.0000   -0.0000
       3     14.2997   14.2997   58.2962    0.0000    0.0000   -0.0000
       4     -0.0000    0.0000    0.0000   14.2997    0.0000   -0.0000
       5      0.0000    0.0000    0.0000    0.0000   14.2997   -0.0000
       6     -0.0000   -0.0000   -0.0000   -0.0000   -0.0000   14.2997
-------------------------------------------------------------------------------


  Elastic Compliance Matrix: (Units=1/GPa)

-------------------------------------------------------------------------------
  Indices      1         2         3         4         5         6    
-------------------------------------------------------------------------------
       1    0.018989 -0.003740 -0.003740  0.000000 -0.000000 -0.000000
       2   -0.003740  0.018989 -0.003740 -0.000000 -0.000000  0.000000
       3   -0.003740 -0.003740  0.018989 -0.000000 -0.000000  0.000000
       4    0.000000 -0.000000 -0.000000  0.069931 -0.000000  0.000000
       5   -0.000000 -0.000000 -0.000000 -0.000000  0.069931  0.000000
       6   -0.000000  0.000000  0.000000  0.000000  0.000000  0.069931
-------------------------------------------------------------------------------

  Mechanical properties :

-------------------------------------------------------------------------------
  Convention :                    Reuss         Voigt         Hill
-------------------------------------------------------------------------------
  Bulk  Modulus (GPa)     =      28.96523      28.96523      28.96523
  Shear Modulus (GPa)     =      16.62729      17.37914      17.00321
-------------------------------------------------------------------------------
  Velocity S-wave (km/s)  =       2.73015       2.79119       2.76084
  Velocity P-wave (km/s)  =       4.78778       4.83448       4.81119
-------------------------------------------------------------------------------
  Compressibility (1/GPa) =    0.03452416
-------------------------------------------------------------------------------
  Stress axis :                     x             y             z
-------------------------------------------------------------------------------
  Youngs Moduli (GPa)     =      52.66277      52.66277      52.66277
-------------------------------------------------------------------------------
  Poissons Ratio (x)      =                     0.19698       0.19698
  Poissons Ratio (y)      =       0.19698                     0.19698
  Poissons Ratio (z)      =       0.19698       0.19698
-------------------------------------------------------------------------------


  Piezoelectric Strain Matrix: (Units=C/m**2)

-------------------------------------------------------------------------------
  Indices      1         2         3         4         5         6    
-------------------------------------------------------------------------------
       x    -0.00000  -0.00000  -0.00000  -0.00000  -0.00000  -0.00000
       y    -0.00000   0.00000  -0.00000  -0.00000  -0.00000  -0.00000
       z    -0.00000  -0.00000   0.00000  -0.00000  -0.00000  -0.00000
-------------------------------------------------------------------------------


  Piezoelectric Stress Matrix: (Units=10**-11 C/N)

-------------------------------------------------------------------------------
  Indices      1         2         3         4         5         6    
-------------------------------------------------------------------------------
       x    -0.00000  -0.00000  -0.00000  -0.00000  -0.00000  -0.00000
       y    -0.00000   0.00000  -0.00000  -0.00000  -0.00000  -0.00000
       z    -0.00000  -0.00000   0.00000  -0.00000  -0.00000  -0.00000
-------------------------------------------------------------------------------


  Static dielectric constant tensor : 

-------------------------------------------------------------------------------
              x         y         z
-------------------------------------------------------------------------------
       x     5.49480   0.00000   0.00000
       y     0.00000   5.49480  -0.00000
       z     0.00000  -0.00000   5.49480
--------------------------------------------------------------------------------

  High frequency dielectric constant tensor : 

-------------------------------------------------------------------------------
              x         y         z
-------------------------------------------------------------------------------
       x     2.38570  -0.00000   0.00000
       y    -0.00000   2.38570   0.00000
       z     0.00000   0.00000   2.38570
-------------------------------------------------------------------------------

  Static refractive indices : 

-------------------------------------------------------------------------------
    1 =    2.34410      2 =    2.34410      3 =    2.34410
-------------------------------------------------------------------------------

  High frequency refractive indices : 

-------------------------------------------------------------------------------
    1 =    1.54457      2 =    1.54457      3 =    1.54457
-------------------------------------------------------------------------------


  Time to end of optimisation =       0.0185 seconds

********************************************************************************
*  Defect calculation for configuration   1 :                                  *
********************************************************************************

  Total number of defects =      1

  Total charge on defect  =   1.00

  Defect centre is at   0.5000   0.0000   0.0000  Frac

  Region 1 radius =  10.0000      Number of ions =    356

  Number of symmetry inequivalent region 1 ions  =     24

  Region 2 radius =  20.0000      Number of ions =   2744

  Number of symmetry inequivalent region 2a ions =    100

  Region 2a mode = 4 : screened electrostatics due to region 1 
                       neglect correction to region 1 forces from 2a
                       region 2a displacements based on defects only

  Region 2a ions will only interact with defects in region 1

  Vacancies:

--------------------------------------------------------------------------------
    Specification type     Symbol/Number         x          y          z
--------------------------------------------------------------------------------
    Fractional                               0.500000   0.000000   0.000000
--------------------------------------------------------------------------------


  Symmetry reduced region 1 (Relative to defect centre) :

--------------------------------------------------------------------------------
   No.   Atomic       x            y             z       Radius  Multiplicity   
         Label      (Angs)       (Angs)        (Angs)    (Angs)     
--------------------------------------------------------------------------------
     1  Na    c      0.0000       0.0000      -2.7914 *  0.0000     6          
     2  Cl    c      2.7914 *     2.7914       0.0000    0.0000    12          
     3  Na    c      2.7914 *     2.7914      -2.7914    0.0000     8          
     4  Cl    c      0.0000       0.0000       5.5829 *  0.0000     6          
     5  Na    c      5.5829 *     2.7914 *     0.0000    0.0000    24          
     6  Cl    c      2.7914 *    -2.7914       5.5829 *  0.0000    24          
     7  Cl    c      5.5829 *     5.5829       0.0000    0.0000    12          
     8  Na    c      5.5829 *     5.5829      -2.7914 *  0.0000    24          
     9  Na    c      0.0000       0.0000       8.3743 *  0.0000     6          
    10  Cl    c      2.7914 *     0.0000       8.3743 *  0.0000    24          
    11  Na    c      8.3743 *     2.7914 *     2.7914    0.0000    24          
    12  Cl    c      5.5829 *     5.5829       5.5829    0.0000     8          
    13  Na    s      0.0000       0.0000      -2.7914 *  0.0000     6          
    14  Cl    s      2.7914 *     2.7914       0.0000    0.0000    12          
    15  Na    s      2.7914 *     2.7914      -2.7914    0.0000     8          
    16  Cl    s      0.0000       0.0000       5.5829 *  0.0000     6          
    17  Na    s      5.5829 *     2.7914 *     0.0000    0.0000    24          
    18  Cl    s      2.7914 *    -2.7914       5.5829 *  0.0000    24          
    19  Cl    s      5.5829 *     5.5829       0.0000    0.0000    12          
    20  Na    s      5.5829 *     5.5829      -2.7914 *  0.0000    24          
    21  Na    s      0.0000       0.0000       8.3743 *  0.0000     6          
    22  Cl    s      2.7914 *     0.0000       8.3743 *  0.0000    24          
    23  Na    s      8.3743 *     2.7914 *     2.7914    0.0000    24          
    24  Cl    s      5.5829 *     5.5829       5.5829    0.0000     8          
--------------------------------------------------------------------------------


  Constraints on symmetry reduced coordinates :

--------------------------------------------------------------------------------
  Constraint no.      Unconstrained     Constrained    Coefficient    
                         Variable         Variable
--------------------------------------------------------------------------------
           1                 2 x             2 y         1.00000
           2                 3 x             3 y         1.00000
           3                 3 x             3 z        -1.00000
           4                 6 x             6 y        -1.00000
           5                 7 x             7 y         1.00000
           6                 8 x             8 y         1.00000
           7                11 y            11 z         1.00000
           8                12 x            12 y         1.00000
           9                12 x            12 z         1.00000
          10                14 x            14 y         1.00000
          11                15 x            15 y         1.00000
          12                15 x            15 z        -1.00000
          13                18 x            18 y        -1.00000
          14                19 x            19 y         1.00000
          15                20 x            20 y         1.00000
          16                23 y            23 z         1.00000
          17                24 x            24 y         1.00000
          18                24 x            24 z         1.00000
--------------------------------------------------------------------------------


  Components of defect energy : 

--------------------------------------------------------------------------------
  Region 1 - region 1                   =     15.37724644 eV
  Region 1 - region 2a (unrelaxed)      =     -7.30313263 eV
  Region 1 - 2a (relaxed - correction)  =     -0.61963802 eV
  Region 1 (Total)                      =      7.45447580 eV
  Region 2a                             =      0.30990408 eV
  Region 2b                             =     -0.29417619 eV
--------------------------------------------------------------------------------
  Total defect energy                   =      7.47020368 eV
--------------------------------------------------------------------------------

  Largest displacement in region 2 =   0.0115 Angstroms


  Number of variables =       34

  Maximum number of calculations  =        1000
  Maximum Hessian update interval =          10
  Maximum step size               =   1.0000000
  Maximum parameter tolerance     =   0.0000100
  Maximum function  tolerance     =   0.0000100
  Maximum gradient  tolerance     =   0.0010000

  Symmetry adapted optimisation

  Symmetry to be used for second derivatives

  Newton-Raphson optimiser to be used

  BFGS hessian update to be used

  Lower half triangular hessian to be used

  Start of defect optimisation :

  Cycle:      0 Defect Energy:   7.470204  Gnorm:     2.063185  CPU:    0.191
  ** Hessian calculated **
  Cycle:      1 Defect Energy:   5.197539  Gnorm:     0.072670  CPU:    0.290
  Cycle:      2 Defect Energy:   5.182454  Gnorm:     0.051456  CPU:    0.310
  Cycle:      3 Defect Energy:   5.178411  Gnorm:     0.034341  CPU:    0.330
  Cycle:      4 Defect Energy:   5.176458  Gnorm:     0.024328  CPU:    0.349
  Cycle:      5 Defect Energy:   5.175519  Gnorm:     0.016979  CPU:    0.369
  Cycle:      6 Defect Energy:   5.175064  Gnorm:     0.011901  CPU:    0.389
  Cycle:      7 Defect Energy:   5.174846  Gnorm:     0.008330  CPU:    0.409
  Cycle:      8 Defect Energy:   5.174742  Gnorm:     0.005833  CPU:    0.429
  Cycle:      9 Defect Energy:   5.174694  Gnorm:     0.004083  CPU:    0.448
  Cycle:     10 Defect Energy:   5.174672  Gnorm:     0.002859  CPU:    0.468
  ** Hessian calculated **
  Cycle:     11 Defect Energy:   5.174662  Gnorm:     0.002001  CPU:    0.511
  Cycle:     12 Defect Energy:   5.174658  Gnorm:     0.001401  CPU:    0.531
  Cycle:     13 Defect Energy:   5.174657  Gnorm:     0.000981  CPU:    0.551
  Cycle:     14 Defect Energy:   5.174657  Gnorm:     0.000686  CPU:    0.570


  **** Optimisation achieved ****


  Final defect energy  =        5.17465689
  Final defect Gnorm   =        0.00048050

  Components of defect energy : 

--------------------------------------------------------------------------------
  Region 1 - region 1                   =     12.54353515 eV
  Region 1 - region 2a (unrelaxed)      =     -6.79932543 eV
  Region 1 - 2a (relaxed - correction)  =     -0.55065550 eV
  Region 1 (Total)                      =      5.19355422 eV
  Region 2a                             =      0.27527886 eV
  Region 2b                             =     -0.29417619 eV
--------------------------------------------------------------------------------
  Total defect energy                   =      5.17465689 eV
--------------------------------------------------------------------------------

  Largest displacement in region 2 =   0.0115 Angstroms

  Final coordinates of region 1 :

--------------------------------------------------------------------------------
   No.  Atomic        x           y           z          Radius      Charge
        Label       (Angs)      (Angs)      (Angs)       (Angs)       (e) 
--------------------------------------------------------------------------------
     1  Na    c     2.791444    0.000000   -3.036534    0.000000   -1.128000
     2  Na    c     5.827978    0.000000    0.000000    0.000000   -1.128000
     3  Na    c     2.791444   -3.036534    0.000000    0.000000   -1.128000
     4  Na    c     2.791444    3.036534    0.000000    0.000000   -1.128000
     5  Na    c    -0.245091    0.000000    0.000000    0.000000   -1.128000
     6  Na    c     2.791444    0.000000    3.036534    0.000000   -1.128000
     7  Cl    c     5.512255    2.720812    0.000000    0.000000    1.485000
     8  Cl    c     0.070632   -2.720812    0.000000    0.000000    1.485000
     9  Cl    c     5.512255    0.000000    2.720812    0.000000    1.485000
    10  Cl    c     2.791444   -2.720812    2.720812    0.000000    1.485000
    11  Cl    c     0.070632    0.000000   -2.720812    0.000000    1.485000
    12  Cl    c     2.791444    2.720812   -2.720812    0.000000    1.485000
    13  Cl    c     2.791444    2.720812    2.720812    0.000000    1.485000
    14  Cl    c     0.070632    0.000000    2.720812    0.000000    1.485000
    15  Cl    c     0.070632    2.720812    0.000000    0.000000    1.485000
    16  Cl    c     2.791444   -2.720812   -2.720812    0.000000    1.485000
    17  Cl    c     5.512255    0.000000   -2.720812    0.000000    1.485000
    18  Cl    c     5.512255   -2.720812    0.000000    0.000000    1.485000
    19  Na    c     5.593647    2.802203   -2.802203    0.000000   -1.128000
    20  Na    c    -0.010760   -2.802203   -2.802203    0.000000   -1.128000
    21  Na    c     5.593647   -2.802203    2.802203    0.000000   -1.128000
    22  Na    c     5.593647    2.802203    2.802203    0.000000   -1.128000
    23  Na    c    -0.010760   -2.802203    2.802203    0.000000   -1.128000
    24  Na    c    -0.010760    2.802203   -2.802203    0.000000   -1.128000
    25  Na    c    -0.010760    2.802203    2.802203    0.000000   -1.128000
    26  Na    c     5.593647   -2.802203   -2.802203    0.000000   -1.128000
    27  Cl    c     2.791444    0.000000    5.668385    0.000000    1.485000
    28  Cl    c     2.791444    5.668385    0.000000    0.000000    1.485000
    29  Cl    c    -2.876941    0.000000    0.000000    0.000000    1.485000
    30  Cl    c     8.459829    0.000000    0.000000    0.000000    1.485000
    31  Cl    c     2.791444   -5.668385    0.000000    0.000000    1.485000
    32  Cl    c     2.791444    0.000000   -5.668385    0.000000    1.485000
    33  Na    c     8.405921    2.807515    0.000000    0.000000   -1.128000
    34  Na    c    -0.016071   -5.614477    0.000000    0.000000   -1.128000
    35  Na    c     8.405921    0.000000    2.807515    0.000000   -1.128000
    36  Na    c     2.791444   -5.614477    2.807515    0.000000   -1.128000
    37  Na    c    -0.016071    0.000000   -5.614477    0.000000   -1.128000
    38  Na    c     2.791444    2.807515   -5.614477    0.000000   -1.128000
    39  Na    c     5.598959    5.614477    0.000000    0.000000   -1.128000
    40  Na    c    -2.823034   -2.807515    0.000000    0.000000   -1.128000
    41  Na    c     5.598959    0.000000    5.614477    0.000000   -1.128000
    42  Na    c     2.791444   -2.807515    5.614477    0.000000   -1.128000
    43  Na    c     2.791444    5.614477   -2.807515    0.000000   -1.128000
    44  Na    c    -2.823034    0.000000   -2.807515    0.000000   -1.128000
    45  Na    c     2.791444    5.614477    2.807515    0.000000   -1.128000
    46  Na    c    -2.823034    0.000000    2.807515    0.000000   -1.128000
    47  Na    c     2.791444    2.807515    5.614477    0.000000   -1.128000
    48  Na    c    -0.016071    0.000000    5.614477    0.000000   -1.128000
    49  Na    c    -0.016071    5.614477    0.000000    0.000000   -1.128000
    50  Na    c    -2.823034    2.807515    0.000000    0.000000   -1.128000
    51  Na    c     2.791444   -2.807515   -5.614477    0.000000   -1.128000
    52  Na    c     5.598959    0.000000   -5.614477    0.000000   -1.128000
    53  Na    c     8.405921    0.000000   -2.807515    0.000000   -1.128000
    54  Na    c     2.791444   -5.614477   -2.807515    0.000000   -1.128000
    55  Na    c     8.405921   -2.807515    0.000000    0.000000   -1.128000
    56  Na    c     5.598959   -5.614477    0.000000    0.000000   -1.128000
    57  Cl    c     5.570185   -2.778741    5.570210    0.000000    1.485000
    58  Cl    c     0.012703    2.778741   -5.570210    0.000000    1.485000
    59  Cl    c     5.570185    2.778741    5.570210    0.000000    1.485000
    60  Cl    c     0.012703   -2.778741    5.570210    0.000000    1.485000
    61  Cl    c     0.012703    2.778741    5.570210    0.000000    1.485000
    62  Cl    c     0.012703   -2.778741   -5.570210    0.000000    1.485000
    63  Cl    c     5.570185    2.778741   -5.570210    0.000000    1.485000
    64  Cl    c     5.570185   -2.778741   -5.570210    0.000000    1.485000
    65  Cl    c     8.361654    2.778741    2.778741    0.000000    1.485000
    66  Cl    c     0.012703   -5.570210    2.778741    0.000000    1.485000
    67  Cl    c     5.570185    5.570210   -2.778741    0.000000    1.485000
    68  Cl    c    -2.778766   -2.778741   -2.778741    0.000000    1.485000
    69  Cl    c     5.570185    5.570210    2.778741    0.000000    1.485000
    70  Cl    c    -2.778766   -2.778741    2.778741    0.000000    1.485000
    71  Cl    c    -2.778766    2.778741   -2.778741    0.000000    1.485000
    72  Cl    c     0.012703    5.570210   -2.778741    0.000000    1.485000
    73  Cl    c     0.012703    5.570210    2.778741    0.000000    1.485000
    74  Cl    c    -2.778766    2.778741    2.778741    0.000000    1.485000
    75  Cl    c     8.361654    2.778741   -2.778741    0.000000    1.485000
    76  Cl    c     0.012703   -5.570210   -2.778741    0.000000    1.485000
    77  Cl    c     8.361654   -2.778741    2.778741    0.000000    1.485000
    78  Cl    c     5.570185   -5.570210    2.778741    0.000000    1.485000
    79  Cl    c     5.570185   -5.570210   -2.778741    0.000000    1.485000
    80  Cl    c     8.361654   -2.778741   -2.778741    0.000000    1.485000
    81  Cl    c     8.359784    5.568340    0.000000    0.000000    1.485000
    82  Cl    c    -2.776896   -5.568340    0.000000    0.000000    1.485000
    83  Cl    c     8.359784    0.000000    5.568340    0.000000    1.485000
    84  Cl    c     2.791444   -5.568340    5.568340    0.000000    1.485000
    85  Cl    c    -2.776896    0.000000   -5.568340    0.000000    1.485000
    86  Cl    c     2.791444    5.568340   -5.568340    0.000000    1.485000
    87  Cl    c     2.791444    5.568340    5.568340    0.000000    1.485000
    88  Cl    c    -2.776896    0.000000    5.568340    0.000000    1.485000
    89  Cl    c    -2.776896    5.568340    0.000000    0.000000    1.485000
    90  Cl    c     2.791444   -5.568340   -5.568340    0.000000    1.485000
    91  Cl    c     8.359784    0.000000   -5.568340    0.000000    1.485000
    92  Cl    c     8.359784   -5.568340    0.000000    0.000000    1.485000
    93  Na    c     8.383598    5.592154   -2.798070    0.000000   -1.128000
    94  Na    c    -2.800710   -5.592154   -2.798070    0.000000   -1.128000
    95  Na    c     8.383598    5.592154    2.798070    0.000000   -1.128000
    96  Na    c    -2.800710   -5.592154    2.798070    0.000000   -1.128000
    97  Na    c    -2.800710    5.592154   -2.798070    0.000000   -1.128000
    98  Na    c    -2.800710    5.592154    2.798070    0.000000   -1.128000
    99  Na    c     8.383598   -5.592154    2.798070    0.000000   -1.128000
   100  Na    c     8.383598   -5.592154   -2.798070    0.000000   -1.128000
   101  Na    c     8.383598   -2.798070    5.592154    0.000000   -1.128000
   102  Na    c     5.589514   -5.592154    5.592154    0.000000   -1.128000
   103  Na    c     5.589514    5.592154   -5.592154    0.000000   -1.128000
   104  Na    c    -2.800710   -2.798070   -5.592154    0.000000   -1.128000
   105  Na    c     8.383598    2.798070    5.592154    0.000000   -1.128000
   106  Na    c    -0.006626   -5.592154    5.592154    0.000000   -1.128000
   107  Na    c    -2.800710    2.798070   -5.592154    0.000000   -1.128000
   108  Na    c    -0.006626    5.592154   -5.592154    0.000000   -1.128000
   109  Na    c     5.589514    5.592154    5.592154    0.000000   -1.128000
   110  Na    c    -2.800710   -2.798070    5.592154    0.000000   -1.128000
   111  Na    c    -0.006626    5.592154    5.592154    0.000000   -1.128000
   112  Na    c    -2.800710    2.798070    5.592154    0.000000   -1.128000
   113  Na    c     8.383598    2.798070   -5.592154    0.000000   -1.128000
   114  Na    c    -0.006626   -5.592154   -5.592154    0.000000   -1.128000
   115  Na    c     5.589514   -5.592154   -5.592154    0.000000   -1.128000
   116  Na    c     8.383598   -2.798070   -5.592154    0.000000   -1.128000
   117  Na    c     2.791444    0.000000    8.423050    0.000000   -1.128000
   118  Na    c     2.791444    8.423050    0.000000    0.000000   -1.128000
   119  Na    c    -5.631607    0.000000    0.000000    0.000000   -1.128000
   120  Na    c    11.214494    0.000000    0.000000    0.000000   -1.128000
   121  Na    c     2.791444   -8.423050    0.000000    0.000000   -1.128000
   122  Na    c     2.791444    0.000000   -8.423050    0.000000   -1.128000
   123  Cl    c     5.582600    0.000000    8.371868    0.000000    1.485000
   124  Cl    c     2.791444   -2.791156    8.371868    0.000000    1.485000
   125  Cl    c     5.582600    8.371868    0.000000    0.000000    1.485000
   126  Cl    c    -5.580425   -2.791156    0.000000    0.000000    1.485000
   127  Cl    c     2.791444    8.371868   -2.791156    0.000000    1.485000
   128  Cl    c    -5.580425    0.000000   -2.791156    0.000000    1.485000
   129  Cl    c     2.791444    2.791156    8.371868    0.000000    1.485000
   130  Cl    c     0.000288    0.000000    8.371868    0.000000    1.485000
   131  Cl    c     2.791444    8.371868    2.791156    0.000000    1.485000
   132  Cl    c    -5.580425    0.000000    2.791156    0.000000    1.485000
   133  Cl    c     0.000288    8.371868    0.000000    0.000000    1.485000
   134  Cl    c    -5.580425    2.791156    0.000000    0.000000    1.485000
   135  Cl    c    11.163312    2.791156    0.000000    0.000000    1.485000
   136  Cl    c     0.000288   -8.371868    0.000000    0.000000    1.485000
   137  Cl    c    11.163312    0.000000    2.791156    0.000000    1.485000
   138  Cl    c     2.791444   -8.371868    2.791156    0.000000    1.485000
   139  Cl    c     0.000288    0.000000   -8.371868    0.000000    1.485000
   140  Cl    c     2.791444    2.791156   -8.371868    0.000000    1.485000
   141  Cl    c    11.163312    0.000000   -2.791156    0.000000    1.485000
   142  Cl    c     2.791444   -8.371868   -2.791156    0.000000    1.485000
   143  Cl    c    11.163312   -2.791156    0.000000    0.000000    1.485000
   144  Cl    c     5.582600   -8.371868    0.000000    0.000000    1.485000
   145  Cl    c     2.791444   -2.791156   -8.371868    0.000000    1.485000
   146  Cl    c     5.582600    0.000000   -8.371868    0.000000    1.485000
   147  Na    c    11.188345    2.798306    2.798306    0.000000   -1.128000
   148  Na    c    -0.006862   -8.396901    2.798306    0.000000   -1.128000
   149  Na    c     5.589750    8.396901   -2.798306    0.000000   -1.128000
   150  Na    c    -5.605457   -2.798306   -2.798306    0.000000   -1.128000
   151  Na    c     5.589750    8.396901    2.798306    0.000000   -1.128000
   152  Na    c    -5.605457   -2.798306    2.798306    0.000000   -1.128000
   153  Na    c    -0.006862    8.396901   -2.798306    0.000000   -1.128000
   154  Na    c    -5.605457    2.798306   -2.798306    0.000000   -1.128000
   155  Na    c    -0.006862    8.396901    2.798306    0.000000   -1.128000
   156  Na    c    -5.605457    2.798306    2.798306    0.000000   -1.128000
   157  Na    c    11.188345    2.798306   -2.798306    0.000000   -1.128000
   158  Na    c    -0.006862   -8.396901   -2.798306    0.000000   -1.128000
   159  Na    c    11.188345   -2.798306    2.798306    0.000000   -1.128000
   160  Na    c     5.589750   -8.396901    2.798306    0.000000   -1.128000
   161  Na    c    11.188345   -2.798306   -2.798306    0.000000   -1.128000
   162  Na    c     5.589750   -8.396901   -2.798306    0.000000   -1.128000
   163  Na    c    -0.006862    2.798306   -8.396901    0.000000   -1.128000
   164  Na    c     5.589750   -2.798306    8.396901    0.000000   -1.128000
   165  Na    c     5.589750    2.798306    8.396901    0.000000   -1.128000
   166  Na    c    -0.006862   -2.798306    8.396901    0.000000   -1.128000
   167  Na    c    -0.006862    2.798306    8.396901    0.000000   -1.128000
   168  Na    c    -0.006862   -2.798306   -8.396901    0.000000   -1.128000
   169  Na    c     5.589750    2.798306   -8.396901    0.000000   -1.128000
   170  Na    c     5.589750   -2.798306   -8.396901    0.000000   -1.128000
   171  Cl    c     8.360816    5.569372    5.569372    0.000000    1.485000
   172  Cl    c    -2.777929   -5.569372    5.569372    0.000000    1.485000
   173  Cl    c    -2.777929    5.569372   -5.569372    0.000000    1.485000
   174  Cl    c    -2.777929    5.569372    5.569372    0.000000    1.485000
   175  Cl    c     8.360816   -5.569372    5.569372    0.000000    1.485000
   176  Cl    c     8.360816    5.569372   -5.569372    0.000000    1.485000
   177  Cl    c    -2.777929   -5.569372   -5.569372    0.000000    1.485000
   178  Cl    c     8.360816   -5.569372   -5.569372    0.000000    1.485000
   179  Na    s     2.791444    0.000000   -3.044878    0.000000    2.128000
   180  Na    s     5.836322    0.000000    0.000000    0.000000    2.128000
   181  Na    s     2.791444   -3.044878    0.000000    0.000000    2.128000
   182  Na    s     2.791444    3.044878    0.000000    0.000000    2.128000
   183  Na    s    -0.253435    0.000000    0.000000    0.000000    2.128000
   184  Na    s     2.791444    0.000000    3.044878    0.000000    2.128000
   185  Cl    s     5.503644    2.712200    0.000000    0.000000   -2.485000
   186  Cl    s     0.079243   -2.712200    0.000000    0.000000   -2.485000
   187  Cl    s     5.503644    0.000000    2.712200    0.000000   -2.485000
   188  Cl    s     2.791444   -2.712200    2.712200    0.000000   -2.485000
   189  Cl    s     0.079243    0.000000   -2.712200    0.000000   -2.485000
   190  Cl    s     2.791444    2.712200   -2.712200    0.000000   -2.485000
   191  Cl    s     2.791444    2.712200    2.712200    0.000000   -2.485000
   192  Cl    s     0.079243    0.000000    2.712200    0.000000   -2.485000
   193  Cl    s     0.079243    2.712200    0.000000    0.000000   -2.485000
   194  Cl    s     2.791444   -2.712200   -2.712200    0.000000   -2.485000
   195  Cl    s     5.503644    0.000000   -2.712200    0.000000   -2.485000
   196  Cl    s     5.503644   -2.712200    0.000000    0.000000   -2.485000
   197  Na    s     5.594065    2.802621   -2.802621    0.000000    2.128000
   198  Na    s    -0.011177   -2.802621   -2.802621    0.000000    2.128000
   199  Na    s     5.594065   -2.802621    2.802621    0.000000    2.128000
   200  Na    s     5.594065    2.802621    2.802621    0.000000    2.128000
   201  Na    s    -0.011177   -2.802621    2.802621    0.000000    2.128000
   202  Na    s    -0.011177    2.802621   -2.802621    0.000000    2.128000
   203  Na    s    -0.011177    2.802621    2.802621    0.000000    2.128000
   204  Na    s     5.594065   -2.802621   -2.802621    0.000000    2.128000
   205  Cl    s     2.791444    0.000000    5.645385    0.000000   -2.485000
   206  Cl    s     2.791444    5.645385    0.000000    0.000000   -2.485000
   207  Cl    s    -2.853941    0.000000    0.000000    0.000000   -2.485000
   208  Cl    s     8.436829    0.000000    0.000000    0.000000   -2.485000
   209  Cl    s     2.791444   -5.645385    0.000000    0.000000   -2.485000
   210  Cl    s     2.791444    0.000000   -5.645385    0.000000   -2.485000
   211  Na    s     8.408580    2.808337    0.000000    0.000000    2.128000
   212  Na    s    -0.016893   -5.617136    0.000000    0.000000    2.128000
   213  Na    s     8.408580    0.000000    2.808337    0.000000    2.128000
   214  Na    s     2.791444   -5.617136    2.808337    0.000000    2.128000
   215  Na    s    -0.016893    0.000000   -5.617136    0.000000    2.128000
   216  Na    s     2.791444    2.808337   -5.617136    0.000000    2.128000
   217  Na    s     5.599781    5.617136    0.000000    0.000000    2.128000
   218  Na    s    -2.825692   -2.808337    0.000000    0.000000    2.128000
   219  Na    s     5.599781    0.000000    5.617136    0.000000    2.128000
   220  Na    s     2.791444   -2.808337    5.617136    0.000000    2.128000
   221  Na    s     2.791444    5.617136   -2.808337    0.000000    2.128000
   222  Na    s    -2.825692    0.000000   -2.808337    0.000000    2.128000
   223  Na    s     2.791444    5.617136    2.808337    0.000000    2.128000
   224  Na    s    -2.825692    0.000000    2.808337    0.000000    2.128000
   225  Na    s     2.791444    2.808337    5.617136    0.000000    2.128000
   226  Na    s    -0.016893    0.000000    5.617136    0.000000    2.128000
   227  Na    s    -0.016893    5.617136    0.000000    0.000000    2.128000
   228  Na    s    -2.825692    2.808337    0.000000    0.000000    2.128000
   229  Na    s     2.791444   -2.808337   -5.617136    0.000000    2.128000
   230  Na    s     5.599781    0.000000   -5.617136    0.000000    2.128000
   231  Na    s     8.408580    0.000000   -2.808337    0.000000    2.128000
   232  Na    s     2.791444   -5.617136   -2.808337    0.000000    2.128000
   233  Na    s     8.408580   -2.808337    0.000000    0.000000    2.128000
   234  Na    s     5.599781   -5.617136    0.000000    0.000000    2.128000
   235  Cl    s     5.567519   -2.776075    5.565446    0.000000   -2.485000
   236  Cl    s     0.015369    2.776075   -5.565446    0.000000   -2.485000
   237  Cl    s     5.567519    2.776075    5.565446    0.000000   -2.485000
   238  Cl    s     0.015369   -2.776075    5.565446    0.000000   -2.485000
   239  Cl    s     0.015369    2.776075    5.565446    0.000000   -2.485000
   240  Cl    s     0.015369   -2.776075   -5.565446    0.000000   -2.485000
   241  Cl    s     5.567519    2.776075   -5.565446    0.000000   -2.485000
   242  Cl    s     5.567519   -2.776075   -5.565446    0.000000   -2.485000
   243  Cl    s     8.356890    2.776075    2.776075    0.000000   -2.485000
   244  Cl    s     0.015369   -5.565446    2.776075    0.000000   -2.485000
   245  Cl    s     5.567519    5.565446   -2.776075    0.000000   -2.485000
   246  Cl    s    -2.774002   -2.776075   -2.776075    0.000000   -2.485000
   247  Cl    s     5.567519    5.565446    2.776075    0.000000   -2.485000
   248  Cl    s    -2.774002   -2.776075    2.776075    0.000000   -2.485000
   249  Cl    s    -2.774002    2.776075   -2.776075    0.000000   -2.485000
   250  Cl    s     0.015369    5.565446   -2.776075    0.000000   -2.485000
   251  Cl    s     0.015369    5.565446    2.776075    0.000000   -2.485000
   252  Cl    s    -2.774002    2.776075    2.776075    0.000000   -2.485000
   253  Cl    s     8.356890    2.776075   -2.776075    0.000000   -2.485000
   254  Cl    s     0.015369   -5.565446   -2.776075    0.000000   -2.485000
   255  Cl    s     8.356890   -2.776075    2.776075    0.000000   -2.485000
   256  Cl    s     5.567519   -5.565446    2.776075    0.000000   -2.485000
   257  Cl    s     5.567519   -5.565446   -2.776075    0.000000   -2.485000
   258  Cl    s     8.356890   -2.776075   -2.776075    0.000000   -2.485000
   259  Cl    s     8.356008    5.564564    0.000000    0.000000   -2.485000
   260  Cl    s    -2.773120   -5.564564    0.000000    0.000000   -2.485000
   261  Cl    s     8.356008    0.000000    5.564564    0.000000   -2.485000
   262  Cl    s     2.791444   -5.564564    5.564564    0.000000   -2.485000
   263  Cl    s    -2.773120    0.000000   -5.564564    0.000000   -2.485000
   264  Cl    s     2.791444    5.564564   -5.564564    0.000000   -2.485000
   265  Cl    s     2.791444    5.564564    5.564564    0.000000   -2.485000
   266  Cl    s    -2.773120    0.000000    5.564564    0.000000   -2.485000
   267  Cl    s    -2.773120    5.564564    0.000000    0.000000   -2.485000
   268  Cl    s     2.791444   -5.564564   -5.564564    0.000000   -2.485000
   269  Cl    s     8.356008    0.000000   -5.564564    0.000000   -2.485000
   270  Cl    s     8.356008   -5.564564    0.000000    0.000000   -2.485000
   271  Na    s     8.384128    5.592684   -2.798625    0.000000    2.128000
   272  Na    s    -2.801240   -5.592684   -2.798625    0.000000    2.128000
   273  Na    s     8.384128    5.592684    2.798625    0.000000    2.128000
   274  Na    s    -2.801240   -5.592684    2.798625    0.000000    2.128000
   275  Na    s    -2.801240    5.592684   -2.798625    0.000000    2.128000
   276  Na    s    -2.801240    5.592684    2.798625    0.000000    2.128000
   277  Na    s     8.384128   -5.592684    2.798625    0.000000    2.128000
   278  Na    s     8.384128   -5.592684   -2.798625    0.000000    2.128000
   279  Na    s     8.384128   -2.798625    5.592684    0.000000    2.128000
   280  Na    s     5.590069   -5.592684    5.592684    0.000000    2.128000
   281  Na    s     5.590069    5.592684   -5.592684    0.000000    2.128000
   282  Na    s    -2.801240   -2.798625   -5.592684    0.000000    2.128000
   283  Na    s     8.384128    2.798625    5.592684    0.000000    2.128000
   284  Na    s    -0.007181   -5.592684    5.592684    0.000000    2.128000
   285  Na    s    -2.801240    2.798625   -5.592684    0.000000    2.128000
   286  Na    s    -0.007181    5.592684   -5.592684    0.000000    2.128000
   287  Na    s     5.590069    5.592684    5.592684    0.000000    2.128000
   288  Na    s    -2.801240   -2.798625    5.592684    0.000000    2.128000
   289  Na    s    -0.007181    5.592684    5.592684    0.000000    2.128000
   290  Na    s    -2.801240    2.798625    5.592684    0.000000    2.128000
   291  Na    s     8.384128    2.798625   -5.592684    0.000000    2.128000
   292  Na    s    -0.007181   -5.592684   -5.592684    0.000000    2.128000
   293  Na    s     5.590069   -5.592684   -5.592684    0.000000    2.128000
   294  Na    s     8.384128   -2.798625   -5.592684    0.000000    2.128000
   295  Na    s     2.791444    0.000000    8.423398    0.000000    2.128000
   296  Na    s     2.791444    8.423398    0.000000    0.000000    2.128000
   297  Na    s    -5.631954    0.000000    0.000000    0.000000    2.128000
   298  Na    s    11.214842    0.000000    0.000000    0.000000    2.128000
   299  Na    s     2.791444   -8.423398    0.000000    0.000000    2.128000
   300  Na    s     2.791444    0.000000   -8.423398    0.000000    2.128000
   301  Cl    s     5.582859    0.000000    8.368388    0.000000   -2.485000
   302  Cl    s     2.791444   -2.791415    8.368388    0.000000   -2.485000
   303  Cl    s     5.582859    8.368388    0.000000    0.000000   -2.485000
   304  Cl    s    -5.576944   -2.791415    0.000000    0.000000   -2.485000
   305  Cl    s     2.791444    8.368388   -2.791415    0.000000   -2.485000
   306  Cl    s    -5.576944    0.000000   -2.791415    0.000000   -2.485000
   307  Cl    s     2.791444    2.791415    8.368388    0.000000   -2.485000
   308  Cl    s     0.000029    0.000000    8.368388    0.000000   -2.485000
   309  Cl    s     2.791444    8.368388    2.791415    0.000000   -2.485000
   310  Cl    s    -5.576944    0.000000    2.791415    0.000000   -2.485000
   311  Cl    s     0.000029    8.368388    0.000000    0.000000   -2.485000
   312  Cl    s    -5.576944    2.791415    0.000000    0.000000   -2.485000
   313  Cl    s    11.159832    2.791415    0.000000    0.000000   -2.485000
   314  Cl    s     0.000029   -8.368388    0.000000    0.000000   -2.485000
   315  Cl    s    11.159832    0.000000    2.791415    0.000000   -2.485000
   316  Cl    s     2.791444   -8.368388    2.791415    0.000000   -2.485000
   317  Cl    s     0.000029    0.000000   -8.368388    0.000000   -2.485000
   318  Cl    s     2.791444    2.791415   -8.368388    0.000000   -2.485000
   319  Cl    s    11.159832    0.000000   -2.791415    0.000000   -2.485000
   320  Cl    s     2.791444   -8.368388   -2.791415    0.000000   -2.485000
   321  Cl    s    11.159832   -2.791415    0.000000    0.000000   -2.485000
   322  Cl    s     5.582859   -8.368388    0.000000    0.000000   -2.485000
   323  Cl    s     2.791444   -2.791415   -8.368388    0.000000   -2.485000
   324  Cl    s     5.582859    0.000000   -8.368388    0.000000   -2.485000
   325  Na    s    11.189456    2.798517    2.798517    0.000000    2.128000
   326  Na    s    -0.007073   -8.398012    2.798517    0.000000    2.128000
   327  Na    s     5.589961    8.398012   -2.798517    0.000000    2.128000
   328  Na    s    -5.606568   -2.798517   -2.798517    0.000000    2.128000
   329  Na    s     5.589961    8.398012    2.798517    0.000000    2.128000
   330  Na    s    -5.606568   -2.798517    2.798517    0.000000    2.128000
   331  Na    s    -0.007073    8.398012   -2.798517    0.000000    2.128000
   332  Na    s    -5.606568    2.798517   -2.798517    0.000000    2.128000
   333  Na    s    -0.007073    8.398012    2.798517    0.000000    2.128000
   334  Na    s    -5.606568    2.798517    2.798517    0.000000    2.128000
   335  Na    s    11.189456    2.798517   -2.798517    0.000000    2.128000
   336  Na    s    -0.007073   -8.398012   -2.798517    0.000000    2.128000
   337  Na    s    11.189456   -2.798517    2.798517    0.000000    2.128000
   338  Na    s     5.589961   -8.398012    2.798517    0.000000    2.128000
   339  Na    s    11.189456   -2.798517   -2.798517    0.000000    2.128000
   340  Na    s     5.589961   -8.398012   -2.798517    0.000000    2.128000
   341  Na    s    -0.007073    2.798517   -8.398012    0.000000    2.128000
   342  Na    s     5.589961   -2.798517    8.398012    0.000000    2.128000
   343  Na    s     5.589961    2.798517    8.398012    0.000000    2.128000
   344  Na    s    -0.007073   -2.798517    8.398012    0.000000    2.128000
   345  Na    s    -0.007073    2.798517    8.398012    0.000000    2.128000
   346  Na    s    -0.007073   -2.798517   -8.398012    0.000000    2.128000
   347  Na    s     5.589961    2.798517   -8.398012    0.000000    2.128000
   348  Na    s     5.589961   -2.798517   -8.398012    0.000000    2.128000
   349  Cl    s     8.357850    5.566406    5.566406    0.000000   -2.485000
   350  Cl    s    -2.774962   -5.566406    5.566406    0.000000   -2.485000
   351  Cl    s    -2.774962    5.566406   -5.566406    0.000000   -2.485000
   352  Cl    s    -2.774962    5.566406    5.566406    0.000000   -2.485000
   353  Cl    s     8.357850   -5.566406    5.566406    0.000000   -2.485000
   354  Cl    s     8.357850    5.566406   -5.566406    0.000000   -2.485000
   355  Cl    s    -2.774962   -5.566406   -5.566406    0.000000   -2.485000
   356  Cl    s     8.357850   -5.566406   -5.566406    0.000000   -2.485000
--------------------------------------------------------------------------------

  Final coordinates of symmetry reduced region 1 (relative to defect centre):

--------------------------------------------------------------------------------
   No.  Atomic        x           y           z          Charge
        Label       (Angs)      (Angs)      (Angs)         (e) 
--------------------------------------------------------------------------------
     1  Na    c     0.000000    0.000000   -3.036534   -1.128000
     2  Cl    c     2.720812    2.720812    0.000000    1.485000
     3  Na    c     2.802203    2.802203   -2.802203   -1.128000
     4  Cl    c     0.000000    0.000000    5.668385    1.485000
     5  Na    c     5.614477    2.807515    0.000000   -1.128000
     6  Cl    c     2.778741   -2.778741    5.570210    1.485000
     7  Cl    c     5.568340    5.568340    0.000000    1.485000
     8  Na    c     5.592154    5.592154   -2.798070   -1.128000
     9  Na    c     0.000000    0.000000    8.423050   -1.128000
    10  Cl    c     2.791156    0.000000    8.371868    1.485000
    11  Na    c     8.396901    2.798306    2.798306   -1.128000
    12  Cl    c     5.569372    5.569372    5.569372    1.485000
    13  Na    s     0.000000    0.000000   -3.044878    2.128000
    14  Cl    s     2.712200    2.712200    0.000000   -2.485000
    15  Na    s     2.802621    2.802621   -2.802621    2.128000
    16  Cl    s     0.000000    0.000000    5.645385   -2.485000
    17  Na    s     5.617136    2.808337    0.000000    2.128000
    18  Cl    s     2.776075   -2.776075    5.565446   -2.485000
    19  Cl    s     5.564564    5.564564    0.000000   -2.485000
    20  Na    s     5.592684    5.592684   -2.798625    2.128000
    21  Na    s     0.000000    0.000000    8.423398    2.128000
    22  Cl    s     2.791415    0.000000    8.368388   -2.485000
    23  Na    s     8.398012    2.798517    2.798517    2.128000
    24  Cl    s     5.566406    5.566406    5.566406   -2.485000
--------------------------------------------------------------------------------


  Final derivatives for region 1 :

--------------------------------------------------------------------------------
   No.  Atomic          x             y             z            Radius
        Label       (eV/Angs)     (eV/Angs)     (eV/Angs)       (eV/Angs)
--------------------------------------------------------------------------------
     1  Na    c       0.000000      0.000000     -0.003510      0.000000
     2  Cl    c       0.009818      0.000000      0.000000      0.000000
     3  Na    c       0.001821      0.000000      0.000000      0.000000
     4  Cl    c       0.000000      0.000000     -0.002733      0.000000
     5  Na    c      -0.000217      0.002819      0.000000      0.000000
     6  Cl    c      -0.001479      0.000000     -0.000495      0.000000
     7  Cl    c      -0.000032      0.000000      0.000000      0.000000
     8  Na    c       0.000974      0.000000     -0.000380      0.000000
     9  Na    c       0.000000      0.000000      0.000499      0.000000
    10  Cl    c      -0.000377      0.000000     -0.001271      0.000000
    11  Na    c       0.000573      0.000979      0.000000      0.000000
    12  Cl    c      -0.000195      0.000000      0.000000      0.000000
    13  Na    s       0.000000      0.000000      0.002692      0.000000
    14  Cl    s      -0.007932      0.000000      0.000000      0.000000
    15  Na    s      -0.002264      0.000000      0.000000      0.000000
    16  Cl    s       0.000000      0.000000     -0.000940      0.000000
    17  Na    s      -0.004016     -0.004148      0.000000      0.000000
    18  Cl    s       0.002914      0.000000      0.001075      0.000000
    19  Cl    s      -0.000235      0.000000      0.000000      0.000000
    20  Na    s      -0.002200      0.000000      0.000369      0.000000
    21  Na    s       0.000000      0.000000     -0.000717      0.000000
    22  Cl    s       0.000744      0.000000      0.001430      0.000000
    23  Na    s      -0.001540     -0.001678      0.000000      0.000000
    24  Cl    s       0.000259      0.000000      0.000000      0.000000
--------------------------------------------------------------------------------


  Time to end of optimisation  =        0.5914 seconds


  Peak dynamic memory used =      23.28 MB 


  Timing analysis for GULP :

--------------------------------------------------------------------------------
  Task / Subroutine                                          Time (Seconds)
--------------------------------------------------------------------------------
  Calculation of reciprocal space energy and derivatives          0.0002
  Calculation of reciprocal space energy using symmetry           0.0003
  Calculation of real space energy and derivatives                0.0016
  Calculation of real space energy using symmetry                 0.0083
  Calculation for region 1 energy and derivatives (2-b)           0.2788
  Calculation for region 2a energy                                0.2495
  Calculation and manipulation of Hessian matrix                  0.0062
  Symmetry generation of equivalent positions                     0.0025
--------------------------------------------------------------------------------
  Total CPU time                                                  0.5914
--------------------------------------------------------------------------------


  Dump file written as NaCl.grs


  Job Finished at 14:20.22  2nd October    2020                               

