********************************************************************************
*                       GENERAL UTILITY LATTICE PROGRAM                        *
*                                 Julian Gale                                  *
*                       Curtin Institute for Computation                       *
*                    School of Molecular and Life Sciences                     *
*                    Curtin University, Western Australia                      *
********************************************************************************
* Version = 5.2.0 * Last modified =  10th September 2020                       *
********************************************************************************
* Na vacancy in NaCl                                                           *
*  optimise     - perform optimisation run                                     *
*  conp         - constant pressure calculation                                *
*  property     - calculate properties for final geometry                      *
*  defect       - perform defect calculation after bulk run                    *
********************************************************************************
* Na vacancy in NaCl                                                           *
********************************************************************************


  Job Started  at 13:28.49  2nd October    2020                               

  Number of CPUs =     1


  Total number of configurations input =      1

********************************************************************************
*  Input for Configuration =   1 : NaCl                                        *
********************************************************************************

  Formula = NaCl                                                        

  Number of irreducible atoms/shells =       4


  Total number atoms/shells =       4

  Dimensionality = 3               :  Bulk   


  Symmetry :

  Crystal family                   :  Cubic       
  Crystal class  (Groth - 1921)    :  Cubic Hexakisoctahedral              

  Space group (centrosymmetric)    :  F M 3 M         

  Patterson group                  :  F m -3 m 

  Cartesian lattice vectors (Angstroms) :

        0.000000    2.789000    2.789000
        2.789000    0.000000    2.789000
        2.789000    2.789000    0.000000

  Primitive cell parameters :            Full cell parameters :

  a =   3.9442    alpha =  60.0000       a =   5.5780    alpha =  90.0000
  b =   3.9442    beta  =  60.0000       b =   5.5780    beta  =  90.0000
  c =   3.9442    gamma =  60.0000       c =   5.5780    gamma =  90.0000

  Initial volumes (Angstroms**3):

  Primitive cell =          43.388590    Full cell =         173.554361

  Temperature of configuration =   0.00     K 

  Pressure of configuration =         0.000 GPa 

  Fractional coordinates of asymmetric unit :

--------------------------------------------------------------------------------
   No.  Atomic       x           y          z         Charge      Occupancy
        Label      (Frac)      (Frac)     (Frac)        (e)         (Frac)  
--------------------------------------------------------------------------------
      1 Na    c    0.000000    0.000000    0.000000    -1.12800    1.000000    
      2 Cl    c    0.500000    0.000000    0.000000     1.48500    1.000000    
      3 Na    s    0.000000    0.000000    0.000000     2.12800    1.000000    
      4 Cl    s    0.500000    0.000000    0.000000    -2.48500    1.000000    
--------------------------------------------------------------------------------


  Constraints : 

--------------------------------------------------------------------------------
  Constraint no.      Unconstrained     Constrained    Coefficient    Offset
                         Variable         Variable
--------------------------------------------------------------------------------
           1              Strain 1        Strain 2       1.00000      0.0000
           2              Strain 1        Strain 3       1.00000      0.0000
--------------------------------------------------------------------------------


********************************************************************************
*  General input information                                                   *
********************************************************************************

  Species output for all configurations : 

--------------------------------------------------------------------------------
  Species    Type    Atomic    Atomic    Charge       Radii (Angs)     Library
                     Number     Mass       (e)     Cova   Ionic  VDW   Symbol
--------------------------------------------------------------------------------
    Na       Core       11      22.99  -1.128000   0.970  0.000  2.300          
    Na       Shell      11       0.00   2.128000   0.970  0.000  2.300          
    Cl       Core       17      35.45   1.485000   0.990  0.000  1.650          
    Cl       Shell      17       0.00  -2.485000   0.990  0.000  1.650          
--------------------------------------------------------------------------------


  Lattice summation method               =    Ewald          (3-D)
                                         =    Parry          (2-D)
                                         =    Saunders et al (1-D)
  Accuracy factor for lattice sums       =   12.000


  Analytic derivatives to be used

  Time limit = Infinity

  Maximum range for interatomic potentials =    100000.000000 Angstroms

  General interatomic potentials :

--------------------------------------------------------------------------------
Atom  Types   Potential      Parameter       Value         Units   Cutoffs(Ang)
  1     2                                                            Min /  Max 
--------------------------------------------------------------------------------
Na   s Na   s Buckingham    Buckingham A     7895.0000    eV        0.000 12.000
                            Buckingham rho  0.17090000    Ang       
                            Buckingham C     14.530000    eV*Ang^6  
--------------------------------------------------------------------------------
Na   s Cl   s Buckingham    Buckingham A     2314.7000    eV        0.000 12.000
                            Buckingham rho  0.29030000    Ang       
                            Buckingham C     0.0000000    eV*Ang^6  
--------------------------------------------------------------------------------
Cl   s Cl   s Buckingham    Buckingham A     1227.2000    eV        0.000 12.000
                            Buckingham rho  0.32140000    Ang       
                            Buckingham C     14.530000    eV*Ang^6  
--------------------------------------------------------------------------------
Na   c Na   s Spring (c-s)  Spring k 2       96.440000    eV*Ang^-2 0.000  0.800
                            Spring k 4       0.0000000    eV*Ang^-4 
--------------------------------------------------------------------------------
Cl   c Cl   s Spring (c-s)  Spring k 2       29.380000    eV*Ang^-2 0.000  0.800
                            Spring k 4       0.0000000    eV*Ang^-4 
--------------------------------------------------------------------------------

********************************************************************************
*  Output for configuration   1 : NaCl                                         *
********************************************************************************


  Components of energy : 

--------------------------------------------------------------------------------
  Interatomic potentials     =           0.91447856 eV    
  Monopole - monopole (real) =          -0.72412017 eV    
  Monopole - monopole (recip)=          -8.29865070 eV    
  Monopole - monopole (total)=          -9.02277087 eV    
--------------------------------------------------------------------------------
  Total lattice energy : 
    Primitive unit cell      =          -8.10829230 eV    
    Non-primitive unit cell  =         -32.43316921 eV    
--------------------------------------------------------------------------------
  Total lattice energy (in kJmol-1): 
    Primitive unit cell      =            -782.3263 kJ/(mole unit cells)
    Non-primitive unit cell  =           -3129.3050 kJ/(mole unit cells)
--------------------------------------------------------------------------------


  Number of variables =        1

  Maximum number of calculations  =          1000
  Maximum Hessian update interval =            10
  Maximum step size               =   1.000000000
  Maximum parameter tolerance     =   0.000010000
  Maximum function  tolerance     =   0.000010000
  Maximum gradient  tolerance     =   0.001000000
  Maximum gradient  component     =   0.010000000

  Symmetry constrained optimisation

  Symmetry used for second derivatives

  Cell parameters to be optimised using strains

  Newton-Raphson optimiser to be used

  BFGS hessian update to be used

  Lower half triangular hessian to be used

  Start of bulk optimisation :

  Cycle:      0 Energy:        -8.108292  Gnorm:      0.062231  CPU:    0.031
  ** Hessian calculated **
  Cycle:      1 Energy:        -8.108320  Gnorm:      0.000040  CPU:    0.037


  **** Optimisation achieved ****


  Final energy =      -8.10831952 eV
  Final Gnorm  =       0.00000017

  Components of energy : 

--------------------------------------------------------------------------------
  Interatomic potentials     =           0.90655178 eV    
  Monopole - monopole (real) =          -0.72348619 eV    
  Monopole - monopole (recip)=          -8.29138511 eV    
  Monopole - monopole (total)=          -9.01487130 eV    
--------------------------------------------------------------------------------
  Total lattice energy : 
    Primitive unit cell      =          -8.10831952 eV    
    Non-primitive unit cell  =         -32.43327809 eV    
--------------------------------------------------------------------------------
  Total lattice energy (in kJmol-1): 
    Primitive unit cell      =            -782.3289 kJ/(mole unit cells)
    Non-primitive unit cell  =           -3129.3155 kJ/(mole unit cells)
--------------------------------------------------------------------------------

  Final asymmetric unit coordinates :

--------------------------------------------------------------------------------
   No.  Atomic        x           y           z         Radius
        Label       (Frac)      (Frac)      (Frac)       (Angs) 
--------------------------------------------------------------------------------
     1  Na    c     0.000000    0.000000    0.000000    0.000000
     2  Cl    c     0.500000    0.000000    0.000000    0.000000
     3  Na    s     0.000000    0.000000    0.000000    0.000000
     4  Cl    s     0.500000    0.000000    0.000000    0.000000
--------------------------------------------------------------------------------

  Final Cartesian lattice vectors (Angstroms) :

        0.000000    2.791444    2.791444
        2.791444    0.000000    2.791444
        2.791444    2.791444    0.000000


  Final cell parameters and derivatives :

--------------------------------------------------------------------------------
       a            3.947698 Angstrom     dE/de1(xx)    -0.000000 eV/strain
       b            3.947698 Angstrom     dE/de2(yy)     0.000000 eV/strain
       c            3.947698 Angstrom     dE/de3(zz)     0.000000 eV/strain
       alpha       60.000000 Degrees      dE/de4(yz)     0.000000 eV/strain
       beta        60.000000 Degrees      dE/de5(xz)     0.000000 eV/strain
       gamma       60.000000 Degrees      dE/de6(xy)     0.000000 eV/strain
--------------------------------------------------------------------------------

  Primitive cell volume =            43.502752 Angs**3

  Density of cell =      2.230743 g/cm**3

  Non-primitive lattice parameters :

  a    =     5.582888  b   =     5.582888  c    =     5.582888
  alpha=    90.000000  beta=    90.000000  gamma=    90.000000

  Non-primitive cell volume =           174.011008 Angs**3


  Final internal derivatives :

--------------------------------------------------------------------------------
   No.  Atomic          a             b             c           Radius
        Label          (eV)          (eV)          (eV)        (eV/Angs)
--------------------------------------------------------------------------------
      1 Na    c       0.000000      0.000000      0.000000      0.000000
      2 Cl    c       0.000000      0.000000      0.000000      0.000000
      3 Na    s       0.000000      0.000000      0.000000      0.000000
      4 Cl    s       0.000000      0.000000      0.000000      0.000000
--------------------------------------------------------------------------------
  Maximum abs         0.000000      0.000000      0.000000      0.000000
--------------------------------------------------------------------------------


  Born effective charge tensors : 

-------------------------------------------------------------------------------
  Atom             x           y             z
-------------------------------------------------------------------------------
    1 Na    x       1.0608      0.0000      0.0000
            y       0.0000      1.0608      0.0000
            z       0.0000      0.0000      1.0608
-------------------------------------------------------------------------------
    2 Cl    x      -1.0608     -0.0000     -0.0000
            y      -0.0000     -1.0608     -0.0000
            z      -0.0000     -0.0000     -1.0608
-------------------------------------------------------------------------------




  Elastic Constant Matrix: (Units=GPa)

-------------------------------------------------------------------------------
  Indices      1         2         3         4         5         6    
-------------------------------------------------------------------------------
       1     58.2962   14.2997   14.2997   -0.0000    0.0000   -0.0000
       2     14.2997   58.2962   14.2997    0.0000    0.0000   -0.0000
       3     14.2997   14.2997   58.2962    0.0000    0.0000   -0.0000
       4     -0.0000    0.0000    0.0000   14.2997    0.0000   -0.0000
       5      0.0000    0.0000    0.0000    0.0000   14.2997   -0.0000
       6     -0.0000   -0.0000   -0.0000   -0.0000   -0.0000   14.2997
-------------------------------------------------------------------------------


  Elastic Compliance Matrix: (Units=1/GPa)

-------------------------------------------------------------------------------
  Indices      1         2         3         4         5         6    
-------------------------------------------------------------------------------
       1    0.018989 -0.003740 -0.003740  0.000000 -0.000000 -0.000000
       2   -0.003740  0.018989 -0.003740 -0.000000 -0.000000  0.000000
       3   -0.003740 -0.003740  0.018989 -0.000000 -0.000000  0.000000
       4    0.000000 -0.000000 -0.000000  0.069931 -0.000000  0.000000
       5   -0.000000 -0.000000 -0.000000 -0.000000  0.069931  0.000000
       6   -0.000000  0.000000  0.000000  0.000000  0.000000  0.069931
-------------------------------------------------------------------------------

  Mechanical properties :

-------------------------------------------------------------------------------
  Convention :                    Reuss         Voigt         Hill
-------------------------------------------------------------------------------
  Bulk  Modulus (GPa)     =      28.96523      28.96523      28.96523
  Shear Modulus (GPa)     =      16.62729      17.37914      17.00321
-------------------------------------------------------------------------------
  Velocity S-wave (km/s)  =       2.73015       2.79119       2.76084
  Velocity P-wave (km/s)  =       4.78778       4.83448       4.81119
-------------------------------------------------------------------------------
  Compressibility (1/GPa) =    0.03452416
-------------------------------------------------------------------------------
  Stress axis :                     x             y             z
-------------------------------------------------------------------------------
  Youngs Moduli (GPa)     =      52.66277      52.66277      52.66277
-------------------------------------------------------------------------------
  Poissons Ratio (x)      =                     0.19698       0.19698
  Poissons Ratio (y)      =       0.19698                     0.19698
  Poissons Ratio (z)      =       0.19698       0.19698
-------------------------------------------------------------------------------


  Piezoelectric Strain Matrix: (Units=C/m**2)

-------------------------------------------------------------------------------
  Indices      1         2         3         4         5         6    
-------------------------------------------------------------------------------
       x    -0.00000  -0.00000  -0.00000  -0.00000  -0.00000  -0.00000
       y    -0.00000   0.00000  -0.00000  -0.00000  -0.00000  -0.00000
       z    -0.00000  -0.00000   0.00000  -0.00000  -0.00000  -0.00000
-------------------------------------------------------------------------------


  Piezoelectric Stress Matrix: (Units=10**-11 C/N)

-------------------------------------------------------------------------------
  Indices      1         2         3         4         5         6    
-------------------------------------------------------------------------------
       x    -0.00000  -0.00000  -0.00000  -0.00000  -0.00000  -0.00000
       y    -0.00000   0.00000  -0.00000  -0.00000  -0.00000  -0.00000
       z    -0.00000  -0.00000   0.00000  -0.00000  -0.00000  -0.00000
-------------------------------------------------------------------------------


  Static dielectric constant tensor : 

-------------------------------------------------------------------------------
              x         y         z
-------------------------------------------------------------------------------
       x     5.49480   0.00000   0.00000
       y     0.00000   5.49480  -0.00000
       z     0.00000  -0.00000   5.49480
--------------------------------------------------------------------------------

  High frequency dielectric constant tensor : 

-------------------------------------------------------------------------------
              x         y         z
-------------------------------------------------------------------------------
       x     2.38570  -0.00000   0.00000
       y    -0.00000   2.38570   0.00000
       z     0.00000   0.00000   2.38570
-------------------------------------------------------------------------------

  Static refractive indices : 

-------------------------------------------------------------------------------
    1 =    2.34410      2 =    2.34410      3 =    2.34410
-------------------------------------------------------------------------------

  High frequency refractive indices : 

-------------------------------------------------------------------------------
    1 =    1.54457      2 =    1.54457      3 =    1.54457
-------------------------------------------------------------------------------


  Time to end of optimisation =       0.0433 seconds

********************************************************************************
*  Defect calculation for configuration   1 :                                  *
********************************************************************************

  Total number of defects =      1

  Total charge on defect  =  -1.00

  Defect centre is at   0.0000   0.0000   0.0000  Frac

  Region 1 radius =  10.0000      Number of ions =    356

  Number of symmetry inequivalent region 1 ions  =     24

  Region 2 radius =  20.0000      Number of ions =   2744

  Number of symmetry inequivalent region 2a ions =    100

  Region 2a mode = 4 : screened electrostatics due to region 1 
                       neglect correction to region 1 forces from 2a
                       region 2a displacements based on defects only

  Region 2a ions will only interact with defects in region 1

  Vacancies:

--------------------------------------------------------------------------------
    Specification type     Symbol/Number         x          y          z
--------------------------------------------------------------------------------
    Fractional                               0.000000   0.000000   0.000000
--------------------------------------------------------------------------------


  Symmetry reduced region 1 (Relative to defect centre) :

--------------------------------------------------------------------------------
   No.   Atomic       x            y             z       Radius  Multiplicity   
         Label      (Angs)       (Angs)        (Angs)    (Angs)     
--------------------------------------------------------------------------------
     1  Cl    c     -2.7914 *     0.0000       0.0000    0.0000     6          
     2  Na    c      2.7914 *     2.7914       0.0000    0.0000    12          
     3  Cl    c      2.7914 *     2.7914       2.7914    0.0000     8          
     4  Na    c      0.0000       0.0000       5.5829 *  0.0000     6          
     5  Cl    c      2.7914 *     5.5829 *     0.0000    0.0000    24          
     6  Na    c      2.7914 *    -2.7914       5.5829 *  0.0000    24          
     7  Na    c      5.5829 *     5.5829       0.0000    0.0000    12          
     8  Cl    c      5.5829 *     5.5829       2.7914 *  0.0000    24          
     9  Cl    c      0.0000       0.0000       8.3743 *  0.0000     6          
    10  Na    c      2.7914 *     0.0000       8.3743 *  0.0000    24          
    11  Cl    c      2.7914 *     8.3743 *    -2.7914    0.0000    24          
    12  Na    c      5.5829 *     5.5829       5.5829    0.0000     8          
    13  Cl    s     -2.7914 *     0.0000       0.0000    0.0000     6          
    14  Na    s      2.7914 *     2.7914       0.0000    0.0000    12          
    15  Cl    s      2.7914 *     2.7914       2.7914    0.0000     8          
    16  Na    s      0.0000       0.0000       5.5829 *  0.0000     6          
    17  Cl    s      2.7914 *     5.5829 *     0.0000    0.0000    24          
    18  Na    s      2.7914 *    -2.7914       5.5829 *  0.0000    24          
    19  Na    s      5.5829 *     5.5829       0.0000    0.0000    12          
    20  Cl    s      5.5829 *     5.5829       2.7914 *  0.0000    24          
    21  Cl    s      0.0000       0.0000       8.3743 *  0.0000     6          
    22  Na    s      2.7914 *     0.0000       8.3743 *  0.0000    24          
    23  Cl    s      2.7914 *     8.3743 *    -2.7914    0.0000    24          
    24  Na    s      5.5829 *     5.5829       5.5829    0.0000     8          
--------------------------------------------------------------------------------


  Constraints on symmetry reduced coordinates :

--------------------------------------------------------------------------------
  Constraint no.      Unconstrained     Constrained    Coefficient    
                         Variable         Variable
--------------------------------------------------------------------------------
           1                 2 x             2 y         1.00000
           2                 3 x             3 y         1.00000
           3                 3 x             3 z         1.00000
           4                 6 x             6 y        -1.00000
           5                 7 x             7 y         1.00000
           6                 8 x             8 y         1.00000
           7                11 x            11 z        -1.00000
           8                12 x            12 y         1.00000
           9                12 x            12 z         1.00000
          10                14 x            14 y         1.00000
          11                15 x            15 y         1.00000
          12                15 x            15 z         1.00000
          13                18 x            18 y        -1.00000
          14                19 x            19 y         1.00000
          15                20 x            20 y         1.00000
          16                23 x            23 z        -1.00000
          17                24 x            24 y         1.00000
          18                24 x            24 z         1.00000
--------------------------------------------------------------------------------


  Components of defect energy : 

--------------------------------------------------------------------------------
  Region 1 - region 1                   =     15.44565785 eV
  Region 1 - region 2a (unrelaxed)      =     -7.30313262 eV
  Region 1 - 2a (relaxed - correction)  =     -0.61575031 eV
  Region 1 (Total)                      =      7.52677492 eV
  Region 2a                             =      0.30780173 eV
  Region 2b                             =     -0.29363827 eV
--------------------------------------------------------------------------------
  Total defect energy                   =      7.54093838 eV
--------------------------------------------------------------------------------

  Largest displacement in region 2 =   0.0124 Angstroms


  Number of variables =       34

  Maximum number of calculations  =        1000
  Maximum Hessian update interval =          10
  Maximum step size               =   1.0000000
  Maximum parameter tolerance     =   0.0000100
  Maximum function  tolerance     =   0.0000100
  Maximum gradient  tolerance     =   0.0010000

  Symmetry adapted optimisation

  Symmetry to be used for second derivatives

  Newton-Raphson optimiser to be used

  BFGS hessian update to be used

  Lower half triangular hessian to be used

  Start of defect optimisation :

  Cycle:      0 Defect Energy:   7.540938  Gnorm:     2.039593  CPU:    0.204
  ** Hessian calculated **
  Cycle:      1 Defect Energy:   5.224497  Gnorm:     0.067471  CPU:    0.295
  Cycle:      2 Defect Energy:   5.212409  Gnorm:     0.046705  CPU:    0.313
  Cycle:      3 Defect Energy:   5.207947  Gnorm:     0.030718  CPU:    0.332
  Cycle:      4 Defect Energy:   5.205825  Gnorm:     0.021844  CPU:    0.350
  Cycle:      5 Defect Energy:   5.204778  Gnorm:     0.015191  CPU:    0.369
  Cycle:      6 Defect Energy:   5.204245  Gnorm:     0.010662  CPU:    0.388
  Cycle:      7 Defect Energy:   5.204088  Gnorm:     0.007459  CPU:    0.407
  Cycle:      8 Defect Energy:   5.203944  Gnorm:     0.005224  CPU:    0.425
  Cycle:      9 Defect Energy:   5.203866  Gnorm:     0.003657  CPU:    0.444
  Cycle:     10 Defect Energy:   5.203823  Gnorm:     0.002560  CPU:    0.462
  ** Hessian calculated **
  Cycle:     11 Defect Energy:   5.203799  Gnorm:     0.001792  CPU:    0.502
  Cycle:     12 Defect Energy:   5.203784  Gnorm:     0.001255  CPU:    0.521
  Cycle:     13 Defect Energy:   5.203776  Gnorm:     0.000878  CPU:    0.539
  Cycle:     14 Defect Energy:   5.203770  Gnorm:     0.000615  CPU:    0.559


  **** Optimisation achieved ****


  Final defect energy  =        5.20376680
  Final defect Gnorm   =        0.00043033

  Components of defect energy : 

--------------------------------------------------------------------------------
  Region 1 - region 1                   =     12.74830634 eV
  Region 1 - region 2a (unrelaxed)      =     -6.97693417 eV
  Region 1 - 2a (relaxed - correction)  =     -0.54793911 eV
  Region 1 (Total)                      =      5.22343306 eV
  Region 2a                             =      0.27397201 eV
  Region 2b                             =     -0.29363827 eV
--------------------------------------------------------------------------------
  Total defect energy                   =      5.20376680 eV
--------------------------------------------------------------------------------

  Largest displacement in region 2 =   0.0124 Angstroms

  Final coordinates of region 1 :

--------------------------------------------------------------------------------
   No.  Atomic        x           y           z          Radius      Charge
        Label       (Angs)      (Angs)      (Angs)       (Angs)       (e) 
--------------------------------------------------------------------------------
     1  Cl    c    -2.954728    0.000000    0.000000    0.000000    1.485000
     2  Cl    c     0.000000    2.954728    0.000000    0.000000    1.485000
     3  Cl    c     0.000000    0.000000    2.954728    0.000000    1.485000
     4  Cl    c     0.000000    0.000000   -2.954728    0.000000    1.485000
     5  Cl    c     0.000000   -2.954728    0.000000    0.000000    1.485000
     6  Cl    c     2.954728    0.000000    0.000000    0.000000    1.485000
     7  Na    c     2.718432    2.718432    0.000000    0.000000   -1.128000
     8  Na    c    -2.718432   -2.718432    0.000000    0.000000   -1.128000
     9  Na    c     2.718432    0.000000    2.718432    0.000000   -1.128000
    10  Na    c     0.000000   -2.718432    2.718432    0.000000   -1.128000
    11  Na    c    -2.718432    0.000000   -2.718432    0.000000   -1.128000
    12  Na    c     0.000000    2.718432   -2.718432    0.000000   -1.128000
    13  Na    c     0.000000    2.718432    2.718432    0.000000   -1.128000
    14  Na    c    -2.718432    0.000000    2.718432    0.000000   -1.128000
    15  Na    c    -2.718432    2.718432    0.000000    0.000000   -1.128000
    16  Na    c     0.000000   -2.718432   -2.718432    0.000000   -1.128000
    17  Na    c     2.718432    0.000000   -2.718432    0.000000   -1.128000
    18  Na    c     2.718432   -2.718432    0.000000    0.000000   -1.128000
    19  Cl    c     2.803270    2.803270    2.803270    0.000000    1.485000
    20  Cl    c    -2.803270   -2.803270    2.803270    0.000000    1.485000
    21  Cl    c    -2.803270    2.803270   -2.803270    0.000000    1.485000
    22  Cl    c    -2.803270    2.803270    2.803270    0.000000    1.485000
    23  Cl    c    -2.803270   -2.803270   -2.803270    0.000000    1.485000
    24  Cl    c     2.803270    2.803270   -2.803270    0.000000    1.485000
    25  Cl    c     2.803270   -2.803270    2.803270    0.000000    1.485000
    26  Cl    c     2.803270   -2.803270   -2.803270    0.000000    1.485000
    27  Na    c     0.000000    0.000000    5.612880    0.000000   -1.128000
    28  Na    c     0.000000    5.612880    0.000000    0.000000   -1.128000
    29  Na    c    -5.612880    0.000000    0.000000    0.000000   -1.128000
    30  Na    c     5.612880    0.000000    0.000000    0.000000   -1.128000
    31  Na    c     0.000000   -5.612880    0.000000    0.000000   -1.128000
    32  Na    c     0.000000    0.000000   -5.612880    0.000000   -1.128000
    33  Cl    c     2.809313    5.601617    0.000000    0.000000    1.485000
    34  Cl    c    -5.601617   -2.809313    0.000000    0.000000    1.485000
    35  Cl    c     2.809313    0.000000    5.601617    0.000000    1.485000
    36  Cl    c     0.000000   -2.809313    5.601617    0.000000    1.485000
    37  Cl    c    -5.601617    0.000000   -2.809313    0.000000    1.485000
    38  Cl    c     0.000000    5.601617   -2.809313    0.000000    1.485000
    39  Cl    c     0.000000    5.601617    2.809313    0.000000    1.485000
    40  Cl    c    -5.601617    0.000000    2.809313    0.000000    1.485000
    41  Cl    c     0.000000    2.809313    5.601617    0.000000    1.485000
    42  Cl    c    -2.809313    0.000000    5.601617    0.000000    1.485000
    43  Cl    c    -5.601617    2.809313    0.000000    0.000000    1.485000
    44  Cl    c    -2.809313    5.601617    0.000000    0.000000    1.485000
    45  Cl    c     5.601617    2.809313    0.000000    0.000000    1.485000
    46  Cl    c    -2.809313   -5.601617    0.000000    0.000000    1.485000
    47  Cl    c     5.601617    0.000000    2.809313    0.000000    1.485000
    48  Cl    c     0.000000   -5.601617    2.809313    0.000000    1.485000
    49  Cl    c    -2.809313    0.000000   -5.601617    0.000000    1.485000
    50  Cl    c     0.000000    2.809313   -5.601617    0.000000    1.485000
    51  Cl    c     0.000000   -2.809313   -5.601617    0.000000    1.485000
    52  Cl    c     2.809313    0.000000   -5.601617    0.000000    1.485000
    53  Cl    c     0.000000   -5.601617   -2.809313    0.000000    1.485000
    54  Cl    c     5.601617    0.000000   -2.809313    0.000000    1.485000
    55  Cl    c     2.809313   -5.601617    0.000000    0.000000    1.485000
    56  Cl    c     5.601617   -2.809313    0.000000    0.000000    1.485000
    57  Na    c     2.779616   -2.779616    5.570104    0.000000   -1.128000
    58  Na    c    -2.779616    2.779616   -5.570104    0.000000   -1.128000
    59  Na    c     2.779616    2.779616    5.570104    0.000000   -1.128000
    60  Na    c    -2.779616   -2.779616    5.570104    0.000000   -1.128000
    61  Na    c    -2.779616    2.779616    5.570104    0.000000   -1.128000
    62  Na    c    -2.779616   -2.779616   -5.570104    0.000000   -1.128000
    63  Na    c     2.779616    2.779616   -5.570104    0.000000   -1.128000
    64  Na    c     2.779616   -2.779616   -5.570104    0.000000   -1.128000
    65  Na    c     5.570104    2.779616    2.779616    0.000000   -1.128000
    66  Na    c    -2.779616   -5.570104    2.779616    0.000000   -1.128000
    67  Na    c     2.779616    5.570104   -2.779616    0.000000   -1.128000
    68  Na    c    -5.570104   -2.779616   -2.779616    0.000000   -1.128000
    69  Na    c     2.779616    5.570104    2.779616    0.000000   -1.128000
    70  Na    c    -5.570104   -2.779616    2.779616    0.000000   -1.128000
    71  Na    c    -5.570104    2.779616   -2.779616    0.000000   -1.128000
    72  Na    c    -2.779616    5.570104   -2.779616    0.000000   -1.128000
    73  Na    c    -2.779616    5.570104    2.779616    0.000000   -1.128000
    74  Na    c    -5.570104    2.779616    2.779616    0.000000   -1.128000
    75  Na    c     5.570104    2.779616   -2.779616    0.000000   -1.128000
    76  Na    c    -2.779616   -5.570104   -2.779616    0.000000   -1.128000
    77  Na    c     5.570104   -2.779616    2.779616    0.000000   -1.128000
    78  Na    c     2.779616   -5.570104    2.779616    0.000000   -1.128000
    79  Na    c     2.779616   -5.570104   -2.779616    0.000000   -1.128000
    80  Na    c     5.570104   -2.779616   -2.779616    0.000000   -1.128000
    81  Na    c     5.569603    5.569603    0.000000    0.000000   -1.128000
    82  Na    c    -5.569603   -5.569603    0.000000    0.000000   -1.128000
    83  Na    c     5.569603    0.000000    5.569603    0.000000   -1.128000
    84  Na    c     0.000000   -5.569603    5.569603    0.000000   -1.128000
    85  Na    c    -5.569603    0.000000   -5.569603    0.000000   -1.128000
    86  Na    c     0.000000    5.569603   -5.569603    0.000000   -1.128000
    87  Na    c     0.000000    5.569603    5.569603    0.000000   -1.128000
    88  Na    c    -5.569603    0.000000    5.569603    0.000000   -1.128000
    89  Na    c    -5.569603    5.569603    0.000000    0.000000   -1.128000
    90  Na    c     0.000000   -5.569603   -5.569603    0.000000   -1.128000
    91  Na    c     5.569603    0.000000   -5.569603    0.000000   -1.128000
    92  Na    c     5.569603   -5.569603    0.000000    0.000000   -1.128000
    93  Cl    c     5.591855    5.591855    2.796942    0.000000    1.485000
    94  Cl    c    -5.591855   -5.591855    2.796942    0.000000    1.485000
    95  Cl    c    -5.591855    5.591855   -2.796942    0.000000    1.485000
    96  Cl    c    -5.591855    5.591855    2.796942    0.000000    1.485000
    97  Cl    c     5.591855    5.591855   -2.796942    0.000000    1.485000
    98  Cl    c    -5.591855   -5.591855   -2.796942    0.000000    1.485000
    99  Cl    c     5.591855   -5.591855    2.796942    0.000000    1.485000
   100  Cl    c     5.591855   -5.591855   -2.796942    0.000000    1.485000
   101  Cl    c     5.591855    2.796942    5.591855    0.000000    1.485000
   102  Cl    c    -2.796942   -5.591855    5.591855    0.000000    1.485000
   103  Cl    c    -5.591855    2.796942   -5.591855    0.000000    1.485000
   104  Cl    c    -2.796942    5.591855   -5.591855    0.000000    1.485000
   105  Cl    c     2.796942    5.591855    5.591855    0.000000    1.485000
   106  Cl    c    -5.591855   -2.796942    5.591855    0.000000    1.485000
   107  Cl    c    -2.796942    5.591855    5.591855    0.000000    1.485000
   108  Cl    c    -5.591855    2.796942    5.591855    0.000000    1.485000
   109  Cl    c     5.591855   -2.796942    5.591855    0.000000    1.485000
   110  Cl    c     2.796942   -5.591855    5.591855    0.000000    1.485000
   111  Cl    c    -5.591855   -2.796942   -5.591855    0.000000    1.485000
   112  Cl    c     2.796942    5.591855   -5.591855    0.000000    1.485000
   113  Cl    c    -2.796942   -5.591855   -5.591855    0.000000    1.485000
   114  Cl    c     5.591855    2.796942   -5.591855    0.000000    1.485000
   115  Cl    c     2.796942   -5.591855   -5.591855    0.000000    1.485000
   116  Cl    c     5.591855   -2.796942   -5.591855    0.000000    1.485000
   117  Cl    c     0.000000    0.000000    8.398340    0.000000    1.485000
   118  Cl    c     0.000000    8.398340    0.000000    0.000000    1.485000
   119  Cl    c    -8.398340    0.000000    0.000000    0.000000    1.485000
   120  Cl    c     8.398340    0.000000    0.000000    0.000000    1.485000
   121  Cl    c     0.000000   -8.398340    0.000000    0.000000    1.485000
   122  Cl    c     0.000000    0.000000   -8.398340    0.000000    1.485000
   123  Na    c     2.791107    0.000000    8.360086    0.000000   -1.128000
   124  Na    c     0.000000   -2.791107    8.360086    0.000000   -1.128000
   125  Na    c     2.791107    8.360086    0.000000    0.000000   -1.128000
   126  Na    c    -8.360086   -2.791107    0.000000    0.000000   -1.128000
   127  Na    c     0.000000    8.360086   -2.791107    0.000000   -1.128000
   128  Na    c    -8.360086    0.000000   -2.791107    0.000000   -1.128000
   129  Na    c     0.000000    2.791107    8.360086    0.000000   -1.128000
   130  Na    c    -2.791107    0.000000    8.360086    0.000000   -1.128000
   131  Na    c     0.000000    8.360086    2.791107    0.000000   -1.128000
   132  Na    c    -8.360086    0.000000    2.791107    0.000000   -1.128000
   133  Na    c    -2.791107    8.360086    0.000000    0.000000   -1.128000
   134  Na    c    -8.360086    2.791107    0.000000    0.000000   -1.128000
   135  Na    c     8.360086    2.791107    0.000000    0.000000   -1.128000
   136  Na    c    -2.791107   -8.360086    0.000000    0.000000   -1.128000
   137  Na    c     8.360086    0.000000    2.791107    0.000000   -1.128000
   138  Na    c     0.000000   -8.360086    2.791107    0.000000   -1.128000
   139  Na    c    -2.791107    0.000000   -8.360086    0.000000   -1.128000
   140  Na    c     0.000000    2.791107   -8.360086    0.000000   -1.128000
   141  Na    c     8.360086    0.000000   -2.791107    0.000000   -1.128000
   142  Na    c     0.000000   -8.360086   -2.791107    0.000000   -1.128000
   143  Na    c     8.360086   -2.791107    0.000000    0.000000   -1.128000
   144  Na    c     2.791107   -8.360086    0.000000    0.000000   -1.128000
   145  Na    c     0.000000   -2.791107   -8.360086    0.000000   -1.128000
   146  Na    c     2.791107    0.000000   -8.360086    0.000000   -1.128000
   147  Cl    c     2.798463    8.391707   -2.798463    0.000000    1.485000
   148  Cl    c    -8.391707   -2.798463   -2.798463    0.000000    1.485000
   149  Cl    c     2.798463    8.391707    2.798463    0.000000    1.485000
   150  Cl    c    -8.391707   -2.798463    2.798463    0.000000    1.485000
   151  Cl    c    -8.391707    2.798463   -2.798463    0.000000    1.485000
   152  Cl    c    -2.798463    8.391707   -2.798463    0.000000    1.485000
   153  Cl    c    -2.798463    8.391707    2.798463    0.000000    1.485000
   154  Cl    c    -8.391707    2.798463    2.798463    0.000000    1.485000
   155  Cl    c     8.391707    2.798463    2.798463    0.000000    1.485000
   156  Cl    c    -2.798463   -8.391707    2.798463    0.000000    1.485000
   157  Cl    c     8.391707    2.798463   -2.798463    0.000000    1.485000
   158  Cl    c    -2.798463   -8.391707   -2.798463    0.000000    1.485000
   159  Cl    c     8.391707   -2.798463    2.798463    0.000000    1.485000
   160  Cl    c     2.798463   -8.391707    2.798463    0.000000    1.485000
   161  Cl    c     2.798463   -8.391707   -2.798463    0.000000    1.485000
   162  Cl    c     8.391707   -2.798463   -2.798463    0.000000    1.485000
   163  Cl    c     2.798463   -2.798463    8.391707    0.000000    1.485000
   164  Cl    c     2.798463    2.798463    8.391707    0.000000    1.485000
   165  Cl    c    -2.798463   -2.798463    8.391707    0.000000    1.485000
   166  Cl    c    -2.798463    2.798463    8.391707    0.000000    1.485000
   167  Cl    c    -2.798463    2.798463   -8.391707    0.000000    1.485000
   168  Cl    c    -2.798463   -2.798463   -8.391707    0.000000    1.485000
   169  Cl    c     2.798463    2.798463   -8.391707    0.000000    1.485000
   170  Cl    c     2.798463   -2.798463   -8.391707    0.000000    1.485000
   171  Na    c     5.568429    5.568429    5.568429    0.000000   -1.128000
   172  Na    c    -5.568429   -5.568429    5.568429    0.000000   -1.128000
   173  Na    c    -5.568429    5.568429   -5.568429    0.000000   -1.128000
   174  Na    c    -5.568429    5.568429    5.568429    0.000000   -1.128000
   175  Na    c     5.568429   -5.568429    5.568429    0.000000   -1.128000
   176  Na    c     5.568429    5.568429   -5.568429    0.000000   -1.128000
   177  Na    c    -5.568429   -5.568429   -5.568429    0.000000   -1.128000
   178  Na    c     5.568429   -5.568429   -5.568429    0.000000   -1.128000
   179  Cl    s    -2.998459    0.000000    0.000000    0.000000   -2.485000
   180  Cl    s     0.000000    2.998459    0.000000    0.000000   -2.485000
   181  Cl    s     0.000000    0.000000    2.998459    0.000000   -2.485000
   182  Cl    s     0.000000    0.000000   -2.998459    0.000000   -2.485000
   183  Cl    s     0.000000   -2.998459    0.000000    0.000000   -2.485000
   184  Cl    s     2.998459    0.000000    0.000000    0.000000   -2.485000
   185  Na    s     2.716396    2.716396    0.000000    0.000000    2.128000
   186  Na    s    -2.716396   -2.716396    0.000000    0.000000    2.128000
   187  Na    s     2.716396    0.000000    2.716396    0.000000    2.128000
   188  Na    s     0.000000   -2.716396    2.716396    0.000000    2.128000
   189  Na    s    -2.716396    0.000000   -2.716396    0.000000    2.128000
   190  Na    s     0.000000    2.716396   -2.716396    0.000000    2.128000
   191  Na    s     0.000000    2.716396    2.716396    0.000000    2.128000
   192  Na    s    -2.716396    0.000000    2.716396    0.000000    2.128000
   193  Na    s    -2.716396    2.716396    0.000000    0.000000    2.128000
   194  Na    s     0.000000   -2.716396   -2.716396    0.000000    2.128000
   195  Na    s     2.716396    0.000000   -2.716396    0.000000    2.128000
   196  Na    s     2.716396   -2.716396    0.000000    0.000000    2.128000
   197  Cl    s     2.805408    2.805408    2.805408    0.000000   -2.485000
   198  Cl    s    -2.805408   -2.805408    2.805408    0.000000   -2.485000
   199  Cl    s    -2.805408    2.805408   -2.805408    0.000000   -2.485000
   200  Cl    s    -2.805408    2.805408    2.805408    0.000000   -2.485000
   201  Cl    s    -2.805408   -2.805408   -2.805408    0.000000   -2.485000
   202  Cl    s     2.805408    2.805408   -2.805408    0.000000   -2.485000
   203  Cl    s     2.805408   -2.805408    2.805408    0.000000   -2.485000
   204  Cl    s     2.805408   -2.805408   -2.805408    0.000000   -2.485000
   205  Na    s     0.000000    0.000000    5.607549    0.000000    2.128000
   206  Na    s     0.000000    5.607549    0.000000    0.000000    2.128000
   207  Na    s    -5.607549    0.000000    0.000000    0.000000    2.128000
   208  Na    s     5.607549    0.000000    0.000000    0.000000    2.128000
   209  Na    s     0.000000   -5.607549    0.000000    0.000000    2.128000
   210  Na    s     0.000000    0.000000   -5.607549    0.000000    2.128000
   211  Cl    s     2.813185    5.613179    0.000000    0.000000   -2.485000
   212  Cl    s    -5.613179   -2.813185    0.000000    0.000000   -2.485000
   213  Cl    s     2.813185    0.000000    5.613179    0.000000   -2.485000
   214  Cl    s     0.000000   -2.813185    5.613179    0.000000   -2.485000
   215  Cl    s    -5.613179    0.000000   -2.813185    0.000000   -2.485000
   216  Cl    s     0.000000    5.613179   -2.813185    0.000000   -2.485000
   217  Cl    s     0.000000    5.613179    2.813185    0.000000   -2.485000
   218  Cl    s    -5.613179    0.000000    2.813185    0.000000   -2.485000
   219  Cl    s     0.000000    2.813185    5.613179    0.000000   -2.485000
   220  Cl    s    -2.813185    0.000000    5.613179    0.000000   -2.485000
   221  Cl    s    -5.613179    2.813185    0.000000    0.000000   -2.485000
   222  Cl    s    -2.813185    5.613179    0.000000    0.000000   -2.485000
   223  Cl    s     5.613179    2.813185    0.000000    0.000000   -2.485000
   224  Cl    s    -2.813185   -5.613179    0.000000    0.000000   -2.485000
   225  Cl    s     5.613179    0.000000    2.813185    0.000000   -2.485000
   226  Cl    s     0.000000   -5.613179    2.813185    0.000000   -2.485000
   227  Cl    s    -2.813185    0.000000   -5.613179    0.000000   -2.485000
   228  Cl    s     0.000000    2.813185   -5.613179    0.000000   -2.485000
   229  Cl    s     0.000000   -2.813185   -5.613179    0.000000   -2.485000
   230  Cl    s     2.813185    0.000000   -5.613179    0.000000   -2.485000
   231  Cl    s     0.000000   -5.613179   -2.813185    0.000000   -2.485000
   232  Cl    s     5.613179    0.000000   -2.813185    0.000000   -2.485000
   233  Cl    s     2.813185   -5.613179    0.000000    0.000000   -2.485000
   234  Cl    s     5.613179   -2.813185    0.000000    0.000000   -2.485000
   235  Na    s     2.779091   -2.779091    5.569072    0.000000    2.128000
   236  Na    s    -2.779091    2.779091   -5.569072    0.000000    2.128000
   237  Na    s     2.779091    2.779091    5.569072    0.000000    2.128000
   238  Na    s    -2.779091   -2.779091    5.569072    0.000000    2.128000
   239  Na    s    -2.779091    2.779091    5.569072    0.000000    2.128000
   240  Na    s    -2.779091   -2.779091   -5.569072    0.000000    2.128000
   241  Na    s     2.779091    2.779091   -5.569072    0.000000    2.128000
   242  Na    s     2.779091   -2.779091   -5.569072    0.000000    2.128000
   243  Na    s     5.569072    2.779091    2.779091    0.000000    2.128000
   244  Na    s    -2.779091   -5.569072    2.779091    0.000000    2.128000
   245  Na    s     2.779091    5.569072   -2.779091    0.000000    2.128000
   246  Na    s    -5.569072   -2.779091   -2.779091    0.000000    2.128000
   247  Na    s     2.779091    5.569072    2.779091    0.000000    2.128000
   248  Na    s    -5.569072   -2.779091    2.779091    0.000000    2.128000
   249  Na    s    -5.569072    2.779091   -2.779091    0.000000    2.128000
   250  Na    s    -2.779091    5.569072   -2.779091    0.000000    2.128000
   251  Na    s    -2.779091    5.569072    2.779091    0.000000    2.128000
   252  Na    s    -5.569072    2.779091    2.779091    0.000000    2.128000
   253  Na    s     5.569072    2.779091   -2.779091    0.000000    2.128000
   254  Na    s    -2.779091   -5.569072   -2.779091    0.000000    2.128000
   255  Na    s     5.569072   -2.779091    2.779091    0.000000    2.128000
   256  Na    s     2.779091   -5.569072    2.779091    0.000000    2.128000
   257  Na    s     2.779091   -5.569072   -2.779091    0.000000    2.128000
   258  Na    s     5.569072   -2.779091   -2.779091    0.000000    2.128000
   259  Na    s     5.568749    5.568749    0.000000    0.000000    2.128000
   260  Na    s    -5.568749   -5.568749    0.000000    0.000000    2.128000
   261  Na    s     5.568749    0.000000    5.568749    0.000000    2.128000
   262  Na    s     0.000000   -5.568749    5.568749    0.000000    2.128000
   263  Na    s    -5.568749    0.000000   -5.568749    0.000000    2.128000
   264  Na    s     0.000000    5.568749   -5.568749    0.000000    2.128000
   265  Na    s     0.000000    5.568749    5.568749    0.000000    2.128000
   266  Na    s    -5.568749    0.000000    5.568749    0.000000    2.128000
   267  Na    s    -5.568749    5.568749    0.000000    0.000000    2.128000
   268  Na    s     0.000000   -5.568749   -5.568749    0.000000    2.128000
   269  Na    s     5.568749    0.000000   -5.568749    0.000000    2.128000
   270  Na    s     5.568749   -5.568749    0.000000    0.000000    2.128000
   271  Cl    s     5.594258    5.594258    2.799368    0.000000   -2.485000
   272  Cl    s    -5.594258   -5.594258    2.799368    0.000000   -2.485000
   273  Cl    s    -5.594258    5.594258   -2.799368    0.000000   -2.485000
   274  Cl    s    -5.594258    5.594258    2.799368    0.000000   -2.485000
   275  Cl    s     5.594258    5.594258   -2.799368    0.000000   -2.485000
   276  Cl    s    -5.594258   -5.594258   -2.799368    0.000000   -2.485000
   277  Cl    s     5.594258   -5.594258    2.799368    0.000000   -2.485000
   278  Cl    s     5.594258   -5.594258   -2.799368    0.000000   -2.485000
   279  Cl    s     5.594258    2.799368    5.594258    0.000000   -2.485000
   280  Cl    s    -2.799368   -5.594258    5.594258    0.000000   -2.485000
   281  Cl    s    -5.594258    2.799368   -5.594258    0.000000   -2.485000
   282  Cl    s    -2.799368    5.594258   -5.594258    0.000000   -2.485000
   283  Cl    s     2.799368    5.594258    5.594258    0.000000   -2.485000
   284  Cl    s    -5.594258   -2.799368    5.594258    0.000000   -2.485000
   285  Cl    s    -2.799368    5.594258    5.594258    0.000000   -2.485000
   286  Cl    s    -5.594258    2.799368    5.594258    0.000000   -2.485000
   287  Cl    s     5.594258   -2.799368    5.594258    0.000000   -2.485000
   288  Cl    s     2.799368   -5.594258    5.594258    0.000000   -2.485000
   289  Cl    s    -5.594258   -2.799368   -5.594258    0.000000   -2.485000
   290  Cl    s     2.799368    5.594258   -5.594258    0.000000   -2.485000
   291  Cl    s    -2.799368   -5.594258   -5.594258    0.000000   -2.485000
   292  Cl    s     5.594258    2.799368   -5.594258    0.000000   -2.485000
   293  Cl    s     2.799368   -5.594258   -5.594258    0.000000   -2.485000
   294  Cl    s     5.594258   -2.799368   -5.594258    0.000000   -2.485000
   295  Cl    s     0.000000    0.000000    8.399442    0.000000   -2.485000
   296  Cl    s     0.000000    8.399442    0.000000    0.000000   -2.485000
   297  Cl    s    -8.399442    0.000000    0.000000    0.000000   -2.485000
   298  Cl    s     8.399442    0.000000    0.000000    0.000000   -2.485000
   299  Cl    s     0.000000   -8.399442    0.000000    0.000000   -2.485000
   300  Cl    s     0.000000    0.000000   -8.399442    0.000000   -2.485000
   301  Na    s     2.791198    0.000000    8.359003    0.000000    2.128000
   302  Na    s     0.000000   -2.791198    8.359003    0.000000    2.128000
   303  Na    s     2.791198    8.359003    0.000000    0.000000    2.128000
   304  Na    s    -8.359003   -2.791198    0.000000    0.000000    2.128000
   305  Na    s     0.000000    8.359003   -2.791198    0.000000    2.128000
   306  Na    s    -8.359003    0.000000   -2.791198    0.000000    2.128000
   307  Na    s     0.000000    2.791198    8.359003    0.000000    2.128000
   308  Na    s    -2.791198    0.000000    8.359003    0.000000    2.128000
   309  Na    s     0.000000    8.359003    2.791198    0.000000    2.128000
   310  Na    s    -8.359003    0.000000    2.791198    0.000000    2.128000
   311  Na    s    -2.791198    8.359003    0.000000    0.000000    2.128000
   312  Na    s    -8.359003    2.791198    0.000000    0.000000    2.128000
   313  Na    s     8.359003    2.791198    0.000000    0.000000    2.128000
   314  Na    s    -2.791198   -8.359003    0.000000    0.000000    2.128000
   315  Na    s     8.359003    0.000000    2.791198    0.000000    2.128000
   316  Na    s     0.000000   -8.359003    2.791198    0.000000    2.128000
   317  Na    s    -2.791198    0.000000   -8.359003    0.000000    2.128000
   318  Na    s     0.000000    2.791198   -8.359003    0.000000    2.128000
   319  Na    s     8.359003    0.000000   -2.791198    0.000000    2.128000
   320  Na    s     0.000000   -8.359003   -2.791198    0.000000    2.128000
   321  Na    s     8.359003   -2.791198    0.000000    0.000000    2.128000
   322  Na    s     2.791198   -8.359003    0.000000    0.000000    2.128000
   323  Na    s     0.000000   -2.791198   -8.359003    0.000000    2.128000
   324  Na    s     2.791198    0.000000   -8.359003    0.000000    2.128000
   325  Cl    s     2.799597    8.395875   -2.799597    0.000000   -2.485000
   326  Cl    s    -8.395875   -2.799597   -2.799597    0.000000   -2.485000
   327  Cl    s     2.799597    8.395875    2.799597    0.000000   -2.485000
   328  Cl    s    -8.395875   -2.799597    2.799597    0.000000   -2.485000
   329  Cl    s    -8.395875    2.799597   -2.799597    0.000000   -2.485000
   330  Cl    s    -2.799597    8.395875   -2.799597    0.000000   -2.485000
   331  Cl    s    -2.799597    8.395875    2.799597    0.000000   -2.485000
   332  Cl    s    -8.395875    2.799597    2.799597    0.000000   -2.485000
   333  Cl    s     8.395875    2.799597    2.799597    0.000000   -2.485000
   334  Cl    s    -2.799597   -8.395875    2.799597    0.000000   -2.485000
   335  Cl    s     8.395875    2.799597   -2.799597    0.000000   -2.485000
   336  Cl    s    -2.799597   -8.395875   -2.799597    0.000000   -2.485000
   337  Cl    s     8.395875   -2.799597    2.799597    0.000000   -2.485000
   338  Cl    s     2.799597   -8.395875    2.799597    0.000000   -2.485000
   339  Cl    s     2.799597   -8.395875   -2.799597    0.000000   -2.485000
   340  Cl    s     8.395875   -2.799597   -2.799597    0.000000   -2.485000
   341  Cl    s     2.799597   -2.799597    8.395875    0.000000   -2.485000
   342  Cl    s     2.799597    2.799597    8.395875    0.000000   -2.485000
   343  Cl    s    -2.799597   -2.799597    8.395875    0.000000   -2.485000
   344  Cl    s    -2.799597    2.799597    8.395875    0.000000   -2.485000
   345  Cl    s    -2.799597    2.799597   -8.395875    0.000000   -2.485000
   346  Cl    s    -2.799597   -2.799597   -8.395875    0.000000   -2.485000
   347  Cl    s     2.799597    2.799597   -8.395875    0.000000   -2.485000
   348  Cl    s     2.799597   -2.799597   -8.395875    0.000000   -2.485000
   349  Na    s     5.567799    5.567799    5.567799    0.000000    2.128000
   350  Na    s    -5.567799   -5.567799    5.567799    0.000000    2.128000
   351  Na    s    -5.567799    5.567799   -5.567799    0.000000    2.128000
   352  Na    s    -5.567799    5.567799    5.567799    0.000000    2.128000
   353  Na    s     5.567799   -5.567799    5.567799    0.000000    2.128000
   354  Na    s     5.567799    5.567799   -5.567799    0.000000    2.128000
   355  Na    s    -5.567799   -5.567799   -5.567799    0.000000    2.128000
   356  Na    s     5.567799   -5.567799   -5.567799    0.000000    2.128000
--------------------------------------------------------------------------------

  Final coordinates of symmetry reduced region 1 (relative to defect centre):

--------------------------------------------------------------------------------
   No.  Atomic        x           y           z          Charge
        Label       (Angs)      (Angs)      (Angs)         (e) 
--------------------------------------------------------------------------------
     1  Cl    c    -2.954728    0.000000    0.000000    1.485000
     2  Na    c     2.718432    2.718432    0.000000   -1.128000
     3  Cl    c     2.803270    2.803270    2.803270    1.485000
     4  Na    c     0.000000    0.000000    5.612880   -1.128000
     5  Cl    c     2.809313    5.601617    0.000000    1.485000
     6  Na    c     2.779616   -2.779616    5.570104   -1.128000
     7  Na    c     5.569603    5.569603    0.000000   -1.128000
     8  Cl    c     5.591855    5.591855    2.796942    1.485000
     9  Cl    c     0.000000    0.000000    8.398340    1.485000
    10  Na    c     2.791107    0.000000    8.360086   -1.128000
    11  Cl    c     2.798463    8.391707   -2.798463    1.485000
    12  Na    c     5.568429    5.568429    5.568429   -1.128000
    13  Cl    s    -2.998459    0.000000    0.000000   -2.485000
    14  Na    s     2.716396    2.716396    0.000000    2.128000
    15  Cl    s     2.805408    2.805408    2.805408   -2.485000
    16  Na    s     0.000000    0.000000    5.607549    2.128000
    17  Cl    s     2.813185    5.613179    0.000000   -2.485000
    18  Na    s     2.779091   -2.779091    5.569072    2.128000
    19  Na    s     5.568749    5.568749    0.000000    2.128000
    20  Cl    s     5.594258    5.594258    2.799368   -2.485000
    21  Cl    s     0.000000    0.000000    8.399442   -2.485000
    22  Na    s     2.791198    0.000000    8.359003    2.128000
    23  Cl    s     2.799597    8.395875   -2.799597   -2.485000
    24  Na    s     5.567799    5.567799    5.567799    2.128000
--------------------------------------------------------------------------------


  Final derivatives for region 1 :

--------------------------------------------------------------------------------
   No.  Atomic          x             y             z            Radius
        Label       (eV/Angs)     (eV/Angs)     (eV/Angs)       (eV/Angs)
--------------------------------------------------------------------------------
     1  Cl    c      -0.003061      0.000000      0.000000      0.000000
     2  Na    c       0.007939      0.000000      0.000000      0.000000
     3  Cl    c       0.001739      0.000000      0.000000      0.000000
     4  Na    c       0.000000      0.000000     -0.002470      0.000000
     5  Cl    c       0.003094      0.000002      0.000000      0.000000
     6  Na    c      -0.000667      0.000000     -0.000090      0.000000
     7  Na    c       0.000085      0.000000      0.000000      0.000000
     8  Cl    c       0.000779      0.000000      0.000288      0.000000
     9  Cl    c       0.000000      0.000000      0.000365      0.000000
    10  Na    c      -0.000117      0.000000     -0.000859      0.000000
    11  Cl    c       0.000957      0.000590      0.000000      0.000000
    12  Na    c       0.000016      0.000000      0.000000      0.000000
    13  Cl    s       0.003298      0.000000      0.000000      0.000000
    14  Na    s      -0.007938      0.000000      0.000000      0.000000
    15  Cl    s      -0.001925      0.000000      0.000000      0.000000
    16  Na    s       0.000000      0.000000     -0.000763      0.000000
    17  Cl    s      -0.004300     -0.003390      0.000000      0.000000
    18  Na    s       0.001784      0.000000      0.000323      0.000000
    19  Na    s      -0.000489      0.000000      0.000000      0.000000
    20  Cl    s      -0.001683      0.000000     -0.000214      0.000000
    21  Cl    s       0.000000      0.000000     -0.000640      0.000000
    22  Na    s       0.000356      0.000000      0.000831      0.000000
    23  Cl    s      -0.001468     -0.001318      0.000000      0.000000
    24  Na    s      -0.000051      0.000000      0.000000      0.000000
--------------------------------------------------------------------------------


  Time to end of optimisation  =        0.5794 seconds


  Peak dynamic memory used =      23.28 MB 


  Timing analysis for GULP :

--------------------------------------------------------------------------------
  Task / Subroutine                                          Time (Seconds)
--------------------------------------------------------------------------------
  Calculation of reciprocal space energy and derivatives          0.0003
  Calculation of reciprocal space energy using symmetry           0.0007
  Calculation of real space energy and derivatives                0.0018
  Calculation of real space energy using symmetry                 0.0138
  Calculation for region 1 energy and derivatives (2-b)           0.2608
  Calculation for region 2a energy                                0.2343
  Calculation and manipulation of Hessian matrix                  0.0064
  Symmetry generation of equivalent positions                     0.0066
--------------------------------------------------------------------------------
  Total CPU time                                                  0.5794
--------------------------------------------------------------------------------


  Dump file written as NaCl.grs


  Job Finished at 13:28.50  2nd October    2020                               

