********************************************************************************
*                       GENERAL UTILITY LATTICE PROGRAM                        *
*                                 Julian Gale                                  *
*                       Curtin Institute for Computation                       *
*                    School of Molecular and Life Sciences                     *
*                    Curtin University, Western Australia                      *
********************************************************************************
* Version = 5.2.0 * Last modified =  10th September 2020                       *
********************************************************************************
* Na vacancy in NaCl                                                           *
*  optimise     - perform optimisation run                                     *
*  conp         - constant pressure calculation                                *
*  property     - calculate properties for final geometry                      *
*  defect       - perform defect calculation after bulk run                    *
********************************************************************************
* Na vacancy in NaCl                                                           *
********************************************************************************


  Job Started  at 12:48.16  8th October    2020                               

  Number of CPUs =     1


  Total number of configurations input =      1

********************************************************************************
*  Input for Configuration =   1 : NaCl                                        *
********************************************************************************

  Formula = NaCl                                                        

  Number of irreducible atoms/shells =       4


  Total number atoms/shells =       4

  Dimensionality = 3               :  Bulk   


  Symmetry :

  Crystal family                   :  Cubic       
  Crystal class  (Groth - 1921)    :  Cubic Hexakisoctahedral              

  Space group (centrosymmetric)    :  F M 3 M         

  Patterson group                  :  F m -3 m 

  Cartesian lattice vectors (Angstroms) :

        0.000000    2.789000    2.789000
        2.789000    0.000000    2.789000
        2.789000    2.789000    0.000000

  Primitive cell parameters :            Full cell parameters :

  a =   3.9442    alpha =  60.0000       a =   5.5780    alpha =  90.0000
  b =   3.9442    beta  =  60.0000       b =   5.5780    beta  =  90.0000
  c =   3.9442    gamma =  60.0000       c =   5.5780    gamma =  90.0000

  Initial volumes (Angstroms**3):

  Primitive cell =          43.388590    Full cell =         173.554361

  Temperature of configuration =   0.00     K 

  Pressure of configuration =         0.000 GPa 

  Fractional coordinates of asymmetric unit :

--------------------------------------------------------------------------------
   No.  Atomic       x           y          z         Charge      Occupancy
        Label      (Frac)      (Frac)     (Frac)        (e)         (Frac)  
--------------------------------------------------------------------------------
      1 Na    c    0.000000    0.000000    0.000000    -1.12800    1.000000    
      2 Cl    c    0.500000    0.000000    0.000000     1.48500    1.000000    
      3 Na    s    0.000000    0.000000    0.000000     2.12800    1.000000    
      4 Cl    s    0.500000    0.000000    0.000000    -2.48500    1.000000    
--------------------------------------------------------------------------------


  Constraints : 

--------------------------------------------------------------------------------
  Constraint no.      Unconstrained     Constrained    Coefficient    Offset
                         Variable         Variable
--------------------------------------------------------------------------------
           1              Strain 1        Strain 2       1.00000      0.0000
           2              Strain 1        Strain 3       1.00000      0.0000
--------------------------------------------------------------------------------


********************************************************************************
*  General input information                                                   *
********************************************************************************

  Species output for all configurations : 

--------------------------------------------------------------------------------
  Species    Type    Atomic    Atomic    Charge       Radii (Angs)     Library
                     Number     Mass       (e)     Cova   Ionic  VDW   Symbol
--------------------------------------------------------------------------------
    Na       Core       11      22.99  -1.128000   0.970  0.000  2.300          
    Na       Shell      11       0.00   2.128000   0.970  0.000  2.300          
    Cl       Core       17      35.45   1.485000   0.990  0.000  1.650          
    Cl       Shell      17       0.00  -2.485000   0.990  0.000  1.650          
--------------------------------------------------------------------------------


  Lattice summation method               =    Ewald          (3-D)
                                         =    Parry          (2-D)
                                         =    Saunders et al (1-D)
  Accuracy factor for lattice sums       =   12.000


  Analytic derivatives to be used

  Time limit = Infinity

  Maximum range for interatomic potentials =    100000.000000 Angstroms

  General interatomic potentials :

--------------------------------------------------------------------------------
Atom  Types   Potential      Parameter       Value         Units   Cutoffs(Ang)
  1     2                                                            Min /  Max 
--------------------------------------------------------------------------------
Na   s Na   s Buckingham    Buckingham A     7895.0000    eV        0.000 12.000
                            Buckingham rho  0.17090000    Ang       
                            Buckingham C     14.530000    eV*Ang^6  
--------------------------------------------------------------------------------
Na   s Cl   s Buckingham    Buckingham A     2314.7000    eV        0.000 12.000
                            Buckingham rho  0.29030000    Ang       
                            Buckingham C     0.0000000    eV*Ang^6  
--------------------------------------------------------------------------------
Cl   s Cl   s Buckingham    Buckingham A     1227.2000    eV        0.000 12.000
                            Buckingham rho  0.32140000    Ang       
                            Buckingham C     14.530000    eV*Ang^6  
--------------------------------------------------------------------------------
Na   c Na   s Spring (c-s)  Spring k 2       96.440000    eV*Ang^-2 0.000  0.800
                            Spring k 4       0.0000000    eV*Ang^-4 
--------------------------------------------------------------------------------
Cl   c Cl   s Spring (c-s)  Spring k 2       29.380000    eV*Ang^-2 0.000  0.800
                            Spring k 4       0.0000000    eV*Ang^-4 
--------------------------------------------------------------------------------

********************************************************************************
*  Output for configuration   1 : NaCl                                         *
********************************************************************************


  Components of energy : 

--------------------------------------------------------------------------------
  Interatomic potentials     =           0.91447856 eV    
  Monopole - monopole (real) =          -0.72412017 eV    
  Monopole - monopole (recip)=          -8.29865070 eV    
  Monopole - monopole (total)=          -9.02277087 eV    
--------------------------------------------------------------------------------
  Total lattice energy : 
    Primitive unit cell      =          -8.10829230 eV    
    Non-primitive unit cell  =         -32.43316921 eV    
--------------------------------------------------------------------------------
  Total lattice energy (in kJmol-1): 
    Primitive unit cell      =            -782.3263 kJ/(mole unit cells)
    Non-primitive unit cell  =           -3129.3050 kJ/(mole unit cells)
--------------------------------------------------------------------------------


  Number of variables =        1

  Maximum number of calculations  =          1000
  Maximum Hessian update interval =            10
  Maximum step size               =   1.000000000
  Maximum parameter tolerance     =   0.000010000
  Maximum function  tolerance     =   0.000010000
  Maximum gradient  tolerance     =   0.001000000
  Maximum gradient  component     =   0.010000000

  Symmetry constrained optimisation

  Symmetry used for second derivatives

  Cell parameters to be optimised using strains

  Newton-Raphson optimiser to be used

  BFGS hessian update to be used

  Lower half triangular hessian to be used

  Start of bulk optimisation :

  Cycle:      0 Energy:        -8.108292  Gnorm:      0.062231  CPU:    0.013
  ** Hessian calculated **
  Cycle:      1 Energy:        -8.108320  Gnorm:      0.000040  CPU:    0.018


  **** Optimisation achieved ****


  Final energy =      -8.10831952 eV
  Final Gnorm  =       0.00000017

  Components of energy : 

--------------------------------------------------------------------------------
  Interatomic potentials     =           0.90655178 eV    
  Monopole - monopole (real) =          -0.72348619 eV    
  Monopole - monopole (recip)=          -8.29138511 eV    
  Monopole - monopole (total)=          -9.01487130 eV    
--------------------------------------------------------------------------------
  Total lattice energy : 
    Primitive unit cell      =          -8.10831952 eV    
    Non-primitive unit cell  =         -32.43327809 eV    
--------------------------------------------------------------------------------
  Total lattice energy (in kJmol-1): 
    Primitive unit cell      =            -782.3289 kJ/(mole unit cells)
    Non-primitive unit cell  =           -3129.3155 kJ/(mole unit cells)
--------------------------------------------------------------------------------

  Final asymmetric unit coordinates :

--------------------------------------------------------------------------------
   No.  Atomic        x           y           z         Radius
        Label       (Frac)      (Frac)      (Frac)       (Angs) 
--------------------------------------------------------------------------------
     1  Na    c     0.000000    0.000000    0.000000    0.000000
     2  Cl    c     0.500000    0.000000    0.000000    0.000000
     3  Na    s     0.000000    0.000000    0.000000    0.000000
     4  Cl    s     0.500000    0.000000    0.000000    0.000000
--------------------------------------------------------------------------------

  Final Cartesian lattice vectors (Angstroms) :

        0.000000    2.791444    2.791444
        2.791444    0.000000    2.791444
        2.791444    2.791444    0.000000


  Final cell parameters and derivatives :

--------------------------------------------------------------------------------
       a            3.947698 Angstrom     dE/de1(xx)    -0.000000 eV/strain
       b            3.947698 Angstrom     dE/de2(yy)     0.000000 eV/strain
       c            3.947698 Angstrom     dE/de3(zz)     0.000000 eV/strain
       alpha       60.000000 Degrees      dE/de4(yz)     0.000000 eV/strain
       beta        60.000000 Degrees      dE/de5(xz)     0.000000 eV/strain
       gamma       60.000000 Degrees      dE/de6(xy)     0.000000 eV/strain
--------------------------------------------------------------------------------

  Primitive cell volume =            43.502752 Angs**3

  Density of cell =      2.230743 g/cm**3

  Non-primitive lattice parameters :

  a    =     5.582888  b   =     5.582888  c    =     5.582888
  alpha=    90.000000  beta=    90.000000  gamma=    90.000000

  Non-primitive cell volume =           174.011008 Angs**3


  Final internal derivatives :

--------------------------------------------------------------------------------
   No.  Atomic          a             b             c           Radius
        Label          (eV)          (eV)          (eV)        (eV/Angs)
--------------------------------------------------------------------------------
      1 Na    c       0.000000      0.000000      0.000000      0.000000
      2 Cl    c       0.000000      0.000000      0.000000      0.000000
      3 Na    s       0.000000      0.000000      0.000000      0.000000
      4 Cl    s       0.000000      0.000000      0.000000      0.000000
--------------------------------------------------------------------------------
  Maximum abs         0.000000      0.000000      0.000000      0.000000
--------------------------------------------------------------------------------


  Born effective charge tensors : 

-------------------------------------------------------------------------------
  Atom             x           y             z
-------------------------------------------------------------------------------
    1 Na    x       1.0608      0.0000      0.0000
            y       0.0000      1.0608      0.0000
            z       0.0000      0.0000      1.0608
-------------------------------------------------------------------------------
    2 Cl    x      -1.0608     -0.0000     -0.0000
            y      -0.0000     -1.0608     -0.0000
            z      -0.0000     -0.0000     -1.0608
-------------------------------------------------------------------------------




  Elastic Constant Matrix: (Units=GPa)

-------------------------------------------------------------------------------
  Indices      1         2         3         4         5         6    
-------------------------------------------------------------------------------
       1     58.2962   14.2997   14.2997   -0.0000    0.0000   -0.0000
       2     14.2997   58.2962   14.2997    0.0000    0.0000   -0.0000
       3     14.2997   14.2997   58.2962    0.0000    0.0000   -0.0000
       4     -0.0000    0.0000    0.0000   14.2997    0.0000   -0.0000
       5      0.0000    0.0000    0.0000    0.0000   14.2997   -0.0000
       6     -0.0000   -0.0000   -0.0000   -0.0000   -0.0000   14.2997
-------------------------------------------------------------------------------


  Elastic Compliance Matrix: (Units=1/GPa)

-------------------------------------------------------------------------------
  Indices      1         2         3         4         5         6    
-------------------------------------------------------------------------------
       1    0.018989 -0.003740 -0.003740  0.000000 -0.000000 -0.000000
       2   -0.003740  0.018989 -0.003740 -0.000000 -0.000000  0.000000
       3   -0.003740 -0.003740  0.018989 -0.000000 -0.000000  0.000000
       4    0.000000 -0.000000 -0.000000  0.069931 -0.000000  0.000000
       5   -0.000000 -0.000000 -0.000000 -0.000000  0.069931  0.000000
       6   -0.000000  0.000000  0.000000  0.000000  0.000000  0.069931
-------------------------------------------------------------------------------

  Mechanical properties :

-------------------------------------------------------------------------------
  Convention :                    Reuss         Voigt         Hill
-------------------------------------------------------------------------------
  Bulk  Modulus (GPa)     =      28.96523      28.96523      28.96523
  Shear Modulus (GPa)     =      16.62729      17.37914      17.00321
-------------------------------------------------------------------------------
  Velocity S-wave (km/s)  =       2.73015       2.79119       2.76084
  Velocity P-wave (km/s)  =       4.78778       4.83448       4.81119
-------------------------------------------------------------------------------
  Compressibility (1/GPa) =    0.03452416
-------------------------------------------------------------------------------
  Stress axis :                     x             y             z
-------------------------------------------------------------------------------
  Youngs Moduli (GPa)     =      52.66277      52.66277      52.66277
-------------------------------------------------------------------------------
  Poissons Ratio (x)      =                     0.19698       0.19698
  Poissons Ratio (y)      =       0.19698                     0.19698
  Poissons Ratio (z)      =       0.19698       0.19698
-------------------------------------------------------------------------------


  Piezoelectric Strain Matrix: (Units=C/m**2)

-------------------------------------------------------------------------------
  Indices      1         2         3         4         5         6    
-------------------------------------------------------------------------------
       x    -0.00000  -0.00000  -0.00000  -0.00000  -0.00000  -0.00000
       y    -0.00000   0.00000  -0.00000  -0.00000  -0.00000  -0.00000
       z    -0.00000  -0.00000   0.00000  -0.00000  -0.00000  -0.00000
-------------------------------------------------------------------------------


  Piezoelectric Stress Matrix: (Units=10**-11 C/N)

-------------------------------------------------------------------------------
  Indices      1         2         3         4         5         6    
-------------------------------------------------------------------------------
       x    -0.00000  -0.00000  -0.00000  -0.00000  -0.00000  -0.00000
       y    -0.00000   0.00000  -0.00000  -0.00000  -0.00000  -0.00000
       z    -0.00000  -0.00000   0.00000  -0.00000  -0.00000  -0.00000
-------------------------------------------------------------------------------


  Static dielectric constant tensor : 

-------------------------------------------------------------------------------
              x         y         z
-------------------------------------------------------------------------------
       x     5.49480   0.00000   0.00000
       y     0.00000   5.49480  -0.00000
       z     0.00000  -0.00000   5.49480
--------------------------------------------------------------------------------

  High frequency dielectric constant tensor : 

-------------------------------------------------------------------------------
              x         y         z
-------------------------------------------------------------------------------
       x     2.38570  -0.00000   0.00000
       y    -0.00000   2.38570   0.00000
       z     0.00000   0.00000   2.38570
-------------------------------------------------------------------------------

  Static refractive indices : 

-------------------------------------------------------------------------------
    1 =    2.34410      2 =    2.34410      3 =    2.34410
-------------------------------------------------------------------------------

  High frequency refractive indices : 

-------------------------------------------------------------------------------
    1 =    1.54457      2 =    1.54457      3 =    1.54457
-------------------------------------------------------------------------------


  Time to end of optimisation =       0.0243 seconds

********************************************************************************
*  Defect calculation for configuration   1 :                                  *
********************************************************************************

  Total number of defects =      3

  Total charge on defect  =   1.00

  Defect centre is at   0.2500   0.0000   0.0000  Frac

  Region 1 radius =  10.0000      Number of ions =    382

  Number of symmetry inequivalent region 1 ions  =    230

  Region 2 radius =  20.0000      Number of ions =   2700

  Number of symmetry inequivalent region 2a ions =   1476

  Region 2a mode = 4 : screened electrostatics due to region 1 
                       neglect correction to region 1 forces from 2a
                       region 2a displacements based on defects only

  Region 2a ions will only interact with defects in region 1

  Vacancies:

--------------------------------------------------------------------------------
    Specification type     Symbol/Number         x          y          z
--------------------------------------------------------------------------------
    Fractional                               0.500000   0.000000   0.000000
    Fractional                               0.000000   0.500000   0.000000
--------------------------------------------------------------------------------

  Interstitials:

--------------------------------------------------------------------------------
    Specification type     Symbol/Number         x          y          z
--------------------------------------------------------------------------------
    Atom/Fractional         Cl               0.250000   0.250000   0.000000
--------------------------------------------------------------------------------


  Symmetry reduced region 1 (Relative to defect centre) :

--------------------------------------------------------------------------------
   No.   Atomic       x            y             z       Radius  Multiplicity   
         Label      (Angs)       (Angs)        (Angs)    (Angs)     
--------------------------------------------------------------------------------
     1  Na    c     -1.3957 *     0.0000 *     0.0000    0.0000     1          
     2  Cl    c      0.0000 *     1.3957 *     0.0000    0.0000     1    Defect
     3  Na    c      1.3957 *     0.0000 *    -2.7914 *  0.0000     2          
     4  Na    c      1.3957 *    -2.7914 *     0.0000    0.0000     1          
     5  Na    c      1.3957 *     2.7914 *     0.0000    0.0000     1          
     6  Cl    c     -1.3957 *    -2.7914 *     0.0000    0.0000     1          
     7  Cl    c     -1.3957 *     0.0000 *    -2.7914 *  0.0000     2          
     8  Na    c      4.1872 *     0.0000 *     0.0000    0.0000     1          
     9  Cl    c     -4.1872 *     0.0000 *     0.0000    0.0000     1          
    10  Na    c     -1.3957 *    -2.7914 *    -2.7914 *  0.0000     2          
    11  Na    c     -1.3957 *     2.7914 *    -2.7914 *  0.0000     2          
    12  Cl    c      1.3957 *    -2.7914 *     2.7914 *  0.0000     2          
    13  Cl    c      1.3957 *     2.7914 *    -2.7914 *  0.0000     2          
    14  Na    c     -4.1872 *    -2.7914 *     0.0000    0.0000     1          
    15  Na    c     -4.1872 *     0.0000 *    -2.7914 *  0.0000     2          
    16  Na    c     -4.1872 *     2.7914 *     0.0000    0.0000     1          
    17  Cl    c      4.1872 *     2.7914 *     0.0000    0.0000     1          
    18  Cl    c      4.1872 *     0.0000 *     2.7914 *  0.0000     2          
    19  Cl    c      4.1872 *    -2.7914 *     0.0000    0.0000     1          
    20  Na    c      4.1872 *     2.7914 *    -2.7914 *  0.0000     2          
    21  Na    c     -1.3957 *    -5.5829 *     0.0000    0.0000     1          
    22  Na    c      4.1872 *    -2.7914 *     2.7914 *  0.0000     2          
    23  Na    c     -1.3957 *     0.0000 *    -5.5829 *  0.0000     2          
    24  Na    c     -1.3957 *     5.5829 *     0.0000    0.0000     1          
    25  Cl    c     -4.1872 *    -2.7914 *    -2.7914 *  0.0000     2          
    26  Cl    c      1.3957 *     0.0000 *     5.5829 *  0.0000     2          
    27  Cl    c      1.3957 *     5.5829 *     0.0000    0.0000     1          
    28  Cl    c     -4.1872 *     2.7914 *    -2.7914 *  0.0000     2          
    29  Cl    c      1.3957 *    -5.5829 *     0.0000    0.0000     1          
    30  Na    c      1.3957 *    -5.5829 *     2.7914 *  0.0000     2          
    31  Na    c      1.3957 *     2.7914 *    -5.5829 *  0.0000     2          
    32  Na    c      1.3957 *    -2.7914 *     5.5829 *  0.0000     2          
    33  Na    c      1.3957 *     5.5829 *    -2.7914 *  0.0000     2          
    34  Cl    c     -1.3957 *    -5.5829 *     2.7914 *  0.0000     2          
    35  Cl    c     -1.3957 *     2.7914 *    -5.5829 *  0.0000     2          
    36  Cl    c     -1.3957 *    -2.7914 *     5.5829 *  0.0000     2          
    37  Cl    c     -1.3957 *     5.5829 *    -2.7914 *  0.0000     2          
    38  Na    c      4.1872 *     5.5829 *     0.0000    0.0000     1          
    39  Na    c      4.1872 *     0.0000 *     5.5829 *  0.0000     2          
    40  Na    c      4.1872 *    -5.5829 *     0.0000    0.0000     1          
    41  Cl    c     -4.1872 *    -5.5829 *     0.0000    0.0000     1          
    42  Cl    c     -4.1872 *     0.0000 *    -5.5829 *  0.0000     2          
    43  Cl    c     -4.1872 *     5.5829 *     0.0000    0.0000     1          
    44  Na    c     -6.9786 *     0.0000 *     0.0000    0.0000     1          
    45  Cl    c      6.9786 *     0.0000 *     0.0000    0.0000     1          
    46  Na    c     -4.1872 *    -5.5829 *    -2.7914 *  0.0000     2          
    47  Na    c     -4.1872 *    -2.7914 *    -5.5829 *  0.0000     2          
    48  Na    c     -4.1872 *     2.7914 *    -5.5829 *  0.0000     2          
    49  Na    c     -4.1872 *     5.5829 *    -2.7914 *  0.0000     2          
    50  Cl    c      4.1872 *    -2.7914 *     5.5829 *  0.0000     2          
    51  Cl    c      4.1872 *     5.5829 *    -2.7914 *  0.0000     2          
    52  Cl    c      4.1872 *     2.7914 *     5.5829 *  0.0000     2          
    53  Cl    c      4.1872 *    -5.5829 *     2.7914 *  0.0000     2          
    54  Na    c      6.9786 *     2.7914 *     0.0000    0.0000     1          
    55  Na    c      6.9786 *     0.0000 *     2.7914 *  0.0000     2          
    56  Na    c      6.9786 *    -2.7914 *     0.0000    0.0000     1          
    57  Cl    c     -6.9786 *    -2.7914 *     0.0000    0.0000     1          
    58  Cl    c     -6.9786 *     0.0000 *    -2.7914 *  0.0000     2          
    59  Cl    c     -6.9786 *     2.7914 *     0.0000    0.0000     1          
    60  Na    c     -1.3957 *    -5.5829 *     5.5829 *  0.0000     2          
    61  Na    c     -6.9786 *    -2.7914 *    -2.7914 *  0.0000     2          
    62  Na    c     -1.3957 *     5.5829 *    -5.5829 *  0.0000     2          
    63  Na    c     -6.9786 *     2.7914 *    -2.7914 *  0.0000     2          
    64  Cl    c      6.9786 *     2.7914 *     2.7914 *  0.0000     2          
    65  Cl    c      1.3957 *    -5.5829 *     5.5829 *  0.0000     2          
    66  Cl    c      1.3957 *     5.5829 *    -5.5829 *  0.0000     2          
    67  Cl    c      6.9786 *    -2.7914 *     2.7914 *  0.0000     2          
    68  Na    c      1.3957 *     0.0000 *     8.3743 *  0.0000     2          
    69  Na    c      1.3957 *     8.3743 *     0.0000    0.0000     1          
    70  Na    c      1.3957 *    -8.3743 *     0.0000    0.0000     1          
    71  Cl    c     -1.3957 *     0.0000 *     8.3743 *  0.0000     2          
    72  Cl    c     -1.3957 *     8.3743 *     0.0000    0.0000     1          
    73  Cl    c     -1.3957 *    -8.3743 *     0.0000    0.0000     1          
    74  Na    c     -1.3957 *    -8.3743 *     2.7914 *  0.0000     2          
    75  Na    c     -1.3957 *     8.3743 *    -2.7914 *  0.0000     2          
    76  Cl    c      1.3957 *     8.3743 *    -2.7914 *  0.0000     2          
    77  Cl    c      1.3957 *    -8.3743 *     2.7914 *  0.0000     2          
    78  Na    c      4.1872 *    -5.5829 *     5.5829 *  0.0000     2          
    79  Na    c      4.1872 *     5.5829 *    -5.5829 *  0.0000     2          
    80  Na    c     -1.3957 *     2.7914 *    -8.3743 *  0.0000     2          
    81  Na    c     -6.9786 *    -5.5829 *     0.0000    0.0000     1          
    82  Na    c     -6.9786 *     0.0000 *    -5.5829 *  0.0000     2          
    83  Na    c     -1.3957 *    -2.7914 *     8.3743 *  0.0000     2          
    84  Na    c     -6.9786 *     5.5829 *     0.0000    0.0000     1          
    85  Cl    c      6.9786 *     5.5829 *     0.0000    0.0000     1          
    86  Cl    c      6.9786 *     0.0000 *     5.5829 *  0.0000     2          
    87  Cl    c     -4.1872 *    -5.5829 *     5.5829 *  0.0000     2          
    88  Cl    c      1.3957 *    -2.7914 *     8.3743 *  0.0000     2          
    89  Cl    c     -4.1872 *     5.5829 *    -5.5829 *  0.0000     2          
    90  Cl    c      1.3957 *     2.7914 *     8.3743 *  0.0000     2          
    91  Cl    c      6.9786 *    -5.5829 *     0.0000    0.0000     1          
    92  Na    c      6.9786 *     5.5829 *    -2.7914 *  0.0000     2          
    93  Na    c     -4.1872 *    -8.3743 *     0.0000    0.0000     1          
    94  Na    c      6.9786 *    -2.7914 *     5.5829 *  0.0000     2          
    95  Na    c     -4.1872 *     0.0000 *    -8.3743 *  0.0000     2          
    96  Na    c      6.9786 *     2.7914 *     5.5829 *  0.0000     2          
    97  Na    c     -4.1872 *     8.3743 *     0.0000    0.0000     1          
    98  Na    c      6.9786 *    -5.5829 *     2.7914 *  0.0000     2          
    99  Cl    c     -6.9786 *    -5.5829 *    -2.7914 *  0.0000     2          
   100  Cl    c     -6.9786 *    -2.7914 *    -5.5829 *  0.0000     2          
   101  Cl    c      4.1872 *     0.0000 *     8.3743 *  0.0000     2          
   102  Cl    c      4.1872 *     8.3743 *     0.0000    0.0000     1          
   103  Cl    c     -6.9786 *     2.7914 *    -5.5829 *  0.0000     2          
   104  Cl    c     -6.9786 *     5.5829 *    -2.7914 *  0.0000     2          
   105  Cl    c      4.1872 *    -8.3743 *     0.0000    0.0000     1          
   106  Na    c      4.1872 *    -2.7914 *     8.3743 *  0.0000     2          
   107  Na    c      4.1872 *     8.3743 *    -2.7914 *  0.0000     2          
   108  Na    c      4.1872 *     2.7914 *     8.3743 *  0.0000     2          
   109  Na    c      9.7701 *     0.0000 *     0.0000    0.0000     1          
   110  Na    c      4.1872 *    -8.3743 *     2.7914 *  0.0000     2          
   111  Cl    c     -4.1872 *    -8.3743 *     2.7914 *  0.0000     2          
   112  Cl    c     -4.1872 *     2.7914 *    -8.3743 *  0.0000     2          
   113  Cl    c     -4.1872 *    -2.7914 *     8.3743 *  0.0000     2          
   114  Cl    c     -9.7701 *     0.0000 *     0.0000    0.0000     1          
   115  Cl    c     -4.1872 *     8.3743 *    -2.7914 *  0.0000     2          
   116  Na    s     -1.3957 *     0.0000 *     0.0000    0.0000     1          
   117  Cl    s      0.0000 *     1.3957 *     0.0000    0.0000     1    Defect
   118  Na    s      1.3957 *     0.0000 *    -2.7914 *  0.0000     2          
   119  Na    s      1.3957 *    -2.7914 *     0.0000    0.0000     1          
   120  Na    s      1.3957 *     2.7914 *     0.0000    0.0000     1          
   121  Cl    s     -1.3957 *    -2.7914 *     0.0000    0.0000     1          
   122  Cl    s     -1.3957 *     0.0000 *    -2.7914 *  0.0000     2          
   123  Na    s      4.1872 *     0.0000 *     0.0000    0.0000     1          
   124  Cl    s     -4.1872 *     0.0000 *     0.0000    0.0000     1          
   125  Na    s     -1.3957 *    -2.7914 *    -2.7914 *  0.0000     2          
   126  Na    s     -1.3957 *     2.7914 *    -2.7914 *  0.0000     2          
   127  Cl    s      1.3957 *    -2.7914 *     2.7914 *  0.0000     2          
   128  Cl    s      1.3957 *     2.7914 *    -2.7914 *  0.0000     2          
   129  Na    s     -4.1872 *    -2.7914 *     0.0000    0.0000     1          
   130  Na    s     -4.1872 *     0.0000 *    -2.7914 *  0.0000     2          
   131  Na    s     -4.1872 *     2.7914 *     0.0000    0.0000     1          
   132  Cl    s      4.1872 *     2.7914 *     0.0000    0.0000     1          
   133  Cl    s      4.1872 *     0.0000 *     2.7914 *  0.0000     2          
   134  Cl    s      4.1872 *    -2.7914 *     0.0000    0.0000     1          
   135  Na    s      4.1872 *     2.7914 *    -2.7914 *  0.0000     2          
   136  Na    s     -1.3957 *    -5.5829 *     0.0000    0.0000     1          
   137  Na    s      4.1872 *    -2.7914 *     2.7914 *  0.0000     2          
   138  Na    s     -1.3957 *     0.0000 *    -5.5829 *  0.0000     2          
   139  Na    s     -1.3957 *     5.5829 *     0.0000    0.0000     1          
   140  Cl    s     -4.1872 *    -2.7914 *    -2.7914 *  0.0000     2          
   141  Cl    s      1.3957 *     0.0000 *     5.5829 *  0.0000     2          
   142  Cl    s      1.3957 *     5.5829 *     0.0000    0.0000     1          
   143  Cl    s     -4.1872 *     2.7914 *    -2.7914 *  0.0000     2          
   144  Cl    s      1.3957 *    -5.5829 *     0.0000    0.0000     1          
   145  Na    s      1.3957 *    -5.5829 *     2.7914 *  0.0000     2          
   146  Na    s      1.3957 *     2.7914 *    -5.5829 *  0.0000     2          
   147  Na    s      1.3957 *    -2.7914 *     5.5829 *  0.0000     2          
   148  Na    s      1.3957 *     5.5829 *    -2.7914 *  0.0000     2          
   149  Cl    s     -1.3957 *    -5.5829 *     2.7914 *  0.0000     2          
   150  Cl    s     -1.3957 *     2.7914 *    -5.5829 *  0.0000     2          
   151  Cl    s     -1.3957 *    -2.7914 *     5.5829 *  0.0000     2          
   152  Cl    s     -1.3957 *     5.5829 *    -2.7914 *  0.0000     2          
   153  Na    s      4.1872 *     5.5829 *     0.0000    0.0000     1          
   154  Na    s      4.1872 *     0.0000 *     5.5829 *  0.0000     2          
   155  Na    s      4.1872 *    -5.5829 *     0.0000    0.0000     1          
   156  Cl    s     -4.1872 *    -5.5829 *     0.0000    0.0000     1          
   157  Cl    s     -4.1872 *     0.0000 *    -5.5829 *  0.0000     2          
   158  Cl    s     -4.1872 *     5.5829 *     0.0000    0.0000     1          
   159  Na    s     -6.9786 *     0.0000 *     0.0000    0.0000     1          
   160  Cl    s      6.9786 *     0.0000 *     0.0000    0.0000     1          
   161  Na    s     -4.1872 *    -5.5829 *    -2.7914 *  0.0000     2          
   162  Na    s     -4.1872 *    -2.7914 *    -5.5829 *  0.0000     2          
   163  Na    s     -4.1872 *     2.7914 *    -5.5829 *  0.0000     2          
   164  Na    s     -4.1872 *     5.5829 *    -2.7914 *  0.0000     2          
   165  Cl    s      4.1872 *    -2.7914 *     5.5829 *  0.0000     2          
   166  Cl    s      4.1872 *     5.5829 *    -2.7914 *  0.0000     2          
   167  Cl    s      4.1872 *     2.7914 *     5.5829 *  0.0000     2          
   168  Cl    s      4.1872 *    -5.5829 *     2.7914 *  0.0000     2          
   169  Na    s      6.9786 *     2.7914 *     0.0000    0.0000     1          
   170  Na    s      6.9786 *     0.0000 *     2.7914 *  0.0000     2          
   171  Na    s      6.9786 *    -2.7914 *     0.0000    0.0000     1          
   172  Cl    s     -6.9786 *    -2.7914 *     0.0000    0.0000     1          
   173  Cl    s     -6.9786 *     0.0000 *    -2.7914 *  0.0000     2          
   174  Cl    s     -6.9786 *     2.7914 *     0.0000    0.0000     1          
   175  Na    s     -1.3957 *    -5.5829 *     5.5829 *  0.0000     2          
   176  Na    s     -6.9786 *    -2.7914 *    -2.7914 *  0.0000     2          
   177  Na    s     -1.3957 *     5.5829 *    -5.5829 *  0.0000     2          
   178  Na    s     -6.9786 *     2.7914 *    -2.7914 *  0.0000     2          
   179  Cl    s      6.9786 *     2.7914 *     2.7914 *  0.0000     2          
   180  Cl    s      1.3957 *    -5.5829 *     5.5829 *  0.0000     2          
   181  Cl    s      1.3957 *     5.5829 *    -5.5829 *  0.0000     2          
   182  Cl    s      6.9786 *    -2.7914 *     2.7914 *  0.0000     2          
   183  Na    s      1.3957 *     0.0000 *     8.3743 *  0.0000     2          
   184  Na    s      1.3957 *     8.3743 *     0.0000    0.0000     1          
   185  Na    s      1.3957 *    -8.3743 *     0.0000    0.0000     1          
   186  Cl    s     -1.3957 *     0.0000 *     8.3743 *  0.0000     2          
   187  Cl    s     -1.3957 *     8.3743 *     0.0000    0.0000     1          
   188  Cl    s     -1.3957 *    -8.3743 *     0.0000    0.0000     1          
   189  Na    s     -1.3957 *    -8.3743 *     2.7914 *  0.0000     2          
   190  Na    s     -1.3957 *     8.3743 *    -2.7914 *  0.0000     2          
   191  Cl    s      1.3957 *     8.3743 *    -2.7914 *  0.0000     2          
   192  Cl    s      1.3957 *    -8.3743 *     2.7914 *  0.0000     2          
   193  Na    s      4.1872 *    -5.5829 *     5.5829 *  0.0000     2          
   194  Na    s      4.1872 *     5.5829 *    -5.5829 *  0.0000     2          
   195  Na    s     -1.3957 *     2.7914 *    -8.3743 *  0.0000     2          
   196  Na    s     -6.9786 *    -5.5829 *     0.0000    0.0000     1          
   197  Na    s     -6.9786 *     0.0000 *    -5.5829 *  0.0000     2          
   198  Na    s     -1.3957 *    -2.7914 *     8.3743 *  0.0000     2          
   199  Na    s     -6.9786 *     5.5829 *     0.0000    0.0000     1          
   200  Cl    s      6.9786 *     5.5829 *     0.0000    0.0000     1          
   201  Cl    s      6.9786 *     0.0000 *     5.5829 *  0.0000     2          
   202  Cl    s     -4.1872 *    -5.5829 *     5.5829 *  0.0000     2          
   203  Cl    s      1.3957 *    -2.7914 *     8.3743 *  0.0000     2          
   204  Cl    s     -4.1872 *     5.5829 *    -5.5829 *  0.0000     2          
   205  Cl    s      1.3957 *     2.7914 *     8.3743 *  0.0000     2          
   206  Cl    s      6.9786 *    -5.5829 *     0.0000    0.0000     1          
   207  Na    s      6.9786 *     5.5829 *    -2.7914 *  0.0000     2          
   208  Na    s     -4.1872 *    -8.3743 *     0.0000    0.0000     1          
   209  Na    s      6.9786 *    -2.7914 *     5.5829 *  0.0000     2          
   210  Na    s     -4.1872 *     0.0000 *    -8.3743 *  0.0000     2          
   211  Na    s      6.9786 *     2.7914 *     5.5829 *  0.0000     2          
   212  Na    s     -4.1872 *     8.3743 *     0.0000    0.0000     1          
   213  Na    s      6.9786 *    -5.5829 *     2.7914 *  0.0000     2          
   214  Cl    s     -6.9786 *    -5.5829 *    -2.7914 *  0.0000     2          
   215  Cl    s     -6.9786 *    -2.7914 *    -5.5829 *  0.0000     2          
   216  Cl    s      4.1872 *     0.0000 *     8.3743 *  0.0000     2          
   217  Cl    s      4.1872 *     8.3743 *     0.0000    0.0000     1          
   218  Cl    s     -6.9786 *     2.7914 *    -5.5829 *  0.0000     2          
   219  Cl    s     -6.9786 *     5.5829 *    -2.7914 *  0.0000     2          
   220  Cl    s      4.1872 *    -8.3743 *     0.0000    0.0000     1          
   221  Na    s      4.1872 *    -2.7914 *     8.3743 *  0.0000     2          
   222  Na    s      4.1872 *     8.3743 *    -2.7914 *  0.0000     2          
   223  Na    s      4.1872 *     2.7914 *     8.3743 *  0.0000     2          
   224  Na    s      9.7701 *     0.0000 *     0.0000    0.0000     1          
   225  Na    s      4.1872 *    -8.3743 *     2.7914 *  0.0000     2          
   226  Cl    s     -4.1872 *    -8.3743 *     2.7914 *  0.0000     2          
   227  Cl    s     -4.1872 *     2.7914 *    -8.3743 *  0.0000     2          
   228  Cl    s     -4.1872 *    -2.7914 *     8.3743 *  0.0000     2          
   229  Cl    s     -9.7701 *     0.0000 *     0.0000    0.0000     1          
   230  Cl    s     -4.1872 *     8.3743 *    -2.7914 *  0.0000     2          
--------------------------------------------------------------------------------

  Components of defect energy : 

--------------------------------------------------------------------------------
  Region 1 - region 1                   =     10.50200341 eV
  Region 1 - region 2a (unrelaxed)      =      0.00589108 eV
  Region 1 - 2a (relaxed - correction)  =     -0.60749255 eV
  Region 1 (Total)                      =      9.90040195 eV
  Region 2a                             =      0.30377983 eV
  Region 2b                             =     -0.29537495 eV
--------------------------------------------------------------------------------
  Total defect energy                   =      9.90880683 eV
--------------------------------------------------------------------------------

  Largest displacement in region 2 =   0.0162 Angstroms


  Number of variables =      612

  Maximum number of calculations  =        1000
  Maximum Hessian update interval =          10
  Maximum step size               =   1.0000000
  Maximum parameter tolerance     =   0.0000100
  Maximum function  tolerance     =   0.0000100
  Maximum gradient  tolerance     =   0.0010000

  Symmetry adapted optimisation

  Symmetry to be used for second derivatives

  Newton-Raphson optimiser to be used

  BFGS hessian update to be used

  Lower half triangular hessian to be used

  Start of defect optimisation :

  Cycle:      0 Defect Energy:   9.908807  Gnorm:     0.031564  CPU:    0.739
  ** Hessian calculated **
  Cycle:      1 Defect Energy:   7.206968  Gnorm:     0.014348  CPU:    2.216
  Cycle:      2 Defect Energy:   6.089467  Gnorm:     0.003712  CPU:    3.397
  Cycle:      3 Defect Energy:   6.032952  Gnorm:     0.003173  CPU:    3.655
  Cycle:      4 Defect Energy:   5.964621  Gnorm:     0.002262  CPU:    3.908
  Cycle:      5 Defect Energy:   5.924837  Gnorm:     0.001618  CPU:    4.161
  Cycle:      6 Defect Energy:   5.902050  Gnorm:     0.001154  CPU:    4.415
  Cycle:      7 Defect Energy:   5.891843  Gnorm:     0.000867  CPU:    4.668
  ** Hessian calculated **
  Cycle:      8 Defect Energy:   5.882071  Gnorm:     0.000610  CPU:    5.253
  Cycle:      9 Defect Energy:   5.877116  Gnorm:     0.000431  CPU:    5.507
  Cycle:     10 Defect Energy:   5.874536  Gnorm:     0.000304  CPU:    5.760
  Cycle:     11 Defect Energy:   5.873201  Gnorm:     0.000214  CPU:    6.015
  Cycle:     12 Defect Energy:   5.872512  Gnorm:     0.000150  CPU:    6.267
  Cycle:     13 Defect Energy:   5.872166  Gnorm:     0.000105  CPU:    6.519
  Cycle:     14 Defect Energy:   5.871980  Gnorm:     0.000074  CPU:    6.773
  Cycle:     15 Defect Energy:   5.871883  Gnorm:     0.000052  CPU:    7.027
  Cycle:     16 Defect Energy:   5.871836  Gnorm:     0.000036  CPU:    7.281
  Cycle:     17 Defect Energy:   5.871808  Gnorm:     0.000025  CPU:    7.534
  ** Hessian calculated **
  Cycle:     18 Defect Energy:   5.871792  Gnorm:     0.000018  CPU:    8.123


  **** Optimisation achieved ****


  Final defect energy  =        5.87178340
  Final defect Gnorm   =        0.00001245

  Components of defect energy : 

--------------------------------------------------------------------------------
  Region 1 - region 1                   =      6.22607647 eV
  Region 1 - region 2a (unrelaxed)      =      0.20118812 eV
  Region 1 - 2a (relaxed - correction)  =     -0.52155939 eV
  Region 1 (Total)                      =      5.90570520 eV
  Region 2a                             =      0.26067398 eV
  Region 2b                             =     -0.29459578 eV
--------------------------------------------------------------------------------
  Total defect energy                   =      5.87178340 eV
--------------------------------------------------------------------------------

  Largest displacement in region 2 =   0.0162 Angstroms

  Final coordinates of region 1 :

--------------------------------------------------------------------------------
   No.  Atomic        x           y           z          Radius      Charge
        Label       (Angs)      (Angs)      (Angs)       (Angs)       (e) 
--------------------------------------------------------------------------------
     1  Na    c    -0.349882   -0.363092    0.000000    0.000000   -1.128000
     2  Cl    c     1.397606    1.387083    0.000000    0.000000    1.485000
     3  Na    c     2.690525    0.097379   -2.817473    0.000000   -1.128000
     4  Na    c     2.690525    0.097379    2.817473    0.000000   -1.128000
     5  Na    c     2.772734   -3.023430    0.000000    0.000000   -1.128000
     6  Na    c     3.145816    3.134633    0.000000    0.000000   -1.128000
     7  Cl    c     0.007573   -2.935991    0.000000    0.000000    1.485000
     8  Cl    c    -0.070344   -0.076072   -2.819896    0.000000    1.485000
     9  Cl    c    -0.070344   -0.076072    2.819896    0.000000    1.485000
    10  Na    c     5.811245    0.015441    0.000000    0.000000   -1.128000
    11  Cl    c    -2.921679    0.002870    0.000000    0.000000    1.485000
    12  Na    c    -0.019464   -2.852827   -2.834247    0.000000   -1.128000
    13  Na    c    -0.019464   -2.852827    2.834247    0.000000   -1.128000
    14  Na    c     0.107212    2.684437   -2.826115    0.000000   -1.128000
    15  Na    c     0.107212    2.684437    2.826115    0.000000   -1.128000
    16  Cl    c     2.766158   -2.702001    2.703620    0.000000    1.485000
    17  Cl    c     2.766158   -2.702001   -2.703620    0.000000    1.485000
    18  Cl    c     2.867636    2.861670   -2.816816    0.000000    1.485000
    19  Cl    c     2.867636    2.861670    2.816816    0.000000    1.485000
    20  Na    c    -2.870404   -2.884824    0.000000    0.000000   -1.128000
    21  Na    c    -2.841229   -0.027798   -2.834030    0.000000   -1.128000
    22  Na    c    -2.841229   -0.027798    2.834030    0.000000   -1.128000
    23  Na    c    -3.003808    2.766394    0.000000    0.000000   -1.128000
    24  Cl    c     5.718019    2.784276    0.000000    0.000000    1.485000
    25  Cl    c     5.493495    0.028479    2.704168    0.000000    1.485000
    26  Cl    c     5.493495    0.028479   -2.704168    0.000000    1.485000
    27  Cl    c     5.510982   -2.719832    0.000000    0.000000    1.485000
    28  Na    c     5.639303    2.814654   -2.837856    0.000000   -1.128000
    29  Na    c     5.639303    2.814654    2.837856    0.000000   -1.128000
    30  Na    c    -0.025643   -5.681127    0.000000    0.000000   -1.128000
    31  Na    c     5.569264   -2.780416    2.796189    0.000000   -1.128000
    32  Na    c     5.569264   -2.780416   -2.796189    0.000000   -1.128000
    33  Na    c    -0.023806   -0.028117   -5.618166    0.000000   -1.128000
    34  Na    c    -0.023806   -0.028117    5.618166    0.000000   -1.128000
    35  Na    c     0.020419    5.797224    0.000000    0.000000   -1.128000
    36  Cl    c    -2.794311   -2.799554   -2.767565    0.000000    1.485000
    37  Cl    c    -2.794311   -2.799554    2.767565    0.000000    1.485000
    38  Cl    c     2.775671    0.016640    5.562625    0.000000    1.485000
    39  Cl    c     2.775671    0.016640   -5.562625    0.000000    1.485000
    40  Cl    c     2.785839    5.707989    0.000000    0.000000    1.485000
    41  Cl    c    -2.692489    2.761039   -2.703343    0.000000    1.485000
    42  Cl    c    -2.692489    2.761039    2.703343    0.000000    1.485000
    43  Cl    c     2.796127   -5.671026    0.000000    0.000000    1.485000
    44  Na    c     2.792541   -5.608502    2.802642    0.000000   -1.128000
    45  Na    c     2.792541   -5.608502   -2.802642    0.000000   -1.128000
    46  Na    c     2.821147    2.810046   -5.615104    0.000000   -1.128000
    47  Na    c     2.821147    2.810046    5.615104    0.000000   -1.128000
    48  Na    c     2.790035   -2.780975    5.579722    0.000000   -1.128000
    49  Na    c     2.790035   -2.780975   -5.579722    0.000000   -1.128000
    50  Na    c     2.819439    5.629148   -2.830200    0.000000   -1.128000
    51  Na    c     2.819439    5.629148    2.830200    0.000000   -1.128000
    52  Cl    c     0.011509   -5.600980    2.793557    0.000000    1.485000
    53  Cl    c     0.011509   -5.600980   -2.793557    0.000000    1.485000
    54  Cl    c     0.021710    2.777555   -5.569225    0.000000    1.485000
    55  Cl    c     0.021710    2.777555    5.569225    0.000000    1.485000
    56  Cl    c     0.005519   -2.807226    5.590230    0.000000    1.485000
    57  Cl    c     0.005519   -2.807226   -5.590230    0.000000    1.485000
    58  Cl    c     0.032507    5.494256   -2.709362    0.000000    1.485000
    59  Cl    c     0.032507    5.494256    2.709362    0.000000    1.485000
    60  Na    c     5.663041    5.657267    0.000000    0.000000   -1.128000
    61  Na    c     5.572317    0.003675    5.580982    0.000000   -1.128000
    62  Na    c     5.572317    0.003675   -5.580982    0.000000   -1.128000
    63  Na    c     5.597869   -5.606754    0.000000    0.000000   -1.128000
    64  Cl    c    -2.803193   -5.617209    0.000000    0.000000    1.485000
    65  Cl    c    -2.804294    0.001836   -5.589242    0.000000    1.485000
    66  Cl    c    -2.804294    0.001836    5.589242    0.000000    1.485000
    67  Cl    c    -2.718208    5.510610    0.000000    0.000000    1.485000
    68  Na    c    -5.657638   -0.031560    0.000000    0.000000   -1.128000
    69  Cl    c     8.462266   -0.004097    0.000000    0.000000    1.485000
    70  Na    c    -2.797096   -5.606305   -2.796080    0.000000   -1.128000
    71  Na    c    -2.797096   -5.606305    2.796080    0.000000   -1.128000
    72  Na    c    -2.796429   -2.800622   -5.590298    0.000000   -1.128000
    73  Na    c    -2.796429   -2.800622    5.590298    0.000000   -1.128000
    74  Na    c    -2.774377    2.781788   -5.579240    0.000000   -1.128000
    75  Na    c    -2.774377    2.781788    5.579240    0.000000   -1.128000
    76  Na    c    -2.769597    5.560238   -2.791529    0.000000   -1.128000
    77  Na    c    -2.769597    5.560238    2.791529    0.000000   -1.128000
    78  Cl    c     5.572247   -2.778972    5.564993    0.000000    1.485000
    79  Cl    c     5.572247   -2.778972   -5.564993    0.000000    1.485000
    80  Cl    c     5.594868    5.594927   -2.774586    0.000000    1.485000
    81  Cl    c     5.594868    5.594927    2.774586    0.000000    1.485000
    82  Cl    c     5.600879    2.794382    5.593595    0.000000    1.485000
    83  Cl    c     5.600879    2.794382   -5.593595    0.000000    1.485000
    84  Cl    c     5.571882   -5.562062    2.782197    0.000000    1.485000
    85  Cl    c     5.571882   -5.562062   -2.782197    0.000000    1.485000
    86  Na    c     8.451580    2.810222    0.000000    0.000000   -1.128000
    87  Na    c     8.395087    0.000582    2.803473    0.000000   -1.128000
    88  Na    c     8.395087    0.000582   -2.803473    0.000000   -1.128000
    89  Na    c     8.394157   -2.806754    0.000000    0.000000   -1.128000
    90  Cl    c    -5.603247   -2.805403    0.000000    0.000000    1.485000
    91  Cl    c    -5.589445    0.007126   -2.792335    0.000000    1.485000
    92  Cl    c    -5.589445    0.007126    2.792335    0.000000    1.485000
    93  Cl    c    -5.648938    2.795380    0.000000    0.000000    1.485000
    94  Na    c    -0.003080   -5.602362    5.598448    0.000000   -1.128000
    95  Na    c    -0.003080   -5.602362   -5.598448    0.000000   -1.128000
    96  Na    c    -5.600638   -2.805487   -2.799558    0.000000   -1.128000
    97  Na    c    -5.600638   -2.805487    2.799558    0.000000   -1.128000
    98  Na    c     0.005796    5.573911   -5.588562    0.000000   -1.128000
    99  Na    c     0.005796    5.573911    5.588562    0.000000   -1.128000
   100  Na    c    -5.597556    2.785612   -2.804801    0.000000   -1.128000
   101  Na    c    -5.597556    2.785612    2.804801    0.000000   -1.128000
   102  Cl    c     8.383730    2.786896    2.794833    0.000000    1.485000
   103  Cl    c     8.383730    2.786896   -2.794833    0.000000    1.485000
   104  Cl    c     2.794126   -5.561804    5.565683    0.000000    1.485000
   105  Cl    c     2.794126   -5.561804   -5.565683    0.000000    1.485000
   106  Cl    c     2.789696    5.592669   -5.583717    0.000000    1.485000
   107  Cl    c     2.789696    5.592669    5.583717    0.000000    1.485000
   108  Cl    c     8.350003   -2.777450    2.780856    0.000000    1.485000
   109  Cl    c     8.350003   -2.777450   -2.780856    0.000000    1.485000
   110  Na    c     2.791585   -0.000630    8.386114    0.000000   -1.128000
   111  Na    c     2.791585   -0.000630   -8.386114    0.000000   -1.128000
   112  Na    c     2.817465    8.444790    0.000000    0.000000   -1.128000
   113  Na    c     2.798391   -8.423475    0.000000    0.000000   -1.128000
   114  Cl    c     0.000096   -0.000740    8.373189    0.000000    1.485000
   115  Cl    c     0.000096   -0.000740   -8.373189    0.000000    1.485000
   116  Cl    c    -0.002135    8.441799    0.000000    0.000000    1.485000
   117  Cl    c    -0.000043   -8.400625    0.000000    0.000000    1.485000
   118  Na    c    -0.000792   -8.401659    2.801079    0.000000   -1.128000
   119  Na    c    -0.000792   -8.401659   -2.801079    0.000000   -1.128000
   120  Na    c     0.002998    8.394692   -2.808937    0.000000   -1.128000
   121  Na    c     0.002998    8.394692    2.808937    0.000000   -1.128000
   122  Cl    c     2.783559    8.377614   -2.788772    0.000000    1.485000
   123  Cl    c     2.783559    8.377614    2.788772    0.000000    1.485000
   124  Cl    c     2.794500   -8.373245    2.791354    0.000000    1.485000
   125  Cl    c     2.794500   -8.373245   -2.791354    0.000000    1.485000
   126  Na    c     5.589995   -5.590739    5.592238    0.000000   -1.128000
   127  Na    c     5.589995   -5.590739   -5.592238    0.000000   -1.128000
   128  Na    c     5.598430    5.595078   -5.600474    0.000000   -1.128000
   129  Na    c     5.598430    5.595078    5.600474    0.000000   -1.128000
   130  Na    c     0.001663    2.791139   -8.392494    0.000000   -1.128000
   131  Na    c     0.001663    2.791139    8.392494    0.000000   -1.128000
   132  Na    c    -5.607342   -5.610840    0.000000    0.000000   -1.128000
   133  Na    c    -5.600889   -0.005993   -5.601028    0.000000   -1.128000
   134  Na    c    -5.600889   -0.005993    5.601028    0.000000   -1.128000
   135  Na    c    -0.000707   -2.801943    8.393823    0.000000   -1.128000
   136  Na    c    -0.000707   -2.801943   -8.393823    0.000000   -1.128000
   137  Na    c    -5.603541    5.599080    0.000000    0.000000   -1.128000
   138  Cl    c     8.393125    5.586953    0.000000    0.000000    1.485000
   139  Cl    c     8.352723   -0.000594    5.563872    0.000000    1.485000
   140  Cl    c     8.352723   -0.000594   -5.563872    0.000000    1.485000
   141  Cl    c    -2.785151   -5.575119    5.573636    0.000000    1.485000
   142  Cl    c    -2.785151   -5.575119   -5.573636    0.000000    1.485000
   143  Cl    c     2.792321   -2.783887    8.358469    0.000000    1.485000
   144  Cl    c     2.792321   -2.783887   -8.358469    0.000000    1.485000
   145  Cl    c    -2.771068    5.567805   -5.556810    0.000000    1.485000
   146  Cl    c    -2.771068    5.567805    5.556810    0.000000    1.485000
   147  Cl    c     2.793668    2.790730    8.368836    0.000000    1.485000
   148  Cl    c     2.793668    2.790730   -8.368836    0.000000    1.485000
   149  Cl    c     8.361088   -5.567347    0.000000    0.000000    1.485000
   150  Na    c     8.400976    5.596711   -2.804806    0.000000   -1.128000
   151  Na    c     8.400976    5.596711    2.804806    0.000000   -1.128000
   152  Na    c    -2.805053   -8.407404    0.000000    0.000000   -1.128000
   153  Na    c     8.382734   -2.798701    5.593681    0.000000   -1.128000
   154  Na    c     8.382734   -2.798701   -5.593681    0.000000   -1.128000
   155  Na    c    -2.800676   -0.002555   -8.394058    0.000000   -1.128000
   156  Na    c    -2.800676   -0.002555    8.394058    0.000000   -1.128000
   157  Na    c     8.397246    2.796666    5.604690    0.000000   -1.128000
   158  Na    c     8.397246    2.796666   -5.604690    0.000000   -1.128000
   159  Na    c    -2.808085    8.395083    0.000000    0.000000   -1.128000
   160  Na    c     8.382963   -5.592421    2.800745    0.000000   -1.128000
   161  Na    c     8.382963   -5.592421   -2.800745    0.000000   -1.128000
   162  Cl    c    -5.574507   -5.576977   -2.786883    0.000000    1.485000
   163  Cl    c    -5.574507   -5.576977    2.786883    0.000000    1.485000
   164  Cl    c    -5.572907   -2.785198   -5.572948    0.000000    1.485000
   165  Cl    c    -5.572907   -2.785198    5.572948    0.000000    1.485000
   166  Cl    c     5.575591    0.000740    8.358221    0.000000    1.485000
   167  Cl    c     5.575591    0.000740   -8.358221    0.000000    1.485000
   168  Cl    c     5.587305    8.390560    0.000000    0.000000    1.485000
   169  Cl    c    -5.556697    2.791848   -5.561563    0.000000    1.485000
   170  Cl    c    -5.556697    2.791848    5.561563    0.000000    1.485000
   171  Cl    c    -5.551363    5.565315   -2.774190    0.000000    1.485000
   172  Cl    c    -5.551363    5.565315    2.774190    0.000000    1.485000
   173  Cl    c     5.585912   -8.370613    0.000000    0.000000    1.485000
   174  Na    c     5.588141   -2.796399    8.389868    0.000000   -1.128000
   175  Na    c     5.588141   -2.796399   -8.389868    0.000000   -1.128000
   176  Na    c     5.599454    8.401084   -2.805778    0.000000   -1.128000
   177  Na    c     5.599454    8.401084    2.805778    0.000000   -1.128000
   178  Na    c     5.595524    2.795252    8.399883    0.000000   -1.128000
   179  Na    c     5.595524    2.795252   -8.399883    0.000000   -1.128000
   180  Na    c    11.224031   -0.006063    0.000000    0.000000   -1.128000
   181  Na    c     5.590261   -8.392691    2.798009    0.000000   -1.128000
   182  Na    c     5.590261   -8.392691   -2.798009    0.000000   -1.128000
   183  Cl    c    -2.784197   -8.368964    2.787384    0.000000    1.485000
   184  Cl    c    -2.784197   -8.368964   -2.787384    0.000000    1.485000
   185  Cl    c    -2.782060    2.789858   -8.354135    0.000000    1.485000
   186  Cl    c    -2.782060    2.789858    8.354135    0.000000    1.485000
   187  Cl    c    -2.784927   -2.785292    8.362118    0.000000    1.485000
   188  Cl    c    -2.784927   -2.785292   -8.362118    0.000000    1.485000
   189  Cl    c    -8.376496   -0.000496    0.000000    0.000000    1.485000
   190  Cl    c    -2.771273    8.342543   -2.774754    0.000000    1.485000
   191  Cl    c    -2.771273    8.342543    2.774754    0.000000    1.485000
   192  Na    s    -0.346626   -0.359799    0.000000    0.000000    2.128000
   193  Cl    s     1.398150    1.387338    0.000000    0.000000   -2.485000
   194  Na    s     2.690093    0.097654   -2.823792    0.000000    2.128000
   195  Na    s     2.690093    0.097654    2.823792    0.000000    2.128000
   196  Na    s     2.773164   -3.031588    0.000000    0.000000    2.128000
   197  Na    s     3.142518    3.131240    0.000000    0.000000    2.128000
   198  Cl    s     0.009498   -2.911791    0.000000    0.000000   -2.485000
   199  Cl    s    -0.068552   -0.073698   -2.823935    0.000000   -2.485000
   200  Cl    s    -0.068552   -0.073698    2.823935    0.000000   -2.485000
   201  Na    s     5.819322    0.014861    0.000000    0.000000    2.128000
   202  Cl    s    -2.898702    0.005500    0.000000    0.000000   -2.485000
   203  Na    s    -0.019766   -2.853219   -2.835467    0.000000    2.128000
   204  Na    s    -0.019766   -2.853219    2.835467    0.000000    2.128000
   205  Na    s     0.107567    2.683883   -2.832450    0.000000    2.128000
   206  Na    s     0.107567    2.683883    2.832450    0.000000    2.128000
   207  Cl    s     2.764526   -2.700723    2.692019    0.000000   -2.485000
   208  Cl    s     2.764526   -2.700723   -2.692019    0.000000   -2.485000
   209  Cl    s     2.865807    2.860678   -2.820617    0.000000   -2.485000
   210  Cl    s     2.865807    2.860678    2.820617    0.000000   -2.485000
   211  Na    s    -2.873109   -2.887704    0.000000    0.000000    2.128000
   212  Na    s    -2.841462   -0.028227   -2.835271    0.000000    2.128000
   213  Na    s    -2.841462   -0.028227    2.835271    0.000000    2.128000
   214  Na    s    -3.012059    2.766697    0.000000    0.000000    2.128000
   215  Cl    s     5.695056    2.783038    0.000000    0.000000   -2.485000
   216  Cl    s     5.492775    0.030483    2.692509    0.000000   -2.485000
   217  Cl    s     5.492775    0.030483   -2.692509    0.000000   -2.485000
   218  Cl    s     5.504270   -2.712439    0.000000    0.000000   -2.485000
   219  Na    s     5.639665    2.814845   -2.839142    0.000000    2.128000
   220  Na    s     5.639665    2.814845    2.839142    0.000000    2.128000
   221  Na    s    -0.026311   -5.681968    0.000000    0.000000    2.128000
   222  Na    s     5.569594   -2.780840    2.796442    0.000000    2.128000
   223  Na    s     5.569594   -2.780840   -2.796442    0.000000    2.128000
   224  Na    s    -0.024149   -0.028614   -5.618770    0.000000    2.128000
   225  Na    s    -0.024149   -0.028614    5.618770    0.000000    2.128000
   226  Na    s     0.019953    5.805559    0.000000    0.000000    2.128000
   227  Cl    s    -2.792371   -2.797345   -2.764012    0.000000   -2.485000
   228  Cl    s    -2.792371   -2.797345    2.764012    0.000000   -2.485000
   229  Cl    s     2.775621    0.017403    5.554917    0.000000   -2.485000
   230  Cl    s     2.775621    0.017403   -5.554917    0.000000   -2.485000
   231  Cl    s     2.784147    5.685182    0.000000    0.000000   -2.485000
   232  Cl    s    -2.691304    2.760113   -2.691593    0.000000   -2.485000
   233  Cl    s    -2.691304    2.760113    2.691593    0.000000   -2.485000
   234  Cl    s     2.797408   -5.651712    0.000000    0.000000   -2.485000
   235  Na    s     2.792567   -5.611166    2.803387    0.000000    2.128000
   236  Na    s     2.792567   -5.611166   -2.803387    0.000000    2.128000
   237  Na    s     2.821483    2.810233   -5.615786    0.000000    2.128000
   238  Na    s     2.821483    2.810233    5.615786    0.000000    2.128000
   239  Na    s     2.790070   -2.781333    5.581758    0.000000    2.128000
   240  Na    s     2.790070   -2.781333   -5.581758    0.000000    2.128000
   241  Na    s     2.819703    5.629350   -2.831428    0.000000    2.128000
   242  Na    s     2.819703    5.629350    2.831428    0.000000    2.128000
   243  Cl    s     0.013411   -5.595964    2.793154    0.000000   -2.485000
   244  Cl    s     0.013411   -5.595964   -2.793154    0.000000   -2.485000
   245  Cl    s     0.021700    2.777874   -5.561105    0.000000   -2.485000
   246  Cl    s     0.021700    2.777874    5.561105    0.000000   -2.485000
   247  Cl    s     0.006584   -2.805558    5.585062    0.000000   -2.485000
   248  Cl    s     0.006584   -2.805558   -5.585062    0.000000   -2.485000
   249  Cl    s     0.033818    5.493916   -2.697771    0.000000   -2.485000
   250  Cl    s     0.033818    5.493916    2.697771    0.000000   -2.485000
   251  Na    s     5.665873    5.659960    0.000000    0.000000    2.128000
   252  Na    s     5.572661    0.003497    5.583057    0.000000    2.128000
   253  Na    s     5.572661    0.003497   -5.583057    0.000000    2.128000
   254  Na    s     5.598510   -5.609169    0.000000    0.000000    2.128000
   255  Cl    s    -2.801126   -5.610381    0.000000    0.000000   -2.485000
   256  Cl    s    -2.802508    0.003438   -5.583896    0.000000   -2.485000
   257  Cl    s    -2.802508    0.003438    5.583896    0.000000   -2.485000
   258  Cl    s    -2.710781    5.503936    0.000000    0.000000   -2.485000
   259  Na    s    -5.658438   -0.032403    0.000000    0.000000    2.128000
   260  Cl    s     8.442051   -0.004589    0.000000    0.000000   -2.485000
   261  Na    s    -2.797792   -5.607264   -2.796415    0.000000    2.128000
   262  Na    s    -2.797792   -5.607264    2.796415    0.000000    2.128000
   263  Na    s    -2.797009   -2.801251   -5.591422    0.000000    2.128000
   264  Na    s    -2.797009   -2.801251    5.591422    0.000000    2.128000
   265  Na    s    -2.774667    2.781659   -5.581372    0.000000    2.128000
   266  Na    s    -2.774667    2.781659    5.581372    0.000000    2.128000
   267  Na    s    -2.769862    5.560494   -2.791751    0.000000    2.128000
   268  Na    s    -2.769862    5.560494    2.791751    0.000000    2.128000
   269  Cl    s     5.569566   -2.776302    5.560010    0.000000   -2.485000
   270  Cl    s     5.569566   -2.776302   -5.560010    0.000000   -2.485000
   271  Cl    s     5.592823    5.593240   -2.771259    0.000000   -2.485000
   272  Cl    s     5.592823    5.593240    2.771259    0.000000   -2.485000
   273  Cl    s     5.599078    2.793827    5.588085    0.000000   -2.485000
   274  Cl    s     5.599078    2.793827   -5.588085    0.000000   -2.485000
   275  Cl    s     5.569136   -5.558638    2.779983    0.000000   -2.485000
   276  Cl    s     5.569136   -5.558638   -2.779983    0.000000   -2.485000
   277  Na    s     8.452218    2.810802    0.000000    0.000000    2.128000
   278  Na    s     8.397483    0.000396    2.804301    0.000000    2.128000
   279  Na    s     8.397483    0.000396   -2.804301    0.000000    2.128000
   280  Na    s     8.396276   -2.807479    0.000000    0.000000    2.128000
   281  Cl    s    -5.598885   -2.802797    0.000000    0.000000   -2.485000
   282  Cl    s    -5.586239    0.009747   -2.791352    0.000000   -2.485000
   283  Cl    s    -5.586239    0.009747    2.791352    0.000000   -2.485000
   284  Cl    s    -5.633052    2.796767    0.000000    0.000000   -2.485000
   285  Na    s    -0.003381   -5.602699    5.598888    0.000000    2.128000
   286  Na    s    -0.003381   -5.602699   -5.598888    0.000000    2.128000
   287  Na    s    -5.601232   -2.806388   -2.800055    0.000000    2.128000
   288  Na    s    -5.601232   -2.806388    2.800055    0.000000    2.128000
   289  Na    s     0.005655    5.573736   -5.590380    0.000000    2.128000
   290  Na    s     0.005655    5.573736    5.590380    0.000000    2.128000
   291  Na    s    -5.599845    2.785586   -2.805733    0.000000    2.128000
   292  Na    s    -5.599845    2.785586    2.805733    0.000000    2.128000
   293  Cl    s     8.380442    2.785156    2.793936    0.000000   -2.485000
   294  Cl    s     8.380442    2.785156   -2.793936    0.000000   -2.485000
   295  Cl    s     2.794150   -5.559995    5.561636    0.000000   -2.485000
   296  Cl    s     2.794150   -5.559995   -5.561636    0.000000   -2.485000
   297  Cl    s     2.787814    5.592884   -5.579850    0.000000   -2.485000
   298  Cl    s     2.787814    5.592884    5.579850    0.000000   -2.485000
   299  Cl    s     8.348036   -2.774215    2.778195    0.000000   -2.485000
   300  Cl    s     8.348036   -2.774215   -2.778195    0.000000   -2.485000
   301  Na    s     2.791736   -0.000804    8.386972    0.000000    2.128000
   302  Na    s     2.791736   -0.000804   -8.386972    0.000000    2.128000
   303  Na    s     2.818248    8.445290    0.000000    0.000000    2.128000
   304  Na    s     2.798575   -8.423763    0.000000    0.000000    2.128000
   305  Cl    s     0.000781   -0.000085    8.369641    0.000000   -2.485000
   306  Cl    s     0.000781   -0.000085   -8.369641    0.000000   -2.485000
   307  Cl    s    -0.002808    8.425993    0.000000    0.000000   -2.485000
   308  Cl    s     0.000299   -8.395007    0.000000    0.000000   -2.485000
   309  Na    s    -0.001042   -8.402365    2.801407    0.000000    2.128000
   310  Na    s    -0.001042   -8.402365   -2.801407    0.000000    2.128000
   311  Na    s     0.002874    8.397045   -2.809373    0.000000    2.128000
   312  Na    s     0.002874    8.397045    2.809373    0.000000    2.128000
   313  Cl    s     2.780786    8.374094   -2.789123    0.000000   -2.485000
   314  Cl    s     2.780786    8.374094    2.789123    0.000000   -2.485000
   315  Cl    s     2.794388   -8.370749    2.791609    0.000000   -2.485000
   316  Cl    s     2.794388   -8.370749   -2.791609    0.000000   -2.485000
   317  Na    s     5.590135   -5.591231    5.592714    0.000000    2.128000
   318  Na    s     5.590135   -5.591231   -5.592714    0.000000    2.128000
   319  Na    s     5.599110    5.595496   -5.601501    0.000000    2.128000
   320  Na    s     5.599110    5.595496    5.601501    0.000000    2.128000
   321  Na    s     0.001492    2.791098   -8.393476    0.000000    2.128000
   322  Na    s     0.001492    2.791098    8.393476    0.000000    2.128000
   323  Na    s    -5.607982   -5.611608    0.000000    0.000000    2.128000
   324  Na    s    -5.601199   -0.006382   -5.601580    0.000000    2.128000
   325  Na    s    -5.601199   -0.006382    5.601580    0.000000    2.128000
   326  Na    s    -0.000898   -2.802303    8.394371    0.000000    2.128000
   327  Na    s    -0.000898   -2.802303   -8.394371    0.000000    2.128000
   328  Na    s    -5.605676    5.599328    0.000000    0.000000    2.128000
   329  Cl    s     8.388114    5.586832    0.000000    0.000000   -2.485000
   330  Cl    s     8.350815   -0.000438    5.559477    0.000000   -2.485000
   331  Cl    s     8.350815   -0.000438   -5.559477    0.000000   -2.485000
   332  Cl    s    -2.783797   -5.573113    5.571728    0.000000   -2.485000
   333  Cl    s    -2.783797   -5.573113   -5.571728    0.000000   -2.485000
   334  Cl    s     2.791967   -2.782533    8.356297    0.000000   -2.485000
   335  Cl    s     2.791967   -2.782533   -8.356297    0.000000   -2.485000
   336  Cl    s    -2.767812    5.565925   -5.552353    0.000000   -2.485000
   337  Cl    s    -2.767812    5.565925    5.552353    0.000000   -2.485000
   338  Cl    s     2.792883    2.790955    8.364633    0.000000   -2.485000
   339  Cl    s     2.792883    2.790955   -8.364633    0.000000   -2.485000
   340  Cl    s     8.357514   -5.563378    0.000000    0.000000   -2.485000
   341  Na    s     8.401753    5.597354   -2.805235    0.000000    2.128000
   342  Na    s     8.401753    5.597354    2.805235    0.000000    2.128000
   343  Na    s    -2.805513   -8.407999    0.000000    0.000000    2.128000
   344  Na    s     8.383202   -2.798886    5.594240    0.000000    2.128000
   345  Na    s     8.383202   -2.798886   -5.594240    0.000000    2.128000
   346  Na    s    -2.800997   -0.002768   -8.394627    0.000000    2.128000
   347  Na    s    -2.800997   -0.002768    8.394627    0.000000    2.128000
   348  Na    s     8.397667    2.796861    5.605361    0.000000    2.128000
   349  Na    s     8.397667    2.796861   -5.605361    0.000000    2.128000
   350  Na    s    -2.808384    8.397198    0.000000    0.000000    2.128000
   351  Na    s     8.383464   -5.593023    2.801027    0.000000    2.128000
   352  Na    s     8.383464   -5.593023   -2.801027    0.000000    2.128000
   353  Cl    s    -5.572750   -5.574784   -2.786228    0.000000   -2.485000
   354  Cl    s    -5.572750   -5.574784    2.786228    0.000000   -2.485000
   355  Cl    s    -5.570906   -2.783666   -5.570539    0.000000   -2.485000
   356  Cl    s    -5.570906   -2.783666    5.570539    0.000000   -2.485000
   357  Cl    s     5.574358    0.001025    8.355924    0.000000   -2.485000
   358  Cl    s     5.574358    0.001025   -8.355924    0.000000   -2.485000
   359  Cl    s     5.586513    8.385765    0.000000    0.000000   -2.485000
   360  Cl    s    -5.554519    2.792408   -5.556379    0.000000   -2.485000
   361  Cl    s    -5.554519    2.792408    5.556379    0.000000   -2.485000
   362  Cl    s    -5.548841    5.562874   -2.771390    0.000000   -2.485000
   363  Cl    s    -5.548841    5.562874    2.771390    0.000000   -2.485000
   364  Cl    s     5.585958   -8.367800    0.000000    0.000000   -2.485000
   365  Na    s     5.588272   -2.796548    8.390790    0.000000    2.128000
   366  Na    s     5.588272   -2.796548   -8.390790    0.000000    2.128000
   367  Na    s     5.600280    8.401838   -2.806231    0.000000    2.128000
   368  Na    s     5.600280    8.401838    2.806231    0.000000    2.128000
   369  Na    s     5.595954    2.795371    8.400607    0.000000    2.128000
   370  Na    s     5.595954    2.795371   -8.400607    0.000000    2.128000
   371  Na    s    11.224700   -0.006284    0.000000    0.000000    2.128000
   372  Na    s     5.590437   -8.393793    2.798219    0.000000    2.128000
   373  Na    s     5.590437   -8.393793   -2.798219    0.000000    2.128000
   374  Cl    s    -2.783026   -8.365811    2.786815    0.000000   -2.485000
   375  Cl    s    -2.783026   -8.365811   -2.786815    0.000000   -2.485000
   376  Cl    s    -2.780499    2.789744   -8.351125    0.000000   -2.485000
   377  Cl    s    -2.780499    2.789744    8.351125    0.000000   -2.485000
   378  Cl    s    -2.783842   -2.784126    8.359375    0.000000   -2.485000
   379  Cl    s    -2.783842   -2.784126   -8.359375    0.000000   -2.485000
   380  Cl    s    -8.367338   -0.000996    0.000000    0.000000   -2.485000
   381  Cl    s    -2.768090    8.340125   -2.772082    0.000000   -2.485000
   382  Cl    s    -2.768090    8.340125    2.772082    0.000000   -2.485000
--------------------------------------------------------------------------------

  Final coordinates of symmetry reduced region 1 (relative to defect centre):

--------------------------------------------------------------------------------
   No.  Atomic        x           y           z          Charge
        Label       (Angs)      (Angs)      (Angs)         (e) 
--------------------------------------------------------------------------------
     1  Na    c    -1.745604   -0.363092    0.000000   -1.128000
     2  Cl    c     0.001884    1.387083    0.000000    1.485000
     3  Na    c     1.294803    0.097379   -2.817473   -1.128000
     4  Na    c     1.377012   -3.023430    0.000000   -1.128000
     5  Na    c     1.750094    3.134633    0.000000   -1.128000
     6  Cl    c    -1.388149   -2.935991    0.000000    1.485000
     7  Cl    c    -1.466066   -0.076072   -2.819896    1.485000
     8  Na    c     4.415523    0.015441    0.000000   -1.128000
     9  Cl    c    -4.317401    0.002870    0.000000    1.485000
    10  Na    c    -1.415186   -2.852827   -2.834247   -1.128000
    11  Na    c    -1.288510    2.684437   -2.826115   -1.128000
    12  Cl    c     1.370436   -2.702001    2.703620    1.485000
    13  Cl    c     1.471914    2.861670   -2.816816    1.485000
    14  Na    c    -4.266126   -2.884824    0.000000   -1.128000
    15  Na    c    -4.236951   -0.027798   -2.834030   -1.128000
    16  Na    c    -4.399530    2.766394    0.000000   -1.128000
    17  Cl    c     4.322297    2.784276    0.000000    1.485000
    18  Cl    c     4.097773    0.028479    2.704168    1.485000
    19  Cl    c     4.115260   -2.719832    0.000000    1.485000
    20  Na    c     4.243581    2.814654   -2.837856   -1.128000
    21  Na    c    -1.421365   -5.681127    0.000000   -1.128000
    22  Na    c     4.173542   -2.780416    2.796189   -1.128000
    23  Na    c    -1.419528   -0.028117   -5.618166   -1.128000
    24  Na    c    -1.375303    5.797224    0.000000   -1.128000
    25  Cl    c    -4.190033   -2.799554   -2.767565    1.485000
    26  Cl    c     1.379949    0.016640    5.562625    1.485000
    27  Cl    c     1.390117    5.707989    0.000000    1.485000
    28  Cl    c    -4.088211    2.761039   -2.703343    1.485000
    29  Cl    c     1.400405   -5.671026    0.000000    1.485000
    30  Na    c     1.396819   -5.608502    2.802642   -1.128000
    31  Na    c     1.425425    2.810046   -5.615104   -1.128000
    32  Na    c     1.394313   -2.780975    5.579722   -1.128000
    33  Na    c     1.423717    5.629148   -2.830200   -1.128000
    34  Cl    c    -1.384213   -5.600980    2.793557    1.485000
    35  Cl    c    -1.374012    2.777555   -5.569225    1.485000
    36  Cl    c    -1.390203   -2.807226    5.590230    1.485000
    37  Cl    c    -1.363215    5.494256   -2.709362    1.485000
    38  Na    c     4.267319    5.657267    0.000000   -1.128000
    39  Na    c     4.176595    0.003675    5.580982   -1.128000
    40  Na    c     4.202147   -5.606754    0.000000   -1.128000
    41  Cl    c    -4.198915   -5.617209    0.000000    1.485000
    42  Cl    c    -4.200016    0.001836   -5.589242    1.485000
    43  Cl    c    -4.113930    5.510610    0.000000    1.485000
    44  Na    c    -7.053360   -0.031560    0.000000   -1.128000
    45  Cl    c     7.066544   -0.004097    0.000000    1.485000
    46  Na    c    -4.192818   -5.606305   -2.796080   -1.128000
    47  Na    c    -4.192151   -2.800622   -5.590298   -1.128000
    48  Na    c    -4.170099    2.781788   -5.579240   -1.128000
    49  Na    c    -4.165319    5.560238   -2.791529   -1.128000
    50  Cl    c     4.176525   -2.778972    5.564993    1.485000
    51  Cl    c     4.199146    5.594927   -2.774586    1.485000
    52  Cl    c     4.205157    2.794382    5.593595    1.485000
    53  Cl    c     4.176160   -5.562062    2.782197    1.485000
    54  Na    c     7.055858    2.810222    0.000000   -1.128000
    55  Na    c     6.999365    0.000582    2.803473   -1.128000
    56  Na    c     6.998435   -2.806754    0.000000   -1.128000
    57  Cl    c    -6.998969   -2.805403    0.000000    1.485000
    58  Cl    c    -6.985166    0.007126   -2.792335    1.485000
    59  Cl    c    -7.044660    2.795380    0.000000    1.485000
    60  Na    c    -1.398802   -5.602362    5.598448   -1.128000
    61  Na    c    -6.996360   -2.805487   -2.799558   -1.128000
    62  Na    c    -1.389926    5.573911   -5.588562   -1.128000
    63  Na    c    -6.993278    2.785612   -2.804801   -1.128000
    64  Cl    c     6.988008    2.786896    2.794833    1.485000
    65  Cl    c     1.398404   -5.561804    5.565683    1.485000
    66  Cl    c     1.393974    5.592669   -5.583717    1.485000
    67  Cl    c     6.954281   -2.777450    2.780856    1.485000
    68  Na    c     1.395863   -0.000630    8.386114   -1.128000
    69  Na    c     1.421743    8.444790    0.000000   -1.128000
    70  Na    c     1.402669   -8.423475    0.000000   -1.128000
    71  Cl    c    -1.395626   -0.000740    8.373189    1.485000
    72  Cl    c    -1.397857    8.441799    0.000000    1.485000
    73  Cl    c    -1.395765   -8.400625    0.000000    1.485000
    74  Na    c    -1.396514   -8.401659    2.801079   -1.128000
    75  Na    c    -1.392724    8.394692   -2.808937   -1.128000
    76  Cl    c     1.387837    8.377614   -2.788772    1.485000
    77  Cl    c     1.398778   -8.373245    2.791354    1.485000
    78  Na    c     4.194273   -5.590739    5.592238   -1.128000
    79  Na    c     4.202708    5.595078   -5.600474   -1.128000
    80  Na    c    -1.394059    2.791139   -8.392494   -1.128000
    81  Na    c    -7.003064   -5.610840    0.000000   -1.128000
    82  Na    c    -6.996611   -0.005993   -5.601028   -1.128000
    83  Na    c    -1.396429   -2.801943    8.393823   -1.128000
    84  Na    c    -6.999263    5.599080    0.000000   -1.128000
    85  Cl    c     6.997403    5.586953    0.000000    1.485000
    86  Cl    c     6.957001   -0.000594    5.563872    1.485000
    87  Cl    c    -4.180873   -5.575119    5.573636    1.485000
    88  Cl    c     1.396599   -2.783887    8.358469    1.485000
    89  Cl    c    -4.166790    5.567805   -5.556810    1.485000
    90  Cl    c     1.397946    2.790730    8.368836    1.485000
    91  Cl    c     6.965366   -5.567347    0.000000    1.485000
    92  Na    c     7.005254    5.596711   -2.804806   -1.128000
    93  Na    c    -4.200775   -8.407404    0.000000   -1.128000
[...]
   212  Na    s    -4.204106    8.397198    0.000000    2.128000
   213  Na    s     6.987743   -5.593023    2.801027    2.128000
   214  Cl    s    -6.968472   -5.574784   -2.786228   -2.485000
   215  Cl    s    -6.966628   -2.783666   -5.570539   -2.485000
   216  Cl    s     4.178636    0.001025    8.355924   -2.485000
   217  Cl    s     4.190791    8.385765    0.000000   -2.485000
   218  Cl    s    -6.950241    2.792408   -5.556379   -2.485000
   219  Cl    s    -6.944563    5.562874   -2.771390   -2.485000
   220  Cl    s     4.190236   -8.367800    0.000000   -2.485000
   221  Na    s     4.192550   -2.796548    8.390790    2.128000
   222  Na    s     4.204559    8.401838   -2.806231    2.128000
   223  Na    s     4.200232    2.795371    8.400607    2.128000
   224  Na    s     9.828978   -0.006284    0.000000    2.128000
   225  Na    s     4.194715   -8.393793    2.798219    2.128000
   226  Cl    s    -4.178748   -8.365811    2.786815   -2.485000
   227  Cl    s    -4.176221    2.789744   -8.351125   -2.485000
   228  Cl    s    -4.179564   -2.784126    8.359375   -2.485000
   229  Cl    s    -9.763060   -0.000996    0.000000   -2.485000
   230  Cl    s    -4.163812    8.340125   -2.772082   -2.485000
--------------------------------------------------------------------------------


  Final derivatives for region 1 :

--------------------------------------------------------------------------------
   No.  Atomic          x             y             z            Radius
        Label       (eV/Angs)     (eV/Angs)     (eV/Angs)       (eV/Angs)
--------------------------------------------------------------------------------
     1  Na    c       0.000479     -0.000125      0.000000      0.000000
     2  Cl    c      -0.000014      0.000006      0.000000      0.000000
     3  Na    c       0.000111     -0.000137      0.000702      0.000000
     4  Na    c      -0.000059      0.000477      0.000000      0.000000
     5  Na    c      -0.000449      0.000105      0.000000      0.000000
     6  Cl    c      -0.000217     -0.000197      0.000000      0.000000
     7  Cl    c      -0.000154     -0.000091     -0.000399      0.000000
     8  Na    c      -0.000460     -0.000022      0.000000      0.000000
     9  Cl    c      -0.000315     -0.000240      0.000000      0.000000
    10  Na    c       0.000112      0.000193      0.000122      0.000000
    11  Na    c      -0.000112      0.000141      0.000692      0.000000
    12  Cl    c       0.000010     -0.000476      0.000499      0.000000
    13  Cl    c       0.000158      0.000100     -0.000386      0.000000
    14  Na    c       0.000037      0.000059      0.000000      0.000000
    15  Na    c       0.000191      0.000137      0.000169      0.000000
    16  Na    c       0.000452      0.000022      0.000000      0.000000
    17  Cl    c       0.000296      0.000241      0.000000      0.000000
    18  Cl    c       0.000456      0.000008      0.000440      0.000000
    19  Cl    c       0.000265     -0.000246      0.000000      0.000000
    20  Na    c      -0.000188     -0.000134      0.000165      0.000000
    21  Na    c       0.000036      0.000044      0.000000      0.000000
    22  Na    c      -0.000154      0.000154     -0.000159      0.000000
    23  Na    c       0.000038      0.000039      0.000164      0.000000
    24  Na    c       0.000049     -0.000484      0.000000      0.000000
    25  Cl    c      -0.000123     -0.000147     -0.000055      0.000000
    26  Cl    c       0.000016     -0.000006      0.000256      0.000000
    27  Cl    c       0.000218      0.000200      0.000000      0.000000
    28  Cl    c      -0.000456     -0.000006     -0.000454      0.000000
    29  Cl    c      -0.000008     -0.000111      0.000000      0.000000
    30  Na    c      -0.000003      0.000169     -0.000046      0.000000
    31  Na    c      -0.000039     -0.000039      0.000164      0.000000
    32  Na    c      -0.000007      0.000076     -0.000167      0.000000
    33  Na    c      -0.000114     -0.000192      0.000121      0.000000
    34  Cl    c      -0.000068     -0.000147      0.000075      0.000000
    35  Cl    c      -0.000014      0.000005     -0.000256      0.000000
    36  Cl    c      -0.000062     -0.000111      0.000154      0.000000
    37  Cl    c      -0.000009      0.000465     -0.000464      0.000000
    38  Na    c      -0.000037     -0.000055      0.000000      0.000000
    39  Na    c      -0.000070      0.000005     -0.000162      0.000000
    40  Na    c      -0.000025      0.000087      0.000000      0.000000
    41  Cl    c      -0.000046     -0.000047      0.000000      0.000000
    42  Cl    c      -0.000102     -0.000059     -0.000160      0.000000
    43  Cl    c      -0.000246      0.000248      0.000000      0.000000
    44  Na    c       0.000079      0.000034      0.000000      0.000000
    45  Cl    c       0.000154      0.000008      0.000000      0.000000
    46  Na    c       0.000056      0.000072      0.000026      0.000000
    47  Na    c       0.000059      0.000063      0.000076      0.000000
    48  Na    c       0.000071     -0.000007      0.000162      0.000000
    49  Na    c       0.000155     -0.000157      0.000161      0.000000
    50  Cl    c       0.000082     -0.000084      0.000155      0.000000
    51  Cl    c       0.000119      0.000143     -0.000053      0.000000
    52  Cl    c       0.000100      0.000060      0.000157      0.000000
    53  Cl    c       0.000074     -0.000166      0.000072      0.000000
    54  Na    c      -0.000079     -0.000034      0.000000      0.000000
    55  Na    c      -0.000171     -0.000003     -0.000063      0.000000
    56  Na    c      -0.000088      0.000039      0.000000      0.000000
    57  Cl    c      -0.000055     -0.000054      0.000000      0.000000
    58  Cl    c      -0.000166     -0.000070     -0.000079      0.000000
    59  Cl    c      -0.000151     -0.000007      0.000000      0.000000
    60  Na    c       0.000027      0.000072     -0.000059      0.000000
    61  Na    c       0.000076      0.000063      0.000029      0.000000
    62  Na    c       0.000007     -0.000074      0.000166      0.000000
    63  Na    c       0.000173      0.000002      0.000061      0.000000
    64  Cl    c       0.000161      0.000070      0.000078      0.000000
    65  Cl    c       0.000006     -0.000118      0.000102      0.000000
    66  Cl    c       0.000062      0.000110     -0.000151      0.000000
    67  Cl    c       0.000161     -0.000085      0.000080      0.000000
    68  Na    c      -0.000011      0.000010     -0.000105      0.000000
    69  Na    c      -0.000037     -0.000051      0.000000      0.000000
    70  Na    c      -0.000002      0.000038      0.000000      0.000000
    71  Cl    c      -0.000023     -0.000024      0.000126      0.000000
    72  Cl    c       0.000006      0.000131      0.000000      0.000000
    73  Cl    c      -0.000017     -0.000043      0.000000      0.000000
    74  Na    c       0.000020      0.000071     -0.000019      0.000000
    75  Na    c       0.000003     -0.000165      0.000050      0.000000
    76  Cl    c       0.000070      0.000147     -0.000072      0.000000
    77  Cl    c       0.000002     -0.000107      0.000034      0.000000
    78  Na    c      -0.000034      0.000069     -0.000061      0.000000
    79  Na    c      -0.000058     -0.000061      0.000074      0.000000
    80  Na    c       0.000010     -0.000010      0.000104      0.000000
    81  Na    c       0.000023      0.000025      0.000000      0.000000
    82  Na    c       0.000073      0.000026      0.000065      0.000000
    83  Na    c       0.000017      0.000036     -0.000077      0.000000
    84  Na    c       0.000086     -0.000039      0.000000      0.000000
    85  Cl    c       0.000053      0.000053      0.000000      0.000000
    86  Cl    c       0.000115     -0.000005      0.000107      0.000000
    87  Cl    c      -0.000050     -0.000074      0.000056      0.000000
    88  Cl    c       0.000009     -0.000048      0.000114      0.000000
    89  Cl    c      -0.000081      0.000087     -0.000155      0.000000
    90  Cl    c       0.000023      0.000024      0.000126      0.000000
    91  Cl    c       0.000053     -0.000058      0.000000      0.000000
    92  Na    c      -0.000073     -0.000060      0.000029      0.000000
    93  Na    c       0.000015      0.000028      0.000000      0.000000
    94  Na    c      -0.000067      0.000035     -0.000063      0.000000
    95  Na    c       0.000035      0.000017      0.000079      0.000000
    96  Na    c      -0.000071     -0.000026     -0.000064      0.000000
    97  Na    c       0.000028     -0.000086      0.000000      0.000000
    98  Na    c      -0.000063      0.000068     -0.000031      0.000000
    99  Cl    c      -0.000062     -0.000065     -0.000022      0.000000
   100  Cl    c      -0.000074     -0.000054     -0.000060      0.000000
   101  Cl    c       0.000047     -0.000009      0.000114      0.000000
   102  Cl    c       0.000045      0.000048      0.000000      0.000000
   103  Cl    c      -0.000117      0.000006     -0.000107      0.000000
   104  Cl    c      -0.000164      0.000087     -0.000079      0.000000
   105  Cl    c       0.000019     -0.000054      0.000000      0.000000
   106  Na    c      -0.000027      0.000027     -0.000074      0.000000
   107  Na    c      -0.000054     -0.000070      0.000025      0.000000
   108  Na    c      -0.000035     -0.000016     -0.000077      0.000000
   109  Na    c      -0.000044      0.000001      0.000000      0.000000
   110  Na    c      -0.000022      0.000075     -0.000021      0.000000
   111  Cl    c      -0.000039     -0.000071      0.000021      0.000000
   112  Cl    c      -0.000047      0.000010     -0.000114      0.000000
   113  Cl    c      -0.000042     -0.000043      0.000080      0.000000
   114  Cl    c      -0.000056     -0.000018      0.000000      0.000000
   115  Cl    c      -0.000076      0.000166     -0.000074      0.000000
   116  Na    s       0.003187      0.002536      0.000000      0.000000
   117  Cl    s      -0.000038     -0.000044      0.000000      0.000000
   118  Na    s      -0.000187      0.000228     -0.001105      0.000000
   119  Na    s       0.000067     -0.000778      0.000000      0.000000
   120  Na    s      -0.003144     -0.002494      0.000000      0.000000
   121  Cl    s       0.000285      0.000589      0.000000      0.000000
   122  Cl    s       0.000233      0.000159      0.000535      0.000000
   123  Na    s       0.000636      0.000047      0.000000      0.000000
   124  Cl    s       0.000428      0.000338      0.000000      0.000000
   125  Na    s      -0.000241     -0.000373     -0.000230      0.000000
   126  Na    s       0.000188     -0.000229     -0.001090      0.000000
   127  Cl    s       0.000013      0.000718     -0.000752      0.000000
   128  Cl    s      -0.000238     -0.000168      0.000517      0.000000
   129  Na    s      -0.000049     -0.000100      0.000000      0.000000
   130  Na    s      -0.000369     -0.000272     -0.000320      0.000000
   131  Na    s      -0.000658     -0.000044      0.000000      0.000000
   132  Cl    s      -0.000429     -0.000340      0.000000      0.000000
   133  Cl    s      -0.000702     -0.000022     -0.000732      0.000000
   134  Cl    s      -0.000407      0.000373      0.000000      0.000000
   135  Na    s       0.000365      0.000265     -0.000312      0.000000
   136  Na    s      -0.000058     -0.000111      0.000000      0.000000
   137  Na    s       0.000304     -0.000298      0.000313      0.000000
   138  Na    s      -0.000072     -0.000071     -0.000324      0.000000
   139  Na    s      -0.000056      0.000751      0.000000      0.000000
   140  Cl    s       0.000198      0.000246      0.000076      0.000000
   141  Cl    s      -0.000033      0.000019     -0.000468      0.000000
   142  Cl    s      -0.000286     -0.000569      0.000000      0.000000
   143  Cl    s       0.000699      0.000013      0.000743      0.000000
   144  Cl    s       0.000002      0.000245      0.000000      0.000000
   145  Na    s       0.000006     -0.000265      0.000104      0.000000
   146  Na    s       0.000074      0.000073     -0.000325      0.000000
   147  Na    s       0.000017     -0.000150      0.000275      0.000000
   148  Na    s       0.000240      0.000370     -0.000233      0.000000
   149  Cl    s       0.000111      0.000267     -0.000116      0.000000
   150  Cl    s       0.000031     -0.000021      0.000469      0.000000
   151  Cl    s       0.000100      0.000183     -0.000269      0.000000
   152  Cl    s      -0.000012     -0.000709      0.000715      0.000000
   153  Na    s       0.000050      0.000100      0.000000      0.000000
   154  Na    s       0.000142     -0.000013      0.000272      0.000000
   155  Na    s       0.000058     -0.000137      0.000000      0.000000
   156  Cl    s       0.000071      0.000091      0.000000      0.000000
   157  Cl    s       0.000169      0.000097      0.000269      0.000000
   158  Cl    s       0.000387     -0.000374      0.000000      0.000000
   159  Na    s      -0.000141     -0.000064      0.000000      0.000000
   160  Cl    s      -0.000190     -0.000006      0.000000      0.000000
   161  Na    s      -0.000103     -0.000143     -0.000050      0.000000
   162  Na    s      -0.000110     -0.000120     -0.000139      0.000000
   163  Na    s      -0.000142      0.000015     -0.000275      0.000000
   164  Na    s      -0.000302      0.000305     -0.000315      0.000000
   165  Cl    s      -0.000137      0.000139     -0.000258      0.000000
   166  Cl    s      -0.000195     -0.000237      0.000075      0.000000
   167  Cl    s      -0.000167     -0.000098     -0.000265      0.000000
   168  Cl    s      -0.000122      0.000269     -0.000117      0.000000
   169  Na    s       0.000139      0.000065      0.000000      0.000000
   170  Na    s       0.000273      0.000002      0.000132      0.000000
   171  Na    s       0.000148     -0.000077      0.000000      0.000000
   172  Cl    s       0.000099      0.000088      0.000000      0.000000
   173  Cl    s       0.000281      0.000114      0.000128      0.000000
   174  Cl    s       0.000213      0.000003      0.000000      0.000000
   175  Na    s      -0.000052     -0.000139      0.000113      0.000000
   176  Na    s      -0.000141     -0.000119     -0.000057      0.000000
   177  Na    s      -0.000018      0.000148     -0.000268      0.000000
   178  Na    s      -0.000275      0.000000     -0.000130      0.000000
   179  Cl    s      -0.000277     -0.000116     -0.000125      0.000000
   180  Cl    s      -0.000008      0.000196     -0.000173      0.000000
   181  Cl    s      -0.000099     -0.000182      0.000266      0.000000
   182  Cl    s      -0.000271      0.000140     -0.000132      0.000000
   183  Na    s       0.000020     -0.000019      0.000190      0.000000
   184  Na    s       0.000061      0.000111      0.000000      0.000000
   185  Na    s       0.000002     -0.000083      0.000000      0.000000
   186  Cl    s       0.000036      0.000038     -0.000222      0.000000
   187  Cl    s      -0.000001     -0.000213      0.000000      0.000000
   188  Cl    s       0.000026      0.000104      0.000000      0.000000
   189  Na    s      -0.000038     -0.000141      0.000035      0.000000
   190  Na    s      -0.000007      0.000259     -0.000106      0.000000
   191  Cl    s      -0.000112     -0.000266      0.000114      0.000000
   192  Cl    s      -0.000003      0.000185     -0.000055      0.000000
   193  Na    s       0.000065     -0.000128      0.000116      0.000000
   194  Na    s       0.000107      0.000114     -0.000133      0.000000
   195  Na    s      -0.000020      0.000019     -0.000190      0.000000
   196  Na    s      -0.000043     -0.000049      0.000000      0.000000
   197  Na    s      -0.000138     -0.000052     -0.000122      0.000000
   198  Na    s      -0.000032     -0.000069      0.000146      0.000000
   199  Na    s      -0.000145      0.000075      0.000000      0.000000
   200  Cl    s      -0.000097     -0.000086      0.000000      0.000000
   201  Cl    s      -0.000193      0.000007     -0.000180      0.000000
   202  Cl    s       0.000082      0.000124     -0.000094      0.000000
   203  Cl    s      -0.000014      0.000080     -0.000192      0.000000
   204  Cl    s       0.000136     -0.000145      0.000260      0.000000
   205  Cl    s      -0.000037     -0.000039     -0.000222      0.000000
   206  Cl    s      -0.000092      0.000096      0.000000      0.000000
   207  Na    s       0.000138      0.000114     -0.000054      0.000000
   208  Na    s      -0.000028     -0.000057      0.000000      0.000000
   209  Na    s       0.000125     -0.000068      0.000119      0.000000
   210  Na    s      -0.000066     -0.000033     -0.000147      0.000000
   211  Na    s       0.000137      0.000051      0.000121      0.000000
   212  Na    s      -0.000058      0.000133      0.000000      0.000000
   213  Na    s       0.000119     -0.000125      0.000060      0.000000
   214  Cl    s       0.000103      0.000111      0.000035      0.000000
   215  Cl    s       0.000123      0.000091      0.000100      0.000000
   216  Cl    s      -0.000079      0.000014     -0.000191      0.000000
   217  Cl    s      -0.000070     -0.000091      0.000000      0.000000
   218  Cl    s       0.000194     -0.000010      0.000181      0.000000
   219  Cl    s       0.000272     -0.000144      0.000131      0.000000
   220  Cl    s      -0.000031      0.000092      0.000000      0.000000
   221  Na    s       0.000052     -0.000053      0.000135      0.000000
   222  Na    s       0.000098      0.000137     -0.000047      0.000000
   223  Na    s       0.000065      0.000031      0.000146      0.000000
   224  Na    s       0.000095     -0.000001      0.000000      0.000000
   225  Na    s       0.000043     -0.000134      0.000040      0.000000
   226  Cl    s       0.000064      0.000127     -0.000033      0.000000
   227  Cl    s       0.000079     -0.000016      0.000192      0.000000
   228  Cl    s       0.000069      0.000072     -0.000136      0.000000
   229  Cl    s       0.000103      0.000030      0.000000      0.000000
   230  Cl    s       0.000125     -0.000271      0.000121      0.000000
--------------------------------------------------------------------------------


  Time to end of optimisation  =        8.3779 seconds


  Peak dynamic memory used =      47.76 MB 


  Timing analysis for GULP :

--------------------------------------------------------------------------------
  Task / Subroutine                                          Time (Seconds)
--------------------------------------------------------------------------------
  Calculation of reciprocal space energy and derivatives          0.0004
  Calculation of reciprocal space energy using symmetry           0.0004
  Calculation of real space energy and derivatives                0.0019
  Calculation of real space energy using symmetry                 0.0093
  Calculation for region 1 energy and derivatives (2-b)           2.5689
  Calculation for region 2a energy                                5.5563
  Calculation for region 2b energy                                0.0018
  Calculation and manipulation of Hessian matrix                  0.0190
  Calculation of matrix inversion                                 0.1510
  Symmetry generation of equivalent positions                     0.0029
--------------------------------------------------------------------------------
  Total CPU time                                                  8.3779
--------------------------------------------------------------------------------


  Dump file written as NaCl.grs


  Job Finished at 12:48.24  8th October    2020                               

