********************************************************************************
*                       GENERAL UTILITY LATTICE PROGRAM                        *
*                                 Julian Gale                                  *
*                       Curtin Institute for Computation                       *
*                    School of Molecular and Life Sciences                     *
*                    Curtin University, Western Australia                      *
********************************************************************************
* Version = 5.2.0 * Last modified =  10th September 2020                       *
********************************************************************************
* Na vacancy in NaCl                                                           *
*  optimise     - perform optimisation run                                     *
*  conp         - constant pressure calculation                                *
*  property     - calculate properties for final geometry                      *
*  defect       - perform defect calculation after bulk run                    *
********************************************************************************
* Na vacancy in NaCl                                                           *
********************************************************************************


  Job Started  at 16:25.29  2nd October    2020                               

  Number of CPUs =     1


  Total number of configurations input =      1

********************************************************************************
*  Input for Configuration =   1 : NaCl                                        *
********************************************************************************

  Formula = NaCl                                                        

  Number of irreducible atoms/shells =       4


  Total number atoms/shells =       4

  Dimensionality = 3               :  Bulk   


  Symmetry :

  Crystal family                   :  Cubic       
  Crystal class  (Groth - 1921)    :  Cubic Hexakisoctahedral              

  Space group (centrosymmetric)    :  F M 3 M         

  Patterson group                  :  F m -3 m 

  Cartesian lattice vectors (Angstroms) :

        0.000000    2.789000    2.789000
        2.789000    0.000000    2.789000
        2.789000    2.789000    0.000000

  Primitive cell parameters :            Full cell parameters :

  a =   3.9442    alpha =  60.0000       a =   5.5780    alpha =  90.0000
  b =   3.9442    beta  =  60.0000       b =   5.5780    beta  =  90.0000
  c =   3.9442    gamma =  60.0000       c =   5.5780    gamma =  90.0000

  Initial volumes (Angstroms**3):

  Primitive cell =          43.388590    Full cell =         173.554361

  Temperature of configuration =   0.00     K 

  Pressure of configuration =         0.000 GPa 

  Fractional coordinates of asymmetric unit :

--------------------------------------------------------------------------------
   No.  Atomic       x           y          z         Charge      Occupancy
        Label      (Frac)      (Frac)     (Frac)        (e)         (Frac)  
--------------------------------------------------------------------------------
      1 Na    c    0.000000    0.000000    0.000000    -1.12800    1.000000    
      2 Cl    c    0.500000    0.000000    0.000000     1.48500    1.000000    
      3 Na    s    0.000000    0.000000    0.000000     2.12800    1.000000    
      4 Cl    s    0.500000    0.000000    0.000000    -2.48500    1.000000    
--------------------------------------------------------------------------------


  Constraints : 

--------------------------------------------------------------------------------
  Constraint no.      Unconstrained     Constrained    Coefficient    Offset
                         Variable         Variable
--------------------------------------------------------------------------------
           1              Strain 1        Strain 2       1.00000      0.0000
           2              Strain 1        Strain 3       1.00000      0.0000
--------------------------------------------------------------------------------


********************************************************************************
*  General input information                                                   *
********************************************************************************

  Species output for all configurations : 

--------------------------------------------------------------------------------
  Species    Type    Atomic    Atomic    Charge       Radii (Angs)     Library
                     Number     Mass       (e)     Cova   Ionic  VDW   Symbol
--------------------------------------------------------------------------------
    Na       Core       11      22.99  -1.128000   0.970  0.000  2.300          
    Na       Shell      11       0.00   2.128000   0.970  0.000  2.300          
    Cl       Core       17      35.45   1.485000   0.990  0.000  1.650          
    Cl       Shell      17       0.00  -2.485000   0.990  0.000  1.650          
--------------------------------------------------------------------------------


  Lattice summation method               =    Ewald          (3-D)
                                         =    Parry          (2-D)
                                         =    Saunders et al (1-D)
  Accuracy factor for lattice sums       =   12.000


  Analytic derivatives to be used

  Time limit = Infinity

  Maximum range for interatomic potentials =    100000.000000 Angstroms

  General interatomic potentials :

--------------------------------------------------------------------------------
Atom  Types   Potential      Parameter       Value         Units   Cutoffs(Ang)
  1     2                                                            Min /  Max 
--------------------------------------------------------------------------------
Na   s Na   s Buckingham    Buckingham A     7895.0000    eV        0.000 12.000
                            Buckingham rho  0.17090000    Ang       
                            Buckingham C     14.530000    eV*Ang^6  
--------------------------------------------------------------------------------
Na   s Cl   s Buckingham    Buckingham A     2314.7000    eV        0.000 12.000
                            Buckingham rho  0.29030000    Ang       
                            Buckingham C     0.0000000    eV*Ang^6  
--------------------------------------------------------------------------------
Cl   s Cl   s Buckingham    Buckingham A     1227.2000    eV        0.000 12.000
                            Buckingham rho  0.32140000    Ang       
                            Buckingham C     14.530000    eV*Ang^6  
--------------------------------------------------------------------------------
Na   c Na   s Spring (c-s)  Spring k 2       96.440000    eV*Ang^-2 0.000  0.800
                            Spring k 4       0.0000000    eV*Ang^-4 
--------------------------------------------------------------------------------
Cl   c Cl   s Spring (c-s)  Spring k 2       29.380000    eV*Ang^-2 0.000  0.800
                            Spring k 4       0.0000000    eV*Ang^-4 
--------------------------------------------------------------------------------

********************************************************************************
*  Output for configuration   1 : NaCl                                         *
********************************************************************************


  Components of energy : 

--------------------------------------------------------------------------------
  Interatomic potentials     =           0.91447856 eV    
  Monopole - monopole (real) =          -0.72412017 eV    
  Monopole - monopole (recip)=          -8.29865070 eV    
  Monopole - monopole (total)=          -9.02277087 eV    
--------------------------------------------------------------------------------
  Total lattice energy : 
    Primitive unit cell      =          -8.10829230 eV    
    Non-primitive unit cell  =         -32.43316921 eV    
--------------------------------------------------------------------------------
  Total lattice energy (in kJmol-1): 
    Primitive unit cell      =            -782.3263 kJ/(mole unit cells)
    Non-primitive unit cell  =           -3129.3050 kJ/(mole unit cells)
--------------------------------------------------------------------------------


  Number of variables =        1

  Maximum number of calculations  =          1000
  Maximum Hessian update interval =            10
  Maximum step size               =   1.000000000
  Maximum parameter tolerance     =   0.000010000
  Maximum function  tolerance     =   0.000010000
  Maximum gradient  tolerance     =   0.001000000
  Maximum gradient  component     =   0.010000000

  Symmetry constrained optimisation

  Symmetry used for second derivatives

  Cell parameters to be optimised using strains

  Newton-Raphson optimiser to be used

  BFGS hessian update to be used

  Lower half triangular hessian to be used

  Start of bulk optimisation :

  Cycle:      0 Energy:        -8.108292  Gnorm:      0.062231  CPU:    0.009
  ** Hessian calculated **
  Cycle:      1 Energy:        -8.108320  Gnorm:      0.000040  CPU:    0.013


  **** Optimisation achieved ****


  Final energy =      -8.10831952 eV
  Final Gnorm  =       0.00000017

  Components of energy : 

--------------------------------------------------------------------------------
  Interatomic potentials     =           0.90655178 eV    
  Monopole - monopole (real) =          -0.72348619 eV    
  Monopole - monopole (recip)=          -8.29138511 eV    
  Monopole - monopole (total)=          -9.01487130 eV    
--------------------------------------------------------------------------------
  Total lattice energy : 
    Primitive unit cell      =          -8.10831952 eV    
    Non-primitive unit cell  =         -32.43327809 eV    
--------------------------------------------------------------------------------
  Total lattice energy (in kJmol-1): 
    Primitive unit cell      =            -782.3289 kJ/(mole unit cells)
    Non-primitive unit cell  =           -3129.3155 kJ/(mole unit cells)
--------------------------------------------------------------------------------

  Final asymmetric unit coordinates :

--------------------------------------------------------------------------------
   No.  Atomic        x           y           z         Radius
        Label       (Frac)      (Frac)      (Frac)       (Angs) 
--------------------------------------------------------------------------------
     1  Na    c     0.000000    0.000000    0.000000    0.000000
     2  Cl    c     0.500000    0.000000    0.000000    0.000000
     3  Na    s     0.000000    0.000000    0.000000    0.000000
     4  Cl    s     0.500000    0.000000    0.000000    0.000000
--------------------------------------------------------------------------------

  Final Cartesian lattice vectors (Angstroms) :

        0.000000    2.791444    2.791444
        2.791444    0.000000    2.791444
        2.791444    2.791444    0.000000


  Final cell parameters and derivatives :

--------------------------------------------------------------------------------
       a            3.947698 Angstrom     dE/de1(xx)    -0.000000 eV/strain
       b            3.947698 Angstrom     dE/de2(yy)     0.000000 eV/strain
       c            3.947698 Angstrom     dE/de3(zz)     0.000000 eV/strain
       alpha       60.000000 Degrees      dE/de4(yz)     0.000000 eV/strain
       beta        60.000000 Degrees      dE/de5(xz)     0.000000 eV/strain
       gamma       60.000000 Degrees      dE/de6(xy)     0.000000 eV/strain
--------------------------------------------------------------------------------

  Primitive cell volume =            43.502752 Angs**3

  Density of cell =      2.230743 g/cm**3

  Non-primitive lattice parameters :

  a    =     5.582888  b   =     5.582888  c    =     5.582888
  alpha=    90.000000  beta=    90.000000  gamma=    90.000000

  Non-primitive cell volume =           174.011008 Angs**3


  Final internal derivatives :

--------------------------------------------------------------------------------
   No.  Atomic          a             b             c           Radius
        Label          (eV)          (eV)          (eV)        (eV/Angs)
--------------------------------------------------------------------------------
      1 Na    c       0.000000      0.000000      0.000000      0.000000
      2 Cl    c       0.000000      0.000000      0.000000      0.000000
      3 Na    s       0.000000      0.000000      0.000000      0.000000
      4 Cl    s       0.000000      0.000000      0.000000      0.000000
--------------------------------------------------------------------------------
  Maximum abs         0.000000      0.000000      0.000000      0.000000
--------------------------------------------------------------------------------


  Born effective charge tensors : 

-------------------------------------------------------------------------------
  Atom             x           y             z
-------------------------------------------------------------------------------
    1 Na    x       1.0608      0.0000      0.0000
            y       0.0000      1.0608      0.0000
            z       0.0000      0.0000      1.0608
-------------------------------------------------------------------------------
    2 Cl    x      -1.0608     -0.0000     -0.0000
            y      -0.0000     -1.0608     -0.0000
            z      -0.0000     -0.0000     -1.0608
-------------------------------------------------------------------------------




  Elastic Constant Matrix: (Units=GPa)

-------------------------------------------------------------------------------
  Indices      1         2         3         4         5         6    
-------------------------------------------------------------------------------
       1     58.2962   14.2997   14.2997   -0.0000    0.0000   -0.0000
       2     14.2997   58.2962   14.2997    0.0000    0.0000   -0.0000
       3     14.2997   14.2997   58.2962    0.0000    0.0000   -0.0000
       4     -0.0000    0.0000    0.0000   14.2997    0.0000   -0.0000
       5      0.0000    0.0000    0.0000    0.0000   14.2997   -0.0000
       6     -0.0000   -0.0000   -0.0000   -0.0000   -0.0000   14.2997
-------------------------------------------------------------------------------


  Elastic Compliance Matrix: (Units=1/GPa)

-------------------------------------------------------------------------------
  Indices      1         2         3         4         5         6    
-------------------------------------------------------------------------------
       1    0.018989 -0.003740 -0.003740  0.000000 -0.000000 -0.000000
       2   -0.003740  0.018989 -0.003740 -0.000000 -0.000000  0.000000
       3   -0.003740 -0.003740  0.018989 -0.000000 -0.000000  0.000000
       4    0.000000 -0.000000 -0.000000  0.069931 -0.000000  0.000000
       5   -0.000000 -0.000000 -0.000000 -0.000000  0.069931  0.000000
       6   -0.000000  0.000000  0.000000  0.000000  0.000000  0.069931
-------------------------------------------------------------------------------

  Mechanical properties :

-------------------------------------------------------------------------------
  Convention :                    Reuss         Voigt         Hill
-------------------------------------------------------------------------------
  Bulk  Modulus (GPa)     =      28.96523      28.96523      28.96523
  Shear Modulus (GPa)     =      16.62729      17.37914      17.00321
-------------------------------------------------------------------------------
  Velocity S-wave (km/s)  =       2.73015       2.79119       2.76084
  Velocity P-wave (km/s)  =       4.78778       4.83448       4.81119
-------------------------------------------------------------------------------
  Compressibility (1/GPa) =    0.03452416
-------------------------------------------------------------------------------
  Stress axis :                     x             y             z
-------------------------------------------------------------------------------
  Youngs Moduli (GPa)     =      52.66277      52.66277      52.66277
-------------------------------------------------------------------------------
  Poissons Ratio (x)      =                     0.19698       0.19698
  Poissons Ratio (y)      =       0.19698                     0.19698
  Poissons Ratio (z)      =       0.19698       0.19698
-------------------------------------------------------------------------------


  Piezoelectric Strain Matrix: (Units=C/m**2)

-------------------------------------------------------------------------------
  Indices      1         2         3         4         5         6    
-------------------------------------------------------------------------------
       x    -0.00000  -0.00000  -0.00000  -0.00000  -0.00000  -0.00000
       y    -0.00000   0.00000  -0.00000  -0.00000  -0.00000  -0.00000
       z    -0.00000  -0.00000   0.00000  -0.00000  -0.00000  -0.00000
-------------------------------------------------------------------------------


  Piezoelectric Stress Matrix: (Units=10**-11 C/N)

-------------------------------------------------------------------------------
  Indices      1         2         3         4         5         6    
-------------------------------------------------------------------------------
       x    -0.00000  -0.00000  -0.00000  -0.00000  -0.00000  -0.00000
       y    -0.00000   0.00000  -0.00000  -0.00000  -0.00000  -0.00000
       z    -0.00000  -0.00000   0.00000  -0.00000  -0.00000  -0.00000
-------------------------------------------------------------------------------


  Static dielectric constant tensor : 

-------------------------------------------------------------------------------
              x         y         z
-------------------------------------------------------------------------------
       x     5.49480   0.00000   0.00000
       y     0.00000   5.49480  -0.00000
       z     0.00000  -0.00000   5.49480
--------------------------------------------------------------------------------

  High frequency dielectric constant tensor : 

-------------------------------------------------------------------------------
              x         y         z
-------------------------------------------------------------------------------
       x     2.38570  -0.00000   0.00000
       y    -0.00000   2.38570   0.00000
       z     0.00000   0.00000   2.38570
-------------------------------------------------------------------------------

  Static refractive indices : 

-------------------------------------------------------------------------------
    1 =    2.34410      2 =    2.34410      3 =    2.34410
-------------------------------------------------------------------------------

  High frequency refractive indices : 

-------------------------------------------------------------------------------
    1 =    1.54457      2 =    1.54457      3 =    1.54457
-------------------------------------------------------------------------------


  Time to end of optimisation =       0.0176 seconds

********************************************************************************
*  Defect calculation for configuration   1 :                                  *
********************************************************************************

  Total number of defects =      1

  Total charge on defect  =  -1.00

  Defect centre is at   0.2500   0.2500   0.2500  Frac

  Region 1 radius =  10.0000      Number of ions =    418

  Number of symmetry inequivalent region 1 ions  =     38

  Region 2 radius =  20.0000      Number of ions =   2720

  Number of symmetry inequivalent region 2a ions =    156

  Region 2a mode = 4 : screened electrostatics due to region 1 
                       neglect correction to region 1 forces from 2a
                       region 2a displacements based on defects only

  Region 2a ions will only interact with defects in region 1

  Interstitials:

--------------------------------------------------------------------------------
    Specification type     Symbol/Number         x          y          z
--------------------------------------------------------------------------------
    Atom/Fractional         Cl               0.250000   0.250000   0.250000
--------------------------------------------------------------------------------


  Symmetry reduced region 1 (Relative to defect centre) :

--------------------------------------------------------------------------------
   No.   Atomic       x            y             z       Radius  Multiplicity   
         Label      (Angs)       (Angs)        (Angs)    (Angs)     
--------------------------------------------------------------------------------
     1  Cl    c      0.0000       0.0000       0.0000    0.0000     1    Defect
     2  Na    c      1.3957 *     1.3957      -1.3957    0.0000     4          
     3  Cl    c     -1.3957 *    -1.3957       1.3957    0.0000     4          
     4  Na    c      4.1872 *     1.3957 *     1.3957    0.0000    12          
     5  Cl    c     -4.1872 *    -1.3957 *    -1.3957    0.0000    12          
     6  Na    c      4.1872 *     4.1872      -1.3957 *  0.0000    12          
     7  Cl    c      4.1872 *     4.1872       1.3957 *  0.0000    12          
     8  Na    c      4.1872 *     4.1872       4.1872    0.0000     4          
     9  Cl    c     -4.1872 *     4.1872       4.1872    0.0000     4          
    10  Na    c      1.3957 *    -1.3957       6.9786 *  0.0000    12          
    11  Cl    c      1.3957 *     1.3957       6.9786 *  0.0000    12          
    12  Na    c      6.9786 *     4.1872 *     1.3957 *  0.0000    24          
    13  Cl    c      4.1872 *    -1.3957 *     6.9786 *  0.0000    24          
    14  Na    c      4.1872 *    -4.1872       6.9786 *  0.0000    12          
    15  Cl    c      6.9786 *     4.1872 *     4.1872    0.0000    12          
    16  Na    c      1.3957 *     1.3957       9.7701 *  0.0000    12          
    17  Cl    c      1.3957 *    -1.3957       9.7701 *  0.0000    12          
    18  Na    c      6.9786 *     6.9786      -1.3957 *  0.0000    12          
    19  Cl    c      6.9786 *     6.9786       1.3957 *  0.0000    12          
    20  Cl    s      0.0000       0.0000       0.0000    0.0000     1    Defect
    21  Na    s      1.3957 *     1.3957      -1.3957    0.0000     4          
    22  Cl    s     -1.3957 *    -1.3957       1.3957    0.0000     4          
    23  Na    s      4.1872 *     1.3957 *     1.3957    0.0000    12          
    24  Cl    s     -4.1872 *    -1.3957 *    -1.3957    0.0000    12          
    25  Na    s      4.1872 *     4.1872      -1.3957 *  0.0000    12          
    26  Cl    s      4.1872 *     4.1872       1.3957 *  0.0000    12          
    27  Na    s      4.1872 *     4.1872       4.1872    0.0000     4          
    28  Cl    s     -4.1872 *     4.1872       4.1872    0.0000     4          
    29  Na    s      1.3957 *    -1.3957       6.9786 *  0.0000    12          
    30  Cl    s      1.3957 *     1.3957       6.9786 *  0.0000    12          
    31  Na    s      6.9786 *     4.1872 *     1.3957 *  0.0000    24          
    32  Cl    s      4.1872 *    -1.3957 *     6.9786 *  0.0000    24          
    33  Na    s      4.1872 *    -4.1872       6.9786 *  0.0000    12          
    34  Cl    s      6.9786 *     4.1872 *     4.1872    0.0000    12          
    35  Na    s      1.3957 *     1.3957       9.7701 *  0.0000    12          
    36  Cl    s      1.3957 *    -1.3957       9.7701 *  0.0000    12          
    37  Na    s      6.9786 *     6.9786      -1.3957 *  0.0000    12          
    38  Cl    s      6.9786 *     6.9786       1.3957 *  0.0000    12          
--------------------------------------------------------------------------------


  Constraints on symmetry reduced coordinates :

--------------------------------------------------------------------------------
  Constraint no.      Unconstrained     Constrained    Coefficient    
                         Variable         Variable
--------------------------------------------------------------------------------
           1                 2 x             2 y         1.00000
           2                 2 x             2 z        -1.00000
           3                 3 x             3 y         1.00000
           4                 3 x             3 z        -1.00000
           5                 4 y             4 z         1.00000
           6                 5 y             5 z         1.00000
           7                 6 x             6 y         1.00000
           8                 7 x             7 y         1.00000
           9                 8 x             8 y         1.00000
          10                 8 x             8 z         1.00000
          11                 9 x             9 y        -1.00000
          12                 9 x             9 z        -1.00000
          13                10 x            10 y        -1.00000
          14                11 x            11 y         1.00000
          15                14 x            14 y        -1.00000
          16                15 y            15 z         1.00000
          17                16 x            16 y         1.00000
          18                17 x            17 y        -1.00000
          19                18 x            18 y         1.00000
          20                19 x            19 y         1.00000
          21                21 x            21 y         1.00000
          22                21 x            21 z        -1.00000
          23                22 x            22 y         1.00000
          24                22 x            22 z        -1.00000
          25                23 y            23 z         1.00000
          26                24 y            24 z         1.00000
          27                25 x            25 y         1.00000
          28                26 x            26 y         1.00000
          29                27 x            27 y         1.00000
          30                27 x            27 z         1.00000
          31                28 x            28 y        -1.00000
          32                28 x            28 z        -1.00000
          33                29 x            29 y        -1.00000
          34                30 x            30 y         1.00000
          35                33 x            33 y        -1.00000
          36                34 y            34 z         1.00000
          37                35 x            35 y         1.00000
          38                36 x            36 y        -1.00000
          39                37 x            37 y         1.00000
          40                38 x            38 y         1.00000
--------------------------------------------------------------------------------


  Components of defect energy : 

--------------------------------------------------------------------------------
  Region 1 - region 1                   =      4.59135725 eV
  Region 1 - region 2a (unrelaxed)      =     -0.00042294 eV
  Region 1 - 2a (relaxed - correction)  =     -0.56376959 eV
  Region 1 (Total)                      =      4.02716472 eV
  Region 2a                             =      0.28182001 eV
  Region 2b                             =     -0.29269430 eV
--------------------------------------------------------------------------------
  Total defect energy                   =      4.01629043 eV
--------------------------------------------------------------------------------

  Largest displacement in region 2 =   0.0109 Angstroms


  Number of variables =       68

  Maximum number of calculations  =        1000
  Maximum Hessian update interval =          10
  Maximum step size               =   1.0000000
  Maximum parameter tolerance     =   0.0000100
  Maximum function  tolerance     =   0.0000100
  Maximum gradient  tolerance     =   0.0010000

  Symmetry adapted optimisation

  Symmetry to be used for second derivatives

  Newton-Raphson optimiser to be used

  BFGS hessian update to be used

  Lower half triangular hessian to be used

  Start of defect optimisation :

  Cycle:      0 Defect Energy:   4.016290  Gnorm:     1.239663  CPU:    0.225
  ** Hessian calculated **
  Cycle:      1 Defect Energy:  -0.791524  Gnorm:     0.118927  CPU:    0.383
  Cycle:      2 Defect Energy:  -1.126567  Gnorm:     0.076188  CPU:    0.502
  Cycle:      3 Defect Energy:  -1.278635  Gnorm:     0.036261  CPU:    0.653
  Cycle:      4 Defect Energy:  -1.281933  Gnorm:     0.026211  CPU:    0.685
  Cycle:      5 Defect Energy:  -1.283708  Gnorm:     0.018215  CPU:    0.717
  Cycle:      6 Defect Energy:  -1.284594  Gnorm:     0.012725  CPU:    0.749
  Cycle:      7 Defect Energy:  -1.284990  Gnorm:     0.008898  CPU:    0.781
  Cycle:      8 Defect Energy:  -1.285156  Gnorm:     0.006226  CPU:    0.813
  Cycle:      9 Defect Energy:  -1.285215  Gnorm:     0.004357  CPU:    0.846
  Cycle:     10 Defect Energy:  -1.285229  Gnorm:     0.003050  CPU:    0.878
  ** Hessian calculated **
  Cycle:     11 Defect Energy:  -1.285225  Gnorm:     0.002135  CPU:    0.948
  Cycle:     12 Defect Energy:  -1.285216  Gnorm:     0.001494  CPU:    0.980
  Cycle:     13 Defect Energy:  -1.285206  Gnorm:     0.001046  CPU:    1.012
  Cycle:     14 Defect Energy:  -1.285197  Gnorm:     0.000732  CPU:    1.045
  Cycle:     15 Defect Energy:  -1.285190  Gnorm:     0.000513  CPU:    1.076
  Cycle:     16 Defect Energy:  -1.285185  Gnorm:     0.000359  CPU:    1.109
  Cycle:     17 Defect Energy:  -1.285181  Gnorm:     0.000251  CPU:    1.142


  **** Optimisation achieved ****


  Final defect energy  =       -1.28517861
  Final defect Gnorm   =        0.00017584

  Components of defect energy : 

--------------------------------------------------------------------------------
  Region 1 - region 1                   =     -0.39198839 eV
  Region 1 - region 2a (unrelaxed)      =     -0.35773563 eV
  Region 1 - 2a (relaxed - correction)  =     -0.48522151 eV
  Region 1 (Total)                      =     -1.23494553 eV
  Region 2a                             =      0.24246122 eV
  Region 2b                             =     -0.29269430 eV
--------------------------------------------------------------------------------
  Total defect energy                   =     -1.28517861 eV
--------------------------------------------------------------------------------

  Largest displacement in region 2 =   0.0109 Angstroms

  Final coordinates of region 1 :

--------------------------------------------------------------------------------
   No.  Atomic        x           y           z          Radius      Charge
        Label       (Angs)      (Angs)      (Angs)       (Angs)       (e) 
--------------------------------------------------------------------------------
     1  Cl    c     1.395722    1.395722    1.395722    0.000000    1.485000
     2  Na    c     2.833081    2.833081   -0.041637    0.000000   -1.128000
     3  Na    c    -0.041637   -0.041637   -0.041637    0.000000   -1.128000
     4  Na    c     2.833081   -0.041637    2.833081    0.000000   -1.128000
     5  Na    c    -0.041637    2.833081    2.833081    0.000000   -1.128000
     6  Cl    c    -0.299331   -0.299331    3.090775    0.000000    1.485000
     7  Cl    c     3.090775    3.090775    3.090775    0.000000    1.485000
     8  Cl    c    -0.299331    3.090775   -0.299331    0.000000    1.485000
     9  Cl    c     3.090775   -0.299331   -0.299331    0.000000    1.485000
    10  Na    c     5.654613    2.818296    2.818296    0.000000   -1.128000
    11  Na    c    -0.026852   -2.863169    2.818296    0.000000   -1.128000
    12  Na    c     2.818296    5.654613    2.818296    0.000000   -1.128000
    13  Na    c    -2.863169   -0.026852    2.818296    0.000000   -1.128000
    14  Na    c    -0.026852    5.654613   -0.026852    0.000000   -1.128000
    15  Na    c    -2.863169    2.818296   -0.026852    0.000000   -1.128000
    16  Na    c     5.654613   -0.026852   -0.026852    0.000000   -1.128000
    17  Na    c     2.818296   -2.863169   -0.026852    0.000000   -1.128000
    18  Na    c    -0.026852    2.818296   -2.863169    0.000000   -1.128000
    19  Na    c     2.818296    2.818296    5.654613    0.000000   -1.128000
    20  Na    c    -0.026852   -0.026852    5.654613    0.000000   -1.128000
    21  Na    c     2.818296   -0.026852   -2.863169    0.000000   -1.128000
    22  Cl    c    -2.845554   -0.013118   -0.013118    0.000000    1.485000
    23  Cl    c     2.804562    5.636998   -0.013118    0.000000    1.485000
    24  Cl    c    -2.845554    2.804562    2.804562    0.000000    1.485000
    25  Cl    c    -0.013118    5.636998    2.804562    0.000000    1.485000
    26  Cl    c    -0.013118   -2.845554   -0.013118    0.000000    1.485000
    27  Cl    c     5.636998    2.804562   -0.013118    0.000000    1.485000
    28  Cl    c     2.804562   -2.845554    2.804562    0.000000    1.485000
    29  Cl    c     5.636998   -0.013118    2.804562    0.000000    1.485000
    30  Cl    c     2.804562   -0.013118    5.636998    0.000000    1.485000
    31  Cl    c    -0.013118    2.804562    5.636998    0.000000    1.485000
    32  Cl    c    -0.013118   -0.013118   -2.845554    0.000000    1.485000
    33  Cl    c     2.804562    2.804562   -2.845554    0.000000    1.485000
    34  Na    c     5.580368    5.580368    0.017578    0.000000   -1.128000
    35  Na    c    -2.788924   -2.788924    0.017578    0.000000   -1.128000
    36  Na    c     5.580368    0.017578    5.580368    0.000000   -1.128000
    37  Na    c     2.773866   -2.788924    5.580368    0.000000   -1.128000
    38  Na    c     2.773866    5.580368   -2.788924    0.000000   -1.128000
    39  Na    c    -2.788924    0.017578   -2.788924    0.000000   -1.128000
    40  Na    c     0.017578    5.580368    5.580368    0.000000   -1.128000
    41  Na    c    -2.788924    2.773866    5.580368    0.000000   -1.128000
    42  Na    c    -2.788924    5.580368    2.773866    0.000000   -1.128000
    43  Na    c     5.580368    2.773866   -2.788924    0.000000   -1.128000
    44  Na    c     0.017578   -2.788924   -2.788924    0.000000   -1.128000
    45  Na    c     5.580368   -2.788924    2.773866    0.000000   -1.128000
    46  Cl    c     5.671385    5.671385    2.791487    0.000000    1.485000
    47  Cl    c    -2.879941   -2.879941    2.791487    0.000000    1.485000
    48  Cl    c     5.671385    2.791487    5.671385    0.000000    1.485000
    49  Cl    c    -0.000043   -2.879941    5.671385    0.000000    1.485000
    50  Cl    c    -2.879941    2.791487   -2.879941    0.000000    1.485000
    51  Cl    c    -0.000043    5.671385   -2.879941    0.000000    1.485000
    52  Cl    c     2.791487    5.671385    5.671385    0.000000    1.485000
    53  Cl    c    -2.879941   -0.000043    5.671385    0.000000    1.485000
    54  Cl    c    -2.879941    5.671385   -0.000043    0.000000    1.485000
    55  Cl    c     2.791487   -2.879941   -2.879941    0.000000    1.485000
    56  Cl    c     5.671385   -0.000043   -2.879941    0.000000    1.485000
    57  Cl    c     5.671385   -2.879941   -0.000043    0.000000    1.485000
    58  Na    c     5.567485    5.567485    5.567485    0.000000   -1.128000
    59  Na    c    -2.776041   -2.776041    5.567485    0.000000   -1.128000
    60  Na    c    -2.776041    5.567485   -2.776041    0.000000   -1.128000
    61  Na    c     5.567485   -2.776041   -2.776041    0.000000   -1.128000
    62  Cl    c    -2.793064    5.584508    5.584508    0.000000    1.485000
    63  Cl    c     5.584508   -2.793064    5.584508    0.000000    1.485000
    64  Cl    c    -2.793064   -2.793064   -2.793064    0.000000    1.485000
    65  Cl    c     5.584508    5.584508   -2.793064    0.000000    1.485000
    66  Na    c     2.794636   -0.003192    8.381534    0.000000   -1.128000
    67  Na    c     2.794636    8.381534   -0.003192    0.000000   -1.128000
    68  Na    c    -5.590090   -0.003192   -0.003192    0.000000   -1.128000
    69  Na    c    -0.003192    2.794636    8.381534    0.000000   -1.128000
    70  Na    c    -0.003192    8.381534    2.794636    0.000000   -1.128000
    71  Na    c    -5.590090    2.794636    2.794636    0.000000   -1.128000
    72  Na    c     8.381534    2.794636   -0.003192    0.000000   -1.128000
    73  Na    c    -0.003192   -5.590090   -0.003192    0.000000   -1.128000
    74  Na    c     8.381534   -0.003192    2.794636    0.000000   -1.128000
    75  Na    c     2.794636   -5.590090    2.794636    0.000000   -1.128000
    76  Na    c    -0.003192   -0.003192   -5.590090    0.000000   -1.128000
    77  Na    c     2.794636    2.794636   -5.590090    0.000000   -1.128000
    78  Cl    c     2.795471    2.795471    8.415601    0.000000    1.485000
    79  Cl    c    -0.004027   -0.004027    8.415601    0.000000    1.485000
    80  Cl    c     2.795471    8.415601    2.795471    0.000000    1.485000
    81  Cl    c    -5.624157   -0.004027    2.795471    0.000000    1.485000
    82  Cl    c    -5.624157    2.795471   -0.004027    0.000000    1.485000
    83  Cl    c    -0.004027    8.415601   -0.004027    0.000000    1.485000
    84  Cl    c     8.415601    2.795471    2.795471    0.000000    1.485000
    85  Cl    c    -0.004027   -5.624157    2.795471    0.000000    1.485000
    86  Cl    c    -0.004027    2.795471   -5.624157    0.000000    1.485000
    87  Cl    c     2.795471   -5.624157   -0.004027    0.000000    1.485000
    88  Cl    c     8.415601   -0.004027   -0.004027    0.000000    1.485000
    89  Cl    c     2.795471   -0.004027   -5.624157    0.000000    1.485000
    90  Na    c     8.391323    5.597021    2.795446    0.000000   -1.128000
    91  Na    c    -2.805577   -5.599879    2.795446    0.000000   -1.128000
    92  Na    c     8.391323    2.795446    5.597021    0.000000   -1.128000
    93  Na    c    -0.004002   -5.599879    5.597021    0.000000   -1.128000
    94  Na    c    -2.805577    2.795446   -5.599879    0.000000   -1.128000
    95  Na    c    -0.004002    5.597021   -5.599879    0.000000   -1.128000
    96  Na    c     5.597021    8.391323    2.795446    0.000000   -1.128000
    97  Na    c    -5.599879   -2.805577    2.795446    0.000000   -1.128000
    98  Na    c     5.597021    2.795446    8.391323    0.000000   -1.128000
    99  Na    c    -0.004002   -2.805577    8.391323    0.000000   -1.128000
   100  Na    c    -0.004002    8.391323   -2.805577    0.000000   -1.128000
   101  Na    c    -5.599879    2.795446   -2.805577    0.000000   -1.128000
   102  Na    c     2.795446    8.391323    5.597021    0.000000   -1.128000
   103  Na    c    -5.599879   -0.004002    5.597021    0.000000   -1.128000
   104  Na    c     2.795446    5.597021    8.391323    0.000000   -1.128000
   105  Na    c    -2.805577   -0.004002    8.391323    0.000000   -1.128000
   106  Na    c    -2.805577    8.391323   -0.004002    0.000000   -1.128000
   107  Na    c    -5.599879    5.597021   -0.004002    0.000000   -1.128000
   108  Na    c     2.795446   -2.805577   -5.599879    0.000000   -1.128000
   109  Na    c     5.597021   -0.004002   -5.599879    0.000000   -1.128000
   110  Na    c     8.391323   -0.004002   -2.805577    0.000000   -1.128000
   111  Na    c     2.795446   -5.599879   -2.805577    0.000000   -1.128000
   112  Na    c     8.391323   -2.805577   -0.004002    0.000000   -1.128000
   113  Na    c     5.597021   -5.599879   -0.004002    0.000000   -1.128000
   114  Cl    c     5.590308   -0.003263    8.395602    0.000000    1.485000
   115  Cl    c     2.794707   -2.798864    8.395602    0.000000    1.485000
   116  Cl    c     5.590308    8.395602   -0.003263    0.000000    1.485000
   117  Cl    c    -5.604158   -2.798864   -0.003263    0.000000    1.485000
   118  Cl    c    -5.604158   -0.003263   -2.798864    0.000000    1.485000
   119  Cl    c     2.794707    8.395602   -2.798864    0.000000    1.485000
   120  Cl    c    -0.003263    5.590308    8.395602    0.000000    1.485000
   121  Cl    c    -2.798864    2.794707    8.395602    0.000000    1.485000
   122  Cl    c    -0.003263    8.395602    5.590308    0.000000    1.485000
   123  Cl    c    -5.604158    2.794707    5.590308    0.000000    1.485000
   124  Cl    c    -5.604158    5.590308    2.794707    0.000000    1.485000
   125  Cl    c    -2.798864    8.395602    2.794707    0.000000    1.485000
   126  Cl    c     8.395602    5.590308   -0.003263    0.000000    1.485000
   127  Cl    c    -2.798864   -5.604158   -0.003263    0.000000    1.485000
   128  Cl    c     8.395602   -0.003263    5.590308    0.000000    1.485000
   129  Cl    c     2.794707   -5.604158    5.590308    0.000000    1.485000
   130  Cl    c    -2.798864   -0.003263   -5.604158    0.000000    1.485000
   131  Cl    c     2.794707    5.590308   -5.604158    0.000000    1.485000
   132  Cl    c    -0.003263   -5.604158   -2.798864    0.000000    1.485000
   133  Cl    c     8.395602    2.794707   -2.798864    0.000000    1.485000
   134  Cl    c     5.590308   -5.604158    2.794707    0.000000    1.485000
   135  Cl    c     8.395602   -2.798864    2.794707    0.000000    1.485000
   136  Cl    c    -0.003263   -2.798864   -5.604158    0.000000    1.485000
   137  Cl    c     5.590308    2.794707   -5.604158    0.000000    1.485000
   138  Na    c     5.574953   -2.783509    8.361186    0.000000   -1.128000
   139  Na    c     5.574953    8.361186   -2.783509    0.000000   -1.128000
   140  Na    c    -5.569742   -2.783509   -2.783509    0.000000   -1.128000
   141  Na    c    -2.783509    5.574953    8.361186    0.000000   -1.128000
   142  Na    c    -2.783509    8.361186    5.574953    0.000000   -1.128000
   143  Na    c    -5.569742    5.574953    5.574953    0.000000   -1.128000
   144  Na    c     8.361186    5.574953   -2.783509    0.000000   -1.128000
   145  Na    c    -2.783509   -5.569742   -2.783509    0.000000   -1.128000
   146  Na    c     8.361186   -2.783509    5.574953    0.000000   -1.128000
   147  Na    c     5.574953   -5.569742    5.574953    0.000000   -1.128000
   148  Na    c     5.574953    5.574953   -5.569742    0.000000   -1.128000
   149  Na    c    -2.783509   -2.783509   -5.569742    0.000000   -1.128000
   150  Cl    c     8.394446    5.594698    5.594698    0.000000    1.485000
   151  Cl    c    -2.803254   -5.603002    5.594698    0.000000    1.485000
   152  Cl    c    -2.803254    5.594698   -5.603002    0.000000    1.485000
   153  Cl    c     5.594698    8.394446    5.594698    0.000000    1.485000
   154  Cl    c    -5.603002   -2.803254    5.594698    0.000000    1.485000
   155  Cl    c     5.594698    5.594698    8.394446    0.000000    1.485000
   156  Cl    c    -2.803254   -2.803254    8.394446    0.000000    1.485000
   157  Cl    c    -5.603002    5.594698   -2.803254    0.000000    1.485000
   158  Cl    c    -2.803254    8.394446   -2.803254    0.000000    1.485000
   159  Cl    c     5.594698   -2.803254   -5.603002    0.000000    1.485000
   160  Cl    c     5.594698   -5.603002   -2.803254    0.000000    1.485000
   161  Cl    c     8.394446   -2.803254   -2.803254    0.000000    1.485000
   162  Na    c     2.788623    2.788623   11.160843    0.000000   -1.128000
   163  Na    c     0.002821    0.002821   11.160843    0.000000   -1.128000
   164  Na    c     2.788623   11.160843    2.788623    0.000000   -1.128000
   165  Na    c    -8.369399    0.002821    2.788623    0.000000   -1.128000
   166  Na    c     0.002821   11.160843    0.002821    0.000000   -1.128000
   167  Na    c    -8.369399    2.788623    0.002821    0.000000   -1.128000
   168  Na    c    11.160843    2.788623    2.788623    0.000000   -1.128000
   169  Na    c     0.002821   -8.369399    2.788623    0.000000   -1.128000
   170  Na    c     0.002821    2.788623   -8.369399    0.000000   -1.128000
   171  Na    c    11.160843    0.002821    0.002821    0.000000   -1.128000
   172  Na    c     2.788623   -8.369399    0.002821    0.000000   -1.128000
   173  Na    c     2.788623    0.002821   -8.369399    0.000000   -1.128000
   174  Cl    c     2.794913   -0.003469   11.188947    0.000000    1.485000
   175  Cl    c     2.794913   11.188947   -0.003469    0.000000    1.485000
   176  Cl    c    -8.397503   -0.003469   -0.003469    0.000000    1.485000
   177  Cl    c    -0.003469    2.794913   11.188947    0.000000    1.485000
   178  Cl    c    -0.003469   11.188947    2.794913    0.000000    1.485000
   179  Cl    c    -8.397503    2.794913    2.794913    0.000000    1.485000
   180  Cl    c    11.188947    2.794913   -0.003469    0.000000    1.485000
   181  Cl    c    -0.003469   -8.397503   -0.003469    0.000000    1.485000
   182  Cl    c    11.188947   -0.003469    2.794913    0.000000    1.485000
   183  Cl    c     2.794913   -8.397503    2.794913    0.000000    1.485000
   184  Cl    c    -0.003469   -0.003469   -8.397503    0.000000    1.485000
   185  Cl    c     2.794913    2.794913   -8.397503    0.000000    1.485000
   186  Na    c     8.363395    8.363395    0.005000    0.000000   -1.128000
   187  Na    c    -5.571951   -5.571951    0.005000    0.000000   -1.128000
   188  Na    c     8.363395    0.005000    8.363395    0.000000   -1.128000
   189  Na    c     2.786444   -5.571951    8.363395    0.000000   -1.128000
   190  Na    c     2.786444    8.363395   -5.571951    0.000000   -1.128000
   191  Na    c    -5.571951    0.005000   -5.571951    0.000000   -1.128000
   192  Na    c     0.005000    8.363395    8.363395    0.000000   -1.128000
   193  Na    c    -5.571951    2.786444    8.363395    0.000000   -1.128000
   194  Na    c    -5.571951    8.363395    2.786444    0.000000   -1.128000
   195  Na    c     8.363395    2.786444   -5.571951    0.000000   -1.128000
   196  Na    c     0.005000   -5.571951   -5.571951    0.000000   -1.128000
   197  Na    c     8.363395   -5.571951    2.786444    0.000000   -1.128000
   198  Cl    c     8.404161    8.404161    2.794329    0.000000    1.485000
   199  Cl    c    -5.612717   -5.612717    2.794329    0.000000    1.485000
   200  Cl    c     8.404161    2.794329    8.404161    0.000000    1.485000
   201  Cl    c    -0.002885   -5.612717    8.404161    0.000000    1.485000
   202  Cl    c    -5.612717    2.794329   -5.612717    0.000000    1.485000
   203  Cl    c    -0.002885    8.404161   -5.612717    0.000000    1.485000
   204  Cl    c     2.794329    8.404161    8.404161    0.000000    1.485000
   205  Cl    c    -5.612717   -0.002885    8.404161    0.000000    1.485000
   206  Cl    c    -5.612717    8.404161   -0.002885    0.000000    1.485000
   207  Cl    c     2.794329   -5.612717   -5.612717    0.000000    1.485000
   208  Cl    c     8.404161   -0.002885   -5.612717    0.000000    1.485000
   209  Cl    c     8.404161   -5.612717   -0.002885    0.000000    1.485000
   210  Cl    s     1.395722    1.395722    1.395722    0.000000   -2.485000
   211  Na    s     2.827092    2.827092   -0.035648    0.000000    2.128000
   212  Na    s    -0.035648   -0.035648   -0.035648    0.000000    2.128000
   213  Na    s     2.827092   -0.035648    2.827092    0.000000    2.128000
   214  Na    s    -0.035648    2.827092    2.827092    0.000000    2.128000
   215  Cl    s    -0.336042   -0.336042    3.127486    0.000000   -2.485000
   216  Cl    s     3.127486    3.127486    3.127486    0.000000   -2.485000
   217  Cl    s    -0.336042    3.127486   -0.336042    0.000000   -2.485000
   218  Cl    s     3.127486   -0.336042   -0.336042    0.000000   -2.485000
   219  Na    s     5.647822    2.819358    2.819358    0.000000    2.128000
   220  Na    s    -0.027914   -2.856378    2.819358    0.000000    2.128000
   221  Na    s     2.819358    5.647822    2.819358    0.000000    2.128000
   222  Na    s    -2.856378   -0.027914    2.819358    0.000000    2.128000
   223  Na    s    -0.027914    5.647822   -0.027914    0.000000    2.128000
   224  Na    s    -2.856378    2.819358   -0.027914    0.000000    2.128000
   225  Na    s     5.647822   -0.027914   -0.027914    0.000000    2.128000
   226  Na    s     2.819358   -2.856378   -0.027914    0.000000    2.128000
   227  Na    s    -0.027914    2.819358   -2.856378    0.000000    2.128000
   228  Na    s     2.819358    2.819358    5.647822    0.000000    2.128000
   229  Na    s    -0.027914   -0.027914    5.647822    0.000000    2.128000
   230  Na    s     2.819358   -0.027914   -2.856378    0.000000    2.128000
   231  Cl    s    -2.852877   -0.019172   -0.019172    0.000000   -2.485000
   232  Cl    s     2.810616    5.644321   -0.019172    0.000000   -2.485000
   233  Cl    s    -2.852877    2.810616    2.810616    0.000000   -2.485000
   234  Cl    s    -0.019172    5.644321    2.810616    0.000000   -2.485000
   235  Cl    s    -0.019172   -2.852877   -0.019172    0.000000   -2.485000
   236  Cl    s     5.644321    2.810616   -0.019172    0.000000   -2.485000
   237  Cl    s     2.810616   -2.852877    2.810616    0.000000   -2.485000
   238  Cl    s     5.644321   -0.019172    2.810616    0.000000   -2.485000
   239  Cl    s     2.810616   -0.019172    5.644321    0.000000   -2.485000
   240  Cl    s    -0.019172    2.810616    5.644321    0.000000   -2.485000
   241  Cl    s    -0.019172   -0.019172   -2.852877    0.000000   -2.485000
   242  Cl    s     2.810616    2.810616   -2.852877    0.000000   -2.485000
   243  Na    s     5.579753    5.579753    0.018082    0.000000    2.128000
   244  Na    s    -2.788309   -2.788309    0.018082    0.000000    2.128000
   245  Na    s     5.579753    0.018082    5.579753    0.000000    2.128000
   246  Na    s     2.773362   -2.788309    5.579753    0.000000    2.128000
   247  Na    s     2.773362    5.579753   -2.788309    0.000000    2.128000
   248  Na    s    -2.788309    0.018082   -2.788309    0.000000    2.128000
   249  Na    s     0.018082    5.579753    5.579753    0.000000    2.128000
   250  Na    s    -2.788309    2.773362    5.579753    0.000000    2.128000
   251  Na    s    -2.788309    5.579753    2.773362    0.000000    2.128000
   252  Na    s     5.579753    2.773362   -2.788309    0.000000    2.128000
   253  Na    s     0.018082   -2.788309   -2.788309    0.000000    2.128000
   254  Na    s     5.579753   -2.788309    2.773362    0.000000    2.128000
   255  Cl    s     5.682654    5.682654    2.791696    0.000000   -2.485000
   256  Cl    s    -2.891210   -2.891210    2.791696    0.000000   -2.485000
   257  Cl    s     5.682654    2.791696    5.682654    0.000000   -2.485000
   258  Cl    s    -0.000252   -2.891210    5.682654    0.000000   -2.485000
   259  Cl    s    -2.891210    2.791696   -2.891210    0.000000   -2.485000
   260  Cl    s    -0.000252    5.682654   -2.891210    0.000000   -2.485000
   261  Cl    s     2.791696    5.682654    5.682654    0.000000   -2.485000
   262  Cl    s    -2.891210   -0.000252    5.682654    0.000000   -2.485000
   263  Cl    s    -2.891210    5.682654   -0.000252    0.000000   -2.485000
   264  Cl    s     2.791696   -2.891210   -2.891210    0.000000   -2.485000
   265  Cl    s     5.682654   -0.000252   -2.891210    0.000000   -2.485000
   266  Cl    s     5.682654   -2.891210   -0.000252    0.000000   -2.485000
   267  Na    s     5.567053    5.567053    5.567053    0.000000    2.128000
   268  Na    s    -2.775609   -2.775609    5.567053    0.000000    2.128000
   269  Na    s    -2.775609    5.567053   -2.775609    0.000000    2.128000
   270  Na    s     5.567053   -2.775609   -2.775609    0.000000    2.128000
   271  Cl    s    -2.796461    5.587905    5.587905    0.000000   -2.485000
   272  Cl    s     5.587905   -2.796461    5.587905    0.000000   -2.485000
   273  Cl    s    -2.796461   -2.796461   -2.796461    0.000000   -2.485000
   274  Cl    s     5.587905    5.587905   -2.796461    0.000000   -2.485000
   275  Na    s     2.794708   -0.003264    8.380040    0.000000    2.128000
   276  Na    s     2.794708    8.380040   -0.003264    0.000000    2.128000
   277  Na    s    -5.588596   -0.003264   -0.003264    0.000000    2.128000
   278  Na    s    -0.003264    2.794708    8.380040    0.000000    2.128000
   279  Na    s    -0.003264    8.380040    2.794708    0.000000    2.128000
   280  Na    s    -5.588596    2.794708    2.794708    0.000000    2.128000
   281  Na    s     8.380040    2.794708   -0.003264    0.000000    2.128000
   282  Na    s    -0.003264   -5.588596   -0.003264    0.000000    2.128000
   283  Na    s     8.380040   -0.003264    2.794708    0.000000    2.128000
   284  Na    s     2.794708   -5.588596    2.794708    0.000000    2.128000
   285  Na    s    -0.003264   -0.003264   -5.588596    0.000000    2.128000
   286  Na    s     2.794708    2.794708   -5.588596    0.000000    2.128000
   287  Cl    s     2.795397    2.795397    8.417501    0.000000   -2.485000
   288  Cl    s    -0.003953   -0.003953    8.417501    0.000000   -2.485000
   289  Cl    s     2.795397    8.417501    2.795397    0.000000   -2.485000
   290  Cl    s    -5.626057   -0.003953    2.795397    0.000000   -2.485000
   291  Cl    s    -5.626057    2.795397   -0.003953    0.000000   -2.485000
   292  Cl    s    -0.003953    8.417501   -0.003953    0.000000   -2.485000
   293  Cl    s     8.417501    2.795397    2.795397    0.000000   -2.485000
   294  Cl    s    -0.003953   -5.626057    2.795397    0.000000   -2.485000
   295  Cl    s    -0.003953    2.795397   -5.626057    0.000000   -2.485000
   296  Cl    s     2.795397   -5.626057   -0.003953    0.000000   -2.485000
   297  Cl    s     8.417501   -0.003953   -0.003953    0.000000   -2.485000
   298  Cl    s     2.795397   -0.003953   -5.626057    0.000000   -2.485000
   299  Na    s     8.389758    5.597048    2.795412    0.000000    2.128000
   300  Na    s    -2.805604   -5.598314    2.795412    0.000000    2.128000
   301  Na    s     8.389758    2.795412    5.597048    0.000000    2.128000
   302  Na    s    -0.003968   -5.598314    5.597048    0.000000    2.128000
   303  Na    s    -2.805604    2.795412   -5.598314    0.000000    2.128000
   304  Na    s    -0.003968    5.597048   -5.598314    0.000000    2.128000
   305  Na    s     5.597048    8.389758    2.795412    0.000000    2.128000
   306  Na    s    -5.598314   -2.805604    2.795412    0.000000    2.128000
   307  Na    s     5.597048    2.795412    8.389758    0.000000    2.128000
   308  Na    s    -0.003968   -2.805604    8.389758    0.000000    2.128000
   309  Na    s    -0.003968    8.389758   -2.805604    0.000000    2.128000
   310  Na    s    -5.598314    2.795412   -2.805604    0.000000    2.128000
   311  Na    s     2.795412    8.389758    5.597048    0.000000    2.128000
   312  Na    s    -5.598314   -0.003968    5.597048    0.000000    2.128000
   313  Na    s     2.795412    5.597048    8.389758    0.000000    2.128000
   314  Na    s    -2.805604   -0.003968    8.389758    0.000000    2.128000
   315  Na    s    -2.805604    8.389758   -0.003968    0.000000    2.128000
   316  Na    s    -5.598314    5.597048   -0.003968    0.000000    2.128000
   317  Na    s     2.795412   -2.805604   -5.598314    0.000000    2.128000
   318  Na    s     5.597048   -0.003968   -5.598314    0.000000    2.128000
   319  Na    s     8.389758   -0.003968   -2.805604    0.000000    2.128000
   320  Na    s     2.795412   -5.598314   -2.805604    0.000000    2.128000
   321  Na    s     8.389758   -2.805604   -0.003968    0.000000    2.128000
   322  Na    s     5.597048   -5.598314   -0.003968    0.000000    2.128000
   323  Cl    s     5.592526   -0.004889    8.399540    0.000000   -2.485000
   324  Cl    s     2.796333   -2.801082    8.399540    0.000000   -2.485000
   325  Cl    s     5.592526    8.399540   -0.004889    0.000000   -2.485000
   326  Cl    s    -5.608096   -2.801082   -0.004889    0.000000   -2.485000
   327  Cl    s    -5.608096   -0.004889   -2.801082    0.000000   -2.485000
   328  Cl    s     2.796333    8.399540   -2.801082    0.000000   -2.485000
   329  Cl    s    -0.004889    5.592526    8.399540    0.000000   -2.485000
   330  Cl    s    -2.801082    2.796333    8.399540    0.000000   -2.485000
   331  Cl    s    -0.004889    8.399540    5.592526    0.000000   -2.485000
   332  Cl    s    -5.608096    2.796333    5.592526    0.000000   -2.485000
   333  Cl    s    -5.608096    5.592526    2.796333    0.000000   -2.485000
   334  Cl    s    -2.801082    8.399540    2.796333    0.000000   -2.485000
   335  Cl    s     8.399540    5.592526   -0.004889    0.000000   -2.485000
   336  Cl    s    -2.801082   -5.608096   -0.004889    0.000000   -2.485000
   337  Cl    s     8.399540   -0.004889    5.592526    0.000000   -2.485000
   338  Cl    s     2.796333   -5.608096    5.592526    0.000000   -2.485000
   339  Cl    s    -2.801082   -0.004889   -5.608096    0.000000   -2.485000
   340  Cl    s     2.796333    5.592526   -5.608096    0.000000   -2.485000
   341  Cl    s    -0.004889   -5.608096   -2.801082    0.000000   -2.485000
   342  Cl    s     8.399540    2.796333   -2.801082    0.000000   -2.485000
   343  Cl    s     5.592526   -5.608096    2.796333    0.000000   -2.485000
   344  Cl    s     8.399540   -2.801082    2.796333    0.000000   -2.485000
   345  Cl    s    -0.004889   -2.801082   -5.608096    0.000000   -2.485000
   346  Cl    s     5.592526    2.796333   -5.608096    0.000000   -2.485000
   347  Na    s     5.574607   -2.783163    8.360733    0.000000    2.128000
   348  Na    s     5.574607    8.360733   -2.783163    0.000000    2.128000
   349  Na    s    -5.569289   -2.783163   -2.783163    0.000000    2.128000
   350  Na    s    -2.783163    5.574607    8.360733    0.000000    2.128000
   351  Na    s    -2.783163    8.360733    5.574607    0.000000    2.128000
   352  Na    s    -5.569289    5.574607    5.574607    0.000000    2.128000
   353  Na    s     8.360733    5.574607   -2.783163    0.000000    2.128000
   354  Na    s    -2.783163   -5.569289   -2.783163    0.000000    2.128000
   355  Na    s     8.360733   -2.783163    5.574607    0.000000    2.128000
   356  Na    s     5.574607   -5.569289    5.574607    0.000000    2.128000
   357  Na    s     5.574607    5.574607   -5.569289    0.000000    2.128000
   358  Na    s    -2.783163   -2.783163   -5.569289    0.000000    2.128000
   359  Cl    s     8.399865    5.596299    5.596299    0.000000   -2.485000
   360  Cl    s    -2.804855   -5.608421    5.596299    0.000000   -2.485000
   361  Cl    s    -2.804855    5.596299   -5.608421    0.000000   -2.485000
   362  Cl    s     5.596299    8.399865    5.596299    0.000000   -2.485000
   363  Cl    s    -5.608421   -2.804855    5.596299    0.000000   -2.485000
   364  Cl    s     5.596299    5.596299    8.399865    0.000000   -2.485000
   365  Cl    s    -2.804855   -2.804855    8.399865    0.000000   -2.485000
   366  Cl    s    -5.608421    5.596299   -2.804855    0.000000   -2.485000
   367  Cl    s    -2.804855    8.399865   -2.804855    0.000000   -2.485000
   368  Cl    s     5.596299   -2.804855   -5.608421    0.000000   -2.485000
   369  Cl    s     5.596299   -5.608421   -2.804855    0.000000   -2.485000
   370  Cl    s     8.399865   -2.804855   -2.804855    0.000000   -2.485000
   371  Na    s     2.788634    2.788634   11.159742    0.000000    2.128000
   372  Na    s     0.002810    0.002810   11.159742    0.000000    2.128000
   373  Na    s     2.788634   11.159742    2.788634    0.000000    2.128000
   374  Na    s    -8.368298    0.002810    2.788634    0.000000    2.128000
   375  Na    s     0.002810   11.159742    0.002810    0.000000    2.128000
   376  Na    s    -8.368298    2.788634    0.002810    0.000000    2.128000
   377  Na    s    11.159742    2.788634    2.788634    0.000000    2.128000
   378  Na    s     0.002810   -8.368298    2.788634    0.000000    2.128000
   379  Na    s     0.002810    2.788634   -8.368298    0.000000    2.128000
   380  Na    s    11.159742    0.002810    0.002810    0.000000    2.128000
   381  Na    s     2.788634   -8.368298    0.002810    0.000000    2.128000
   382  Na    s     2.788634    0.002810   -8.368298    0.000000    2.128000
   383  Cl    s     2.795229   -0.003785   11.192346    0.000000   -2.485000
   384  Cl    s     2.795229   11.192346   -0.003785    0.000000   -2.485000
   385  Cl    s    -8.400902   -0.003785   -0.003785    0.000000   -2.485000
   386  Cl    s    -0.003785    2.795229   11.192346    0.000000   -2.485000
   387  Cl    s    -0.003785   11.192346    2.795229    0.000000   -2.485000
   388  Cl    s    -8.400902    2.795229    2.795229    0.000000   -2.485000
   389  Cl    s    11.192346    2.795229   -0.003785    0.000000   -2.485000
   390  Cl    s    -0.003785   -8.400902   -0.003785    0.000000   -2.485000
   391  Cl    s    11.192346   -0.003785    2.795229    0.000000   -2.485000
   392  Cl    s     2.795229   -8.400902    2.795229    0.000000   -2.485000
   393  Cl    s    -0.003785   -0.003785   -8.400902    0.000000   -2.485000
   394  Cl    s     2.795229    2.795229   -8.400902    0.000000   -2.485000
   395  Na    s     8.362934    8.362934    0.005066    0.000000    2.128000
   396  Na    s    -5.571490   -5.571490    0.005066    0.000000    2.128000
   397  Na    s     8.362934    0.005066    8.362934    0.000000    2.128000
   398  Na    s     2.786378   -5.571490    8.362934    0.000000    2.128000
   399  Na    s     2.786378    8.362934   -5.571490    0.000000    2.128000
   400  Na    s    -5.571490    0.005066   -5.571490    0.000000    2.128000
   401  Na    s     0.005066    8.362934    8.362934    0.000000    2.128000
   402  Na    s    -5.571490    2.786378    8.362934    0.000000    2.128000
   403  Na    s    -5.571490    8.362934    2.786378    0.000000    2.128000
   404  Na    s     8.362934    2.786378   -5.571490    0.000000    2.128000
   405  Na    s     0.005066   -5.571490   -5.571490    0.000000    2.128000
   406  Na    s     8.362934   -5.571490    2.786378    0.000000    2.128000
   407  Cl    s     8.407945    8.407945    2.794404    0.000000   -2.485000
   408  Cl    s    -5.616501   -5.616501    2.794404    0.000000   -2.485000
   409  Cl    s     8.407945    2.794404    8.407945    0.000000   -2.485000
   410  Cl    s    -0.002960   -5.616501    8.407945    0.000000   -2.485000
   411  Cl    s    -5.616501    2.794404   -5.616501    0.000000   -2.485000
   412  Cl    s    -0.002960    8.407945   -5.616501    0.000000   -2.485000
   413  Cl    s     2.794404    8.407945    8.407945    0.000000   -2.485000
   414  Cl    s    -5.616501   -0.002960    8.407945    0.000000   -2.485000
   415  Cl    s    -5.616501    8.407945   -0.002960    0.000000   -2.485000
   416  Cl    s     2.794404   -5.616501   -5.616501    0.000000   -2.485000
   417  Cl    s     8.407945   -0.002960   -5.616501    0.000000   -2.485000
   418  Cl    s     8.407945   -5.616501   -0.002960    0.000000   -2.485000
--------------------------------------------------------------------------------

  Final coordinates of symmetry reduced region 1 (relative to defect centre):

--------------------------------------------------------------------------------
   No.  Atomic        x           y           z          Charge
        Label       (Angs)      (Angs)      (Angs)         (e) 
--------------------------------------------------------------------------------
     1  Cl    c     0.000000    0.000000    0.000000    1.485000
     2  Na    c     1.437359    1.437359   -1.437359   -1.128000
     3  Cl    c    -1.695053   -1.695053    1.695053    1.485000
     4  Na    c     4.258891    1.422574    1.422574   -1.128000
     5  Cl    c    -4.241276   -1.408840   -1.408840    1.485000
     6  Na    c     4.184646    4.184646   -1.378144   -1.128000
     7  Cl    c     4.275663    4.275663    1.395765    1.485000
     8  Na    c     4.171763    4.171763    4.171763   -1.128000
     9  Cl    c    -4.188786    4.188786    4.188786    1.485000
    10  Na    c     1.398914   -1.398914    6.985812   -1.128000
    11  Cl    c     1.399749    1.399749    7.019879    1.485000
    12  Na    c     6.995601    4.201299    1.399724   -1.128000
    13  Cl    c     4.194586   -1.398985    6.999880    1.485000
    14  Na    c     4.179231   -4.179231    6.965464   -1.128000
    15  Cl    c     6.998724    4.198976    4.198976    1.485000
    16  Na    c     1.392901    1.392901    9.765121   -1.128000
    17  Cl    c     1.399191   -1.399191    9.793225    1.485000
    18  Na    c     6.967673    6.967673   -1.390722   -1.128000
    19  Cl    c     7.008439    7.008439    1.398607    1.485000
    20  Cl    s     0.000000    0.000000    0.000000   -2.485000
    21  Na    s     1.431370    1.431370   -1.431370    2.128000
    22  Cl    s    -1.731764   -1.731764    1.731764   -2.485000
    23  Na    s     4.252100    1.423636    1.423636    2.128000
    24  Cl    s    -4.248599   -1.414894   -1.414894   -2.485000
    25  Na    s     4.184031    4.184031   -1.377640    2.128000
    26  Cl    s     4.286932    4.286932    1.395974   -2.485000
    27  Na    s     4.171331    4.171331    4.171331    2.128000
    28  Cl    s    -4.192183    4.192183    4.192183   -2.485000
    29  Na    s     1.398986   -1.398986    6.984318    2.128000
    30  Cl    s     1.399675    1.399675    7.021779   -2.485000
    31  Na    s     6.994036    4.201326    1.399690    2.128000
    32  Cl    s     4.196804   -1.400611    7.003818   -2.485000
    33  Na    s     4.178885   -4.178885    6.965011    2.128000
    34  Cl    s     7.004143    4.200577    4.200577   -2.485000
    35  Na    s     1.392912    1.392912    9.764020    2.128000
    36  Cl    s     1.399507   -1.399507    9.796624   -2.485000
    37  Na    s     6.967212    6.967212   -1.390656    2.128000
    38  Cl    s     7.012223    7.012223    1.398682   -2.485000
--------------------------------------------------------------------------------


  Final derivatives for region 1 :

--------------------------------------------------------------------------------
   No.  Atomic          x             y             z            Radius
        Label       (eV/Angs)     (eV/Angs)     (eV/Angs)       (eV/Angs)
--------------------------------------------------------------------------------
     1  Cl    c       0.000000      0.000000      0.000000      0.000000
     2  Na    c      -0.002383      0.000000      0.000000      0.000000
     3  Cl    c      -0.004030      0.000000      0.000000      0.000000
     4  Na    c      -0.000098     -0.001677      0.000000      0.000000
     5  Cl    c      -0.000988     -0.000901      0.000000      0.000000
     6  Na    c      -0.001638      0.000000      0.000369      0.000000
     7  Cl    c       0.000888      0.000000     -0.000069      0.000000
     8  Na    c      -0.000491      0.000000      0.000000      0.000000
     9  Cl    c      -0.000448      0.000000      0.000000      0.000000
    10  Na    c      -0.000468      0.000000     -0.000312      0.000000
    11  Cl    c       0.000373      0.000000      0.000546      0.000000
    12  Na    c      -0.000553     -0.000718     -0.000240      0.000000
    13  Cl    c       0.000401     -0.000259      0.001040      0.000000
    14  Na    c      -0.000422      0.000000     -0.000308      0.000000
    15  Cl    c       0.000330      0.000420      0.000000      0.000000
    16  Na    c      -0.000174      0.000000     -0.000201      0.000000
    17  Cl    c       0.000064      0.000000      0.000366      0.000000
    18  Na    c      -0.000513      0.000000      0.000091      0.000000
    19  Cl    c       0.000485      0.000000      0.000040      0.000000
    20  Cl    s       0.000000      0.000000      0.000000      0.000000
    21  Na    s       0.001229      0.000000      0.000000      0.000000
    22  Cl    s       0.007585      0.000000      0.000000      0.000000
    23  Na    s       0.001298      0.003748      0.000000      0.000000
    24  Cl    s       0.001568      0.001302      0.000000      0.000000
    25  Na    s       0.002850      0.000000     -0.000492      0.000000
    26  Cl    s      -0.001788      0.000000      0.000091      0.000000
    27  Na    s       0.000888      0.000000      0.000000      0.000000
    28  Cl    s       0.000757      0.000000      0.000000      0.000000
    29  Na    s       0.000723      0.000000      0.001327      0.000000
    30  Cl    s      -0.000530      0.000000     -0.001346      0.000000
    31  Na    s       0.001760      0.001070      0.000349      0.000000
    32  Cl    s      -0.000786      0.000442     -0.001515      0.000000
    33  Na    s       0.000731      0.000000      0.000614      0.000000
    34  Cl    s      -0.000572     -0.000685      0.000000      0.000000
    35  Na    s       0.000263      0.000000      0.000767      0.000000
    36  Cl    s      -0.000133      0.000000     -0.000590      0.000000
    37  Na    s       0.001035      0.000000     -0.000137      0.000000
    38  Cl    s      -0.000800      0.000000     -0.000086      0.000000
--------------------------------------------------------------------------------


  Time to end of optimisation  =        1.1746 seconds


  Peak dynamic memory used =      31.93 MB 


  Timing analysis for GULP :

--------------------------------------------------------------------------------
  Task / Subroutine                                          Time (Seconds)
--------------------------------------------------------------------------------
  Calculation of reciprocal space energy and derivatives          0.0002
  Calculation of reciprocal space energy using symmetry           0.0003
  Calculation of real space energy and derivatives                0.0014
  Calculation of real space energy using symmetry                 0.0079
  Calculation for region 1 energy and derivatives (2-b)           0.4912
  Calculation for region 2a energy                                0.6189
  Calculation and manipulation of Hessian matrix                  0.0108
  Calculation of matrix inversion                                 0.0002
  Symmetry generation of equivalent positions                     0.0024
--------------------------------------------------------------------------------
  Total CPU time                                                  1.1746
--------------------------------------------------------------------------------


  Dump file written as NaCl.grs


  Job Finished at 16:25.30  2nd October    2020                               

