********************************************************************************
*                       GENERAL UTILITY LATTICE PROGRAM                        *
*                                 Julian Gale                                  *
*                       Curtin Institute for Computation                       *
*                    School of Molecular and Life Sciences                     *
*                    Curtin University, Western Australia                      *
********************************************************************************
* Version = 5.2.0 * Last modified =  10th September 2020                       *
********************************************************************************
*  optimise     - perform optimisation run                                     *
*  conp         - constant pressure calculation                                *
*  property     - calculate properties for final geometry                      *
*  defect       - perform defect calculation after bulk run                    *
*  compare      - compare initial and final structures                         *
********************************************************************************

  Job Started  at 11:50.50 23rd October    2020                               

  Number of CPUs =     1


  Total number of configurations input =      1

********************************************************************************
*  Input for Configuration =   1                                               *
********************************************************************************

  Formula = ClOLi3                                                      

  Number of irreducible atoms/shells =       5


  Total number atoms/shells =       7

  Dimensionality = 3               :  Bulk   


  Symmetry :

  Crystal family                   :  Cubic       
  Crystal class  (Groth - 1921)    :  Cubic Hexakisoctahedral              

  Space group (centrosymmetric)    :  P M 3 M         

  Patterson group                  :  P m -3 m 

  Cartesian lattice vectors (Angstroms) :

        3.918873    0.000000    0.000000
        0.000000    3.918873    0.000000
        0.000000    0.000000    3.918873

  Cell parameters (Angstroms/Degrees):

  a =       3.9189    alpha =  90.0000
  b =       3.9189    beta  =  90.0000
  c =       3.9189    gamma =  90.0000

  Initial cell volume =          60.184349 Angs**3

  Temperature of configuration =   0.00     K 

  Pressure of configuration =         0.000 GPa 

  Fractional coordinates of asymmetric unit :

--------------------------------------------------------------------------------
   No.  Atomic       x           y          z         Charge      Occupancy
        Label      (Frac)      (Frac)     (Frac)        (e)         (Frac)  
--------------------------------------------------------------------------------
      1 Cl    c    0.000000    0.000000    0.000000     1.48500    1.000000    
      2 O     c    0.500000    0.500000    0.500000     0.18300    1.000000    
      3 Li    c    0.500000    0.500000    0.000000     1.00000    1.000000    
      4 Cl    s    0.000000    0.000000    0.000000    -2.48500    1.000000    
      5 O     s    0.500000    0.500000    0.500000    -2.18300    1.000000    
--------------------------------------------------------------------------------


  Constraints : 

--------------------------------------------------------------------------------
  Constraint no.      Unconstrained     Constrained    Coefficient    Offset
                         Variable         Variable
--------------------------------------------------------------------------------
           1              Strain 1        Strain 2       1.00000      0.0000
           2              Strain 1        Strain 3       1.00000      0.0000
--------------------------------------------------------------------------------


********************************************************************************
*  General input information                                                   *
********************************************************************************

  Species output for all configurations : 

--------------------------------------------------------------------------------
  Species    Type    Atomic    Atomic    Charge       Radii (Angs)     Library
                     Number     Mass       (e)     Cova   Ionic  VDW   Symbol
--------------------------------------------------------------------------------
    Li       Core        3       6.94   1.000000   0.680  0.000  1.800          
    O        Core        8      16.00   0.183000   0.730  0.000  1.360          
    O        Shell       8       0.00  -2.183000   0.730  0.000  1.360          
    Cl       Core       17      35.45   1.485000   0.990  0.000  1.650          
    Cl       Shell      17       0.00  -2.485000   0.990  0.000  1.650          
--------------------------------------------------------------------------------


  Lattice summation method               =    Ewald          (3-D)
                                         =    Parry          (2-D)
                                         =    Saunders et al (1-D)
  Accuracy factor for lattice sums       =   12.000


  Analytic derivatives to be used

  Time limit = Infinity

  Maximum range for interatomic potentials =    100000.000000 Angstroms

  General interatomic potentials :

--------------------------------------------------------------------------------
Atom  Types   Potential      Parameter       Value         Units   Cutoffs(Ang)
  1     2                                                            Min /  Max 
--------------------------------------------------------------------------------
O    c O    s Spring (c-s)  Spring k 2       593.72000    eV*Ang^-2 0.000  0.800
                            Spring k 4       0.0000000    eV*Ang^-4 
--------------------------------------------------------------------------------
Cl   c Cl   s Spring (c-s)  Spring k 2       29.380000    eV*Ang^-2 0.000  0.800
                            Spring k 4       0.0000000    eV*Ang^-4 
--------------------------------------------------------------------------------
Li   c Li   c Buckingham    Buckingham A     360.53000    eV        0.000 12.000
                            Buckingham rho  0.16100000    Ang       
                            Buckingham C     0.0000000    eV*Ang^6  
--------------------------------------------------------------------------------
Li   c O    s Buckingham    Buckingham A     292.30000    eV        0.000 12.000
                            Buckingham rho  0.34720000    Ang       
                            Buckingham C     0.0000000    eV*Ang^6  
--------------------------------------------------------------------------------
Li   c Cl   s Buckingham    Buckingham A     421.04000    eV        0.000 12.000
                            Buckingham rho  0.33400000    Ang       
                            Buckingham C     0.0000000    eV*Ang^6  
--------------------------------------------------------------------------------
O    s O    s Buckingham    Buckingham A     22764.300    eV        0.000 12.000
                            Buckingham rho  0.14900000    Ang       
                            Buckingham C     13.190000    eV*Ang^6  
--------------------------------------------------------------------------------
O    s Cl   s Buckingham    Buckingham A     8286.9100    eV        0.000 12.000
                            Buckingham rho  0.25900000    Ang       
                            Buckingham C     62.200000    eV*Ang^6  
--------------------------------------------------------------------------------
Cl   s Cl   s Buckingham    Buckingham A     1227.2000    eV        0.000 12.000
                            Buckingham rho  0.32100000    Ang       
                            Buckingham C     14.530000    eV*Ang^6  
--------------------------------------------------------------------------------

********************************************************************************
*  Output for configuration   1                                                *
********************************************************************************


  Components of energy : 

--------------------------------------------------------------------------------
  Interatomic potentials     =           7.26836263 eV    
  Monopole - monopole (real) =         -11.53475722 eV    
  Monopole - monopole (recip)=         -33.94580548 eV    
  Monopole - monopole (total)=         -45.48056271 eV    
--------------------------------------------------------------------------------
  Total lattice energy       =         -38.21220008 eV    
--------------------------------------------------------------------------------
  Total lattice energy       =           -3686.8932 kJ/(mole unit cells)
--------------------------------------------------------------------------------


  Number of variables =        1

  Maximum number of calculations  =          1000
  Maximum Hessian update interval =            10
  Maximum step size               =   1.000000000
  Maximum parameter tolerance     =   0.000010000
  Maximum function  tolerance     =   0.000010000
  Maximum gradient  tolerance     =   0.001000000
  Maximum gradient  component     =   0.010000000

  Symmetry constrained optimisation

  Symmetry used for second derivatives

  Cell parameters to be optimised using strains

  Newton-Raphson optimiser to be used

  BFGS hessian update to be used

  Lower half triangular hessian to be used

  Start of bulk optimisation :

  Cycle:      0 Energy:       -38.212200  Gnorm:      0.095699  CPU:    0.006
  ** Hessian calculated **
  Cycle:      1 Energy:       -38.212222  Gnorm:      0.000105  CPU:    0.007


  **** Optimisation achieved ****


  Final energy =     -38.21222207 eV
  Final Gnorm  =       0.00000016

  Components of energy : 

--------------------------------------------------------------------------------
  Interatomic potentials     =           7.24743141 eV    
  Monopole - monopole (real) =         -11.52945423 eV    
  Monopole - monopole (recip)=         -33.93019924 eV    
  Monopole - monopole (total)=         -45.45965348 eV    
--------------------------------------------------------------------------------
  Total lattice energy       =         -38.21222207 eV    
--------------------------------------------------------------------------------
  Total lattice energy       =           -3686.8953 kJ/(mole unit cells)
--------------------------------------------------------------------------------

  Final asymmetric unit coordinates :

--------------------------------------------------------------------------------
   No.  Atomic        x           y           z         Radius
        Label       (Frac)      (Frac)      (Frac)       (Angs) 
--------------------------------------------------------------------------------
     1  Cl    c     0.000000    0.000000    0.000000    0.000000
     2  O     c     0.500000    0.500000    0.500000    0.000000
     3  Li    c     0.500000    0.500000    0.000000    0.000000
     4  Cl    s     0.000000    0.000000    0.000000    0.000000
     5  O     s     0.500000    0.500000    0.500000    0.000000
--------------------------------------------------------------------------------

  Final Cartesian lattice vectors (Angstroms) :

        3.920675    0.000000    0.000000
        0.000000    3.920675    0.000000
        0.000000    0.000000    3.920675


  Final cell parameters and derivatives :

--------------------------------------------------------------------------------
       a            3.920675 Angstrom     dE/de1(xx)    -0.000000 eV/strain
       b            3.920675 Angstrom     dE/de2(yy)     0.000000 eV/strain
       c            3.920675 Angstrom     dE/de3(zz)     0.000000 eV/strain
       alpha       90.000000 Degrees      dE/de4(yz)     0.000000 eV/strain
       beta        90.000000 Degrees      dE/de5(xz)     0.000000 eV/strain
       gamma       90.000000 Degrees      dE/de6(xy)     0.000000 eV/strain
--------------------------------------------------------------------------------

  Primitive cell volume =            60.267433 Angs**3

  Density of cell =      1.991276 g/cm**3

  Non-primitive cell volume =            60.267433 Angs**3


  Final internal derivatives :

--------------------------------------------------------------------------------
   No.  Atomic          a             b             c           Radius
        Label          (eV)          (eV)          (eV)        (eV/Angs)
--------------------------------------------------------------------------------
      1 Cl    c       0.000000      0.000000      0.000000      0.000000
      2 O     c       0.000000      0.000000      0.000000      0.000000
      3 Li    c       0.000000      0.000000      0.000000      0.000000
      4 Cl    s       0.000000      0.000000      0.000000      0.000000
      5 O     s       0.000000      0.000000      0.000000      0.000000
--------------------------------------------------------------------------------
  Maximum abs         0.000000      0.000000      0.000000      0.000000
--------------------------------------------------------------------------------

  Comparison of initial and final structures : 

--------------------------------------------------------------------------------
  Parameter   Initial value   Final value   Difference    Units      Percent
--------------------------------------------------------------------------------
    Volume        60.184349     60.267433     0.083084    Angs**3      0.14
    a              3.918873      3.920675     0.001802    Angstroms    0.05
    b              3.918873      3.920675     0.001802    Angstroms    0.05
    c              3.918873      3.920675     0.001802    Angstroms    0.05
    alpha         90.000000     90.000000     0.000000    Degrees      0.00
    beta          90.000000     90.000000     0.000000    Degrees      0.00
    gamma         90.000000     90.000000     0.000000    Degrees      0.00
      1 x          0.000000      0.000000     0.000000    Fractional   0.00
      1 y          0.000000      0.000000     0.000000    Fractional   0.00
      1 z          0.000000      0.000000     0.000000    Fractional   0.00
      2 x          0.500000      0.500000     0.000000    Fractional   0.00
      2 y          0.500000      0.500000     0.000000    Fractional   0.00
      2 z          0.500000      0.500000     0.000000    Fractional   0.00
      3 x          0.500000      0.500000     0.000000    Fractional   0.00
      3 y          0.500000      0.500000     0.000000    Fractional   0.00
      3 z          0.000000      0.000000     0.000000    Fractional   0.00
      4 x          0.000000      0.000000     0.000000    Fractional   0.00
      4 y          0.000000      0.000000     0.000000    Fractional   0.00
      4 z          0.000000      0.000000     0.000000    Fractional   0.00
      5 x          0.500000      0.500000     0.000000    Fractional   0.00
      5 y          0.500000      0.500000     0.000000    Fractional   0.00
      5 z          0.500000      0.500000     0.000000    Fractional   0.00
--------------------------------------------------------------------------------


  Born effective charge tensors : 

-------------------------------------------------------------------------------
  Atom             x           y             z
-------------------------------------------------------------------------------
    1 Cl    x      -0.9489     -0.0000     -0.0000
            y      -0.0000     -0.9489     -0.0000
            z      -0.0000     -0.0000     -0.9489
-------------------------------------------------------------------------------
    2 O     x      -2.4688      0.0000      0.0000
            y       0.0000     -2.4688      0.0000
            z       0.0000      0.0000     -2.4688
-------------------------------------------------------------------------------
    3 Li    x       1.3129      0.0000     -0.0000
            y       0.0000      1.3129      0.0000
            z      -0.0000      0.0000      0.7919
-------------------------------------------------------------------------------




  Elastic Constant Matrix: (Units=GPa)

-------------------------------------------------------------------------------
  Indices      1         2         3         4         5         6    
-------------------------------------------------------------------------------
       1     94.3368   44.9178   44.9178    0.0000   -0.0000    0.0000
       2     44.9178   94.3368   44.9178   -0.0000    0.0000   -0.0000
       3     44.9178   44.9178   94.3368    0.0000   -0.0000    0.0000
       4      0.0000   -0.0000    0.0000   44.9178   -0.0000    0.0000
       5     -0.0000    0.0000   -0.0000   -0.0000   44.9178    0.0000
       6      0.0000   -0.0000    0.0000    0.0000    0.0000   44.9178
-------------------------------------------------------------------------------


  Elastic Compliance Matrix: (Units=1/GPa)

-------------------------------------------------------------------------------
  Indices      1         2         3         4         5         6    
-------------------------------------------------------------------------------
       1    0.015300 -0.004935 -0.004935 -0.000000  0.000000 -0.000000
       2   -0.004935  0.015300 -0.004935  0.000000 -0.000000  0.000000
       3   -0.004935 -0.004935  0.015300 -0.000000  0.000000 -0.000000
       4   -0.000000  0.000000 -0.000000  0.022263  0.000000 -0.000000
       5    0.000000 -0.000000  0.000000  0.000000  0.022263 -0.000000
       6   -0.000000  0.000000 -0.000000 -0.000000 -0.000000  0.022263
-------------------------------------------------------------------------------

  Mechanical properties :

-------------------------------------------------------------------------------
  Convention :                    Reuss         Voigt         Hill
-------------------------------------------------------------------------------
  Bulk  Modulus (GPa)     =      61.39080      61.39080      61.39080
  Shear Modulus (GPa)     =      33.84570      36.83448      35.34009
-------------------------------------------------------------------------------
  Velocity S-wave (km/s)  =       4.12274       4.30092       4.21277
  Velocity P-wave (km/s)  =       7.31386       7.44942       7.38195
-------------------------------------------------------------------------------
  Compressibility (1/GPa) =    0.01628909
-------------------------------------------------------------------------------
  Stress axis :                     x             y             z
-------------------------------------------------------------------------------
  Youngs Moduli (GPa)     =      65.35947      65.35947      65.35947
-------------------------------------------------------------------------------
  Poissons Ratio (x)      =                     0.32256       0.32256
  Poissons Ratio (y)      =       0.32256                     0.32256
  Poissons Ratio (z)      =       0.32256       0.32256
-------------------------------------------------------------------------------


  Piezoelectric Strain Matrix: (Units=C/m**2)

-------------------------------------------------------------------------------
  Indices      1         2         3         4         5         6    
-------------------------------------------------------------------------------
       x    -0.00000   0.00000   0.00000  -0.00000  -0.00000   0.00000
       y    -0.00000   0.00000   0.00000  -0.00000  -0.00000  -0.00000
       z     0.00000   0.00000   0.00000   0.00000  -0.00000  -0.00000
-------------------------------------------------------------------------------


  Piezoelectric Stress Matrix: (Units=10**-11 C/N)

-------------------------------------------------------------------------------
  Indices      1         2         3         4         5         6    
-------------------------------------------------------------------------------
       x    -0.00000   0.00000   0.00000  -0.00000  -0.00000   0.00000
       y    -0.00000   0.00000   0.00000  -0.00000  -0.00000  -0.00000
       z    -0.00000  -0.00000   0.00000   0.00000  -0.00000  -0.00000
-------------------------------------------------------------------------------


  Static dielectric constant tensor : 

-------------------------------------------------------------------------------
              x         y         z
-------------------------------------------------------------------------------
       x    12.11703   0.00000  -0.00000
       y     0.00000  12.11703  -0.00000
       z    -0.00000  -0.00000  12.11703
--------------------------------------------------------------------------------

  High frequency dielectric constant tensor : 

-------------------------------------------------------------------------------
              x         y         z
-------------------------------------------------------------------------------
       x     1.74104   0.00000   0.00000
       y     0.00000   1.74104   0.00000
       z     0.00000   0.00000   1.74104
-------------------------------------------------------------------------------

  Static refractive indices : 

-------------------------------------------------------------------------------
    1 =    3.48095      2 =    3.48095      3 =    3.48095
-------------------------------------------------------------------------------

  High frequency refractive indices : 

-------------------------------------------------------------------------------
    1 =    1.31948      2 =    1.31948      3 =    1.31948
-------------------------------------------------------------------------------


  Time to end of optimisation =       0.0101 seconds

********************************************************************************
*  Defect calculation for configuration   1 :                                  *
********************************************************************************

  Total number of defects =      3

  Total charge on defect  =  -1.00

  Defect centre is at   0.5000   0.0250   0.4750  Frac

  Region 1 radius =  20.0000      Number of ions =   3874

  Number of symmetry inequivalent region 1 ions  =   2101

  Region 2 radius =  24.0000      Number of ions =   2878

  Number of symmetry inequivalent region 2a ions =   1514

  Region 2a mode = 4 : screened electrostatics due to region 1 
                       neglect correction to region 1 forces from 2a
                       region 2a displacements based on defects only

  Region 2a ions will only interact with defects in region 1

  Vacancies:

--------------------------------------------------------------------------------
    Specification type     Symbol/Number         x          y          z
--------------------------------------------------------------------------------
    Fractional                               0.500000   0.500000   0.000000
    Fractional                               0.500000   0.000000   0.500000
--------------------------------------------------------------------------------

  Interstitials:

--------------------------------------------------------------------------------
    Specification type     Symbol/Number         x          y          z
--------------------------------------------------------------------------------
    Atom/Fractional         Li               0.500000   0.025000   0.475000
--------------------------------------------------------------------------------


  Symmetry reduced region 1 (Relative to defect centre) :

--------------------------------------------------------------------------------
   No.   Atomic       x            y             z       Radius  Multiplicity   
         Label      (Angs)       (Angs)        (Angs)    (Angs)     
--------------------------------------------------------------------------------
     1  Li    c      0.0000       0.0000       0.0000    0.0000     1    Defect
     2  O     c      0.0000       1.8623 *     0.0980 *  0.0000     1          
     3  O     c      0.0000      -2.0584 *     0.0980 *  0.0000     1          
     4  Li    c      1.9603 *     1.8623 *     0.0980 *  0.0000     2          
     5  Cl    c      1.9603 *    -0.0980 *    -1.8623 *  0.0000     2          
     6  Li    c      0.0000       1.8623 *     2.0584 *  0.0000     1          
     7  Li    c      0.0000      -2.0584 *    -1.8623 *  0.0000     1          
     8  Cl    c      1.9603 *    -0.0980 *     2.0584 *  0.0000     2          
     9  Li    c      1.9603 *    -2.0584 *     0.0980 *  0.0000     2          
    10  Li    c      0.0000      -2.0584 *     2.0584 *  0.0000     1          
    11  Li    c      0.0000      -0.0980 *    -3.8227 *  0.0000     1          
    12  Li    c      0.0000       3.8227 *     0.0980 *  0.0000     1          
    13  Li    c     -3.9207 *    -0.0980 *     0.0980 *  0.0000     2          
    14  Li    c      0.0000      -0.0980 *     4.0187 *  0.0000     1          
    15  Li    c      0.0000      -4.0187 *     0.0980 *  0.0000     1          
    16  O     c      0.0000       1.8623 *    -3.8227 *  0.0000     1          
    17  O     c      0.0000      -2.0584 *    -3.8227 *  0.0000     1          
    18  O     c      3.9207 *     1.8623 *     0.0980 *  0.0000     2          
    19  O     c     -3.9207 *    -2.0584 *     0.0980 *  0.0000     2          
    20  O     c      0.0000       1.8623 *     4.0187 *  0.0000     1          
    21  O     c      0.0000      -2.0584 *     4.0187 *  0.0000     1          
    22  Cl    c      1.9603 *     3.8227 *    -1.8623 *  0.0000     2          
    23  Li    c      1.9603 *     1.8623 *    -3.8227 *  0.0000     2          
    24  Li    c      3.9207 *     1.8623 *    -1.8623 *  0.0000     2          
    25  Cl    c      1.9603 *     3.8227 *     2.0584 *  0.0000     2          
    26  Li    c      1.9603 *    -2.0584 *    -3.8227 *  0.0000     2          
    27  Li    c      3.9207 *     1.8623 *     2.0584 *  0.0000     2          
    28  Li    c     -3.9207 *    -2.0584 *    -1.8623 *  0.0000     2          
    29  Cl    c      1.9603 *    -4.0187 *    -1.8623 *  0.0000     2          
    30  Li    c      1.9603 *     1.8623 *     4.0187 *  0.0000     2          
    31  Li    c     -3.9207 *    -2.0584 *     2.0584 *  0.0000     2          
    32  Cl    c      1.9603 *    -4.0187 *     2.0584 *  0.0000     2          
    33  Li    c      1.9603 *    -2.0584 *     4.0187 *  0.0000     2          
    34  Li    c      0.0000       3.8227 *    -3.8227 *  0.0000     1          
    35  Li    c     -3.9207 *    -0.0980 *    -3.8227 *  0.0000     2          
    36  Li    c     -3.9207 *     3.8227 *     0.0980 *  0.0000     2          
    37  Li    c      0.0000       3.8227 *     4.0187 *  0.0000     1          
    38  Li    c      0.0000      -4.0187 *    -3.8227 *  0.0000     1          
    39  Li    c     -3.9207 *    -0.0980 *     4.0187 *  0.0000     2          
    40  Li    c     -3.9207 *    -4.0187 *     0.0980 *  0.0000     2          
    41  Li    c      0.0000      -4.0187 *     4.0187 *  0.0000     1          
    42  O     c      0.0000       5.7830 *     0.0980 *  0.0000     1          
    43  O     c      3.9207 *     1.8623 *    -3.8227 *  0.0000     2          
    44  O     c     -3.9207 *    -2.0584 *    -3.8227 *  0.0000     2          
    45  O     c      3.9207 *     1.8623 *     4.0187 *  0.0000     2          
    46  O     c      0.0000      -5.9790 *     0.0980 *  0.0000     1          
    47  O     c     -3.9207 *    -2.0584 *     4.0187 *  0.0000     2          
    48  Li    c      0.0000       1.8623 *    -5.7830 *  0.0000     1          
    49  Li    c      0.0000       5.7830 *    -1.8623 *  0.0000     1          
    50  Cl    c      1.9603 *    -0.0980 *    -5.7830 *  0.0000     2          
    51  Li    c      1.9603 *     5.7830 *     0.0980 *  0.0000     2          
    52  Li    c      0.0000      -2.0584 *    -5.7830 *  0.0000     1          
    53  Li    c      0.0000       5.7830 *     2.0584 *  0.0000     1          
    54  Cl    c      5.8810 *    -0.0980 *    -1.8623 *  0.0000     2          
    55  Li    c      5.8810 *     1.8623 *     0.0980 *  0.0000     2          
    56  Cl    c      5.8810 *    -0.0980 *     2.0584 *  0.0000     2          
    57  Li    c      5.8810 *    -2.0584 *     0.0980 *  0.0000     2          
    58  Li    c      0.0000       1.8623 *     5.9790 *  0.0000     1          
    59  Li    c      0.0000      -5.9790 *    -1.8623 *  0.0000     1          
    60  Cl    c      1.9603 *    -0.0980 *     5.9790 *  0.0000     2          
    61  Li    c      1.9603 *    -5.9790 *     0.0980 *  0.0000     2          
    62  Li    c      0.0000      -2.0584 *     5.9790 *  0.0000     1          
    63  Li    c      0.0000      -5.9790 *     2.0584 *  0.0000     1          
    64  Li    c     -3.9207 *     3.8227 *    -3.8227 *  0.0000     2          
    65  Li    c     -3.9207 *     3.8227 *     4.0187 *  0.0000     2          
    66  Li    c     -3.9207 *    -4.0187 *    -3.8227 *  0.0000     2          
    67  Li    c     -3.9207 *    -4.0187 *     4.0187 *  0.0000     2          
    68  O     c      0.0000       5.7830 *    -3.8227 *  0.0000     1          
    69  O     c     -3.9207 *     5.7830 *     0.0980 *  0.0000     2          
    70  O     c      0.0000       5.7830 *     4.0187 *  0.0000     1          
    71  O     c      0.0000      -5.9790 *    -3.8227 *  0.0000     1          
    72  O     c     -3.9207 *    -5.9790 *     0.0980 *  0.0000     2          
    73  Cl    c      1.9603 *     3.8227 *    -5.7830 *  0.0000     2          
    74  O     c      0.0000      -5.9790 *     4.0187 *  0.0000     1          
    75  Li    c      1.9603 *     5.7830 *    -3.8227 *  0.0000     2          
    76  Li    c      3.9207 *     1.8623 *    -5.7830 *  0.0000     2          
    77  Li    c     -3.9207 *     5.7830 *    -1.8623 *  0.0000     2          
    78  Cl    c      5.8810 *     3.8227 *    -1.8623 *  0.0000     2          
    79  Li    c      5.8810 *     1.8623 *    -3.8227 *  0.0000     2          
    80  Li    c     -3.9207 *    -2.0584 *    -5.7830 *  0.0000     2          
    81  Li    c     -3.9207 *     5.7830 *     2.0584 *  0.0000     2          
    82  Cl    c      5.8810 *     3.8227 *     2.0584 *  0.0000     2          
    83  Li    c      1.9603 *     5.7830 *     4.0187 *  0.0000     2          
    84  Li    c      5.8810 *    -2.0584 *    -3.8227 *  0.0000     2          
    85  Cl    c      1.9603 *    -4.0187 *    -5.7830 *  0.0000     2          
    86  Cl    c      1.9603 *     3.8227 *     5.9790 *  0.0000     2          
    87  Li    c      1.9603 *    -5.9790 *    -3.8227 *  0.0000     2          
    88  Cl    c      5.8810 *    -4.0187 *    -1.8623 *  0.0000     2          
    89  Li    c      5.8810 *     1.8623 *     4.0187 *  0.0000     2          
    90  Li    c      3.9207 *     1.8623 *     5.9790 *  0.0000     2          
    91  Li    c     -3.9207 *    -5.9790 *    -1.8623 *  0.0000     2          
    92  Cl    c      5.8810 *    -4.0187 *     2.0584 *  0.0000     2          
    93  Li    c      5.8810 *    -2.0584 *     4.0187 *  0.0000     2          
    94  Li    c     -3.9207 *    -2.0584 *     5.9790 *  0.0000     2          
    95  Li    c     -3.9207 *    -5.9790 *     2.0584 *  0.0000     2          
    96  Li    c      1.9603 *    -5.9790 *     4.0187 *  0.0000     2          
    97  Cl    c      1.9603 *    -4.0187 *     5.9790 *  0.0000     2          
    98  Li    c      0.0000      -0.0980 *    -7.7433 *  0.0000     1          
    99  Li    c      0.0000       7.7433 *     0.0980 *  0.0000     1          
   100  Li    c     -7.8414 *    -0.0980 *     0.0980 *  0.0000     2          
   101  Li    c      0.0000      -7.9394 *     0.0980 *  0.0000     1          
   102  Li    c      0.0000      -0.0980 *     7.9394 *  0.0000     1          
   103  O     c      0.0000       1.8623 *    -7.7433 *  0.0000     1          
   104  O     c     -3.9207 *     5.7830 *    -3.8227 *  0.0000     2          
   105  O     c      0.0000      -2.0584 *    -7.7433 *  0.0000     1          
   106  O     c     -3.9207 *     5.7830 *     4.0187 *  0.0000     2          
   107  O     c     -7.8414 *     1.8623 *     0.0980 *  0.0000     2          
   108  O     c      3.9207 *    -5.9790 *    -3.8227 *  0.0000     2          
   109  O     c     -7.8414 *    -2.0584 *     0.0980 *  0.0000     2          
   110  O     c      0.0000       1.8623 *     7.9394 *  0.0000     1          
   111  Li    c      0.0000       5.7830 *    -5.7830 *  0.0000     1          
   112  Cl    c      1.9603 *     7.7433 *    -1.8623 *  0.0000     2          
   113  O     c      0.0000      -2.0584 *     7.9394 *  0.0000     1          
   114  O     c      3.9207 *    -5.9790 *     4.0187 *  0.0000     2          
   115  Li    c      1.9603 *     1.8623 *    -7.7433 *  0.0000     2          
   116  Cl    c      1.9603 *     7.7433 *     2.0584 *  0.0000     2          
   117  Li    c      5.8810 *     5.7830 *     0.0980 *  0.0000     2          
   118  Cl    c      5.8810 *    -0.0980 *    -5.7830 *  0.0000     2          
   119  Li    c      1.9603 *    -2.0584 *    -7.7433 *  0.0000     2          
   120  Li    c     -7.8414 *     1.8623 *    -1.8623 *  0.0000     2          
   121  Li    c     -7.8414 *     1.8623 *     2.0584 *  0.0000     2          
   122  Li    c      0.0000       5.7830 *     5.9790 *  0.0000     1          
   123  Li    c      0.0000      -5.9790 *    -5.7830 *  0.0000     1          
   124  Li    c     -7.8414 *    -2.0584 *    -1.8623 *  0.0000     2          
   125  Li    c     -7.8414 *    -2.0584 *     2.0584 *  0.0000     2          
   126  Cl    c      5.8810 *    -0.0980 *     5.9790 *  0.0000     2          
   127  Cl    c      1.9603 *    -7.9394 *    -1.8623 *  0.0000     2          
   128  Li    c      1.9603 *     1.8623 *     7.9394 *  0.0000     2          
   129  Li    c      5.8810 *    -5.9790 *     0.0980 *  0.0000     2          
   130  Cl    c      1.9603 *    -7.9394 *     2.0584 *  0.0000     2          
   131  Li    c      1.9603 *    -2.0584 *     7.9394 *  0.0000     2          
   132  Li    c      0.0000      -5.9790 *     5.9790 *  0.0000     1          
   133  Li    c      0.0000       3.8227 *    -7.7433 *  0.0000     1          
   134  Li    c      0.0000       7.7433 *    -3.8227 *  0.0000     1          
   135  Li    c      3.9207 *    -0.0980 *    -7.7433 *  0.0000     2          
   136  Li    c      3.9207 *     7.7433 *     0.0980 *  0.0000     2          
   137  Li    c     -7.8414 *     3.8227 *     0.0980 *  0.0000     2          
   138  Li    c      0.0000       7.7433 *     4.0187 *  0.0000     1          
   139  Li    c      0.0000      -4.0187 *    -7.7433 *  0.0000     1          
   140  Li    c      7.8414 *    -0.0980 *    -3.8227 *  0.0000     2          
   141  Li    c      0.0000      -7.9394 *    -3.8227 *  0.0000     1          
   142  Li    c     -7.8414 *    -0.0980 *     4.0187 *  0.0000     2          
   143  Li    c     -7.8414 *    -4.0187 *     0.0980 *  0.0000     2          
   144  Li    c      0.0000       3.8227 *     7.9394 *  0.0000     1          
   145  Li    c      3.9207 *    -7.9394 *     0.0980 *  0.0000     2          
   146  Li    c      3.9207 *    -0.0980 *     7.9394 *  0.0000     2          
   147  O     c      3.9207 *     1.8623 *    -7.7433 *  0.0000     2          
   148  Li    c      0.0000      -7.9394 *     4.0187 *  0.0000     1          
   149  Li    c      0.0000      -4.0187 *     7.9394 *  0.0000     1          
   150  O     c     -7.8414 *     1.8623 *    -3.8227 *  0.0000     2          
   151  O     c      3.9207 *    -2.0584 *    -7.7433 *  0.0000     2          
   152  O     c     -7.8414 *    -2.0584 *    -3.8227 *  0.0000     2          
   153  O     c     -7.8414 *     1.8623 *     4.0187 *  0.0000     2          
   154  O     c     -7.8414 *    -2.0584 *     4.0187 *  0.0000     2          
   155  O     c      3.9207 *     1.8623 *     7.9394 *  0.0000     2          
   156  Li    c      3.9207 *     5.7830 *    -5.7830 *  0.0000     2          
   157  Cl    c      5.8810 *     3.8227 *    -5.7830 *  0.0000     2          
   158  Li    c      5.8810 *     5.7830 *    -3.8227 *  0.0000     2          
   159  O     c     -3.9207 *    -2.0584 *     7.9394 *  0.0000     2          
   160  Cl    c      5.8810 *    -4.0187 *    -5.7830 *  0.0000     2          
   161  Li    c      5.8810 *     5.7830 *     4.0187 *  0.0000     2          
   162  Li    c     -3.9207 *     5.7830 *     5.9790 *  0.0000     2          
   163  Li    c     -3.9207 *    -5.9790 *    -5.7830 *  0.0000     2          
   164  Cl    c      5.8810 *     3.8227 *     5.9790 *  0.0000     2          
   165  Li    c      5.8810 *    -5.9790 *    -3.8227 *  0.0000     2          
   166  Cl    c      5.8810 *    -4.0187 *     5.9790 *  0.0000     2          
   167  Li    c      5.8810 *    -5.9790 *     4.0187 *  0.0000     2          
   168  Li    c      3.9207 *    -5.9790 *     5.9790 *  0.0000     2          
   169  Li    c      3.9207 *     7.7433 *    -3.8227 *  0.0000     2          
   170  Li    c     -3.9207 *     3.8227 *    -7.7433 *  0.0000     2          
   171  Li    c     -7.8414 *     3.8227 *    -3.8227 *  0.0000     2          
   172  Li    c      3.9207 *     7.7433 *     4.0187 *  0.0000     2          
   173  Li    c     -3.9207 *    -4.0187 *    -7.7433 *  0.0000     2          
   174  Li    c     -7.8414 *     3.8227 *     4.0187 *  0.0000     2          
   175  Li    c     -7.8414 *    -4.0187 *    -3.8227 *  0.0000     2          
   176  Li    c      3.9207 *    -7.9394 *    -3.8227 *  0.0000     2          
   177  Li    c     -3.9207 *     3.8227 *     7.9394 *  0.0000     2          
   178  O     c      0.0000       5.7830 *    -7.7433 *  0.0000     1          
   179  Li    c      7.8414 *    -4.0187 *     4.0187 *  0.0000     2          
   180  O     c      0.0000       9.7037 *     0.0980 *  0.0000     1          
   181  Li    c      3.9207 *    -4.0187 *     7.9394 *  0.0000     2          
   182  Li    c      3.9207 *    -7.9394 *     4.0187 *  0.0000     2          
   183  O     c     -7.8414 *     5.7830 *     0.0980 *  0.0000     2          
   184  O     c      0.0000      -5.9790 *    -7.7433 *  0.0000     1          
   185  O     c      0.0000       5.7830 *     7.9394 *  0.0000     1          
   186  O     c     -7.8414 *    -5.9790 *     0.0980 *  0.0000     2          
   187  Cl    c      1.9603 *     7.7433 *    -5.7830 *  0.0000     2          
   188  Li    c      1.9603 *     5.7830 *    -7.7433 *  0.0000     2          
   189  Li    c      0.0000       1.8623 *    -9.7037 *  0.0000     1          
   190  Li    c      0.0000       9.7037 *    -1.8623 *  0.0000     1          
   191  O     c      0.0000      -9.8997 *     0.0980 *  0.0000     1          
   192  Cl    c      1.9603 *    -0.0980 *    -9.7037 *  0.0000     2          
   193  Cl    c      5.8810 *     7.7433 *    -1.8623 *  0.0000     2          
   194  Li    c      1.9603 *     9.7037 *     0.0980 *  0.0000     2          
   195  Li    c      5.8810 *     1.8623 *    -7.7433 *  0.0000     2          
   196  Li    c      0.0000       9.7037 *     2.0584 *  0.0000     1          
   197  Li    c      0.0000      -2.0584 *    -9.7037 *  0.0000     1          
   198  Li    c      7.8414 *     1.8623 *    -5.7830 *  0.0000     2          
   199  Li    c     -7.8414 *     5.7830 *    -1.8623 *  0.0000     2          
   200  Cl    c      5.8810 *     7.7433 *     2.0584 *  0.0000     2          
   201  Li    c      5.8810 *    -2.0584 *    -7.7433 *  0.0000     2          
   202  O     c      0.0000      -5.9790 *     7.9394 *  0.0000     1          
   203  Li    c     -7.8414 *     5.7830 *     2.0584 *  0.0000     2          
   204  Li    c      7.8414 *    -2.0584 *    -5.7830 *  0.0000     2          
   205  Cl    c      1.9603 *     7.7433 *     5.9790 *  0.0000     2          
   206  Li    c      1.9603 *    -5.9790 *    -7.7433 *  0.0000     2          
   207  Cl    c      9.8017 *    -0.0980 *    -1.8623 *  0.0000     2          
   208  Li    c      9.8017 *     1.8623 *     0.0980 *  0.0000     2          
   209  Cl    c      1.9603 *    -7.9394 *    -5.7830 *  0.0000     2          
   210  Cl    c      9.8017 *    -0.0980 *     2.0584 *  0.0000     2          
   211  Li    c      1.9603 *     5.7830 *     7.9394 *  0.0000     2          
   212  Li    c      9.8017 *    -2.0584 *     0.0980 *  0.0000     2          
   213  Li    c     -7.8414 *     1.8623 *     5.9790 *  0.0000     2          
   214  Li    c     -7.8414 *    -5.9790 *    -1.8623 *  0.0000     2          
   215  Cl    c      5.8810 *    -7.9394 *    -1.8623 *  0.0000     2          
   216  Li    c      5.8810 *     1.8623 *     7.9394 *  0.0000     2          
   217  Li    c      0.0000       1.8623 *     9.8997 *  0.0000     1          
   218  Li    c      0.0000      -9.8997 *    -1.8623 *  0.0000     1          
   219  Li    c     -7.8414 *    -2.0584 *     5.9790 *  0.0000     2          
   220  Li    c     -7.8414 *    -5.9790 *     2.0584 *  0.0000     2          
   221  Cl    c      1.9603 *    -0.0980 *     9.8997 *  0.0000     2          
   222  Cl    c      5.8810 *    -7.9394 *     2.0584 *  0.0000     2          
   223  Li    c      1.9603 *    -9.8997 *     0.0980 *  0.0000     2          
   224  Li    c      5.8810 *    -2.0584 *     7.9394 *  0.0000     2          
   225  Li    c      0.0000      -9.8997 *     2.0584 *  0.0000     1          
   226  Li    c      0.0000      -2.0584 *     9.8997 *  0.0000     1          
   227  Cl    c      1.9603 *    -7.9394 *     5.9790 *  0.0000     2          
   228  Li    c      1.9603 *    -5.9790 *     7.9394 *  0.0000     2          
   229  O     c      0.0000       9.7037 *    -3.8227 *  0.0000     1          
   230  O     c      3.9207 *     5.7830 *    -7.7433 *  0.0000     2          
   231  O     c      3.9207 *     9.7037 *     0.0980 *  0.0000     2          
   232  O     c     -7.8414 *     5.7830 *    -3.8227 *  0.0000     2          
   233  O     c      0.0000       9.7037 *     4.0187 *  0.0000     1          
   234  O     c     -3.9207 *    -5.9790 *    -7.7433 *  0.0000     2          
   235  O     c     -7.8414 *     5.7830 *     4.0187 *  0.0000     2          
   236  O     c     -7.8414 *    -5.9790 *    -3.8227 *  0.0000     2          
   237  O     c     -3.9207 *     5.7830 *     7.9394 *  0.0000     2          
   238  O     c      0.0000      -9.8997 *    -3.8227 *  0.0000     1          
   239  Cl    c      1.9603 *     3.8227 *    -9.7037 *  0.0000     2          
   240  Li    c      1.9603 *     9.7037 *    -3.8227 *  0.0000     2          
   241  Li    c      3.9207 *     1.8623 *    -9.7037 *  0.0000     2          
   242  Li    c      3.9207 *     9.7037 *    -1.8623 *  0.0000     2          
   243  O     c      3.9207 *    -9.8997 *     0.0980 *  0.0000     2          
   244  O     c      7.8414 *    -5.9790 *     4.0187 *  0.0000     2          
   245  Li    c      3.9207 *    -2.0584 *    -9.7037 *  0.0000     2          
   246  Li    c      3.9207 *     9.7037 *     2.0584 *  0.0000     2          
   247  O     c      0.0000      -9.8997 *     4.0187 *  0.0000     1          
   248  Cl    c      1.9603 *    -4.0187 *    -9.7037 *  0.0000     2          
   249  O     c      3.9207 *    -5.9790 *     7.9394 *  0.0000     2          
   250  Li    c      1.9603 *     9.7037 *     4.0187 *  0.0000     2          
   251  Cl    c      9.8017 *     3.8227 *    -1.8623 *  0.0000     2          
   252  Li    c      9.8017 *     1.8623 *    -3.8227 *  0.0000     2          
   253  Cl    c      9.8017 *     3.8227 *     2.0584 *  0.0000     2          
   254  Li    c      9.8017 *    -2.0584 *    -3.8227 *  0.0000     2          
   255  Li    c      9.8017 *     1.8623 *     4.0187 *  0.0000     2          
   256  Cl    c      9.8017 *    -4.0187 *    -1.8623 *  0.0000     2          
   257  Cl    c      1.9603 *     3.8227 *     9.8997 *  0.0000     2          
   258  Li    c      1.9603 *    -9.8997 *    -3.8227 *  0.0000     2          
   259  Cl    c      9.8017 *    -4.0187 *     2.0584 *  0.0000     2          
   260  Li    c      9.8017 *    -2.0584 *     4.0187 *  0.0000     2          
   261  Li    c      3.9207 *     1.8623 *     9.8997 *  0.0000     2          
   262  Li    c      3.9207 *    -9.8997 *    -1.8623 *  0.0000     2          
   263  Li    c      3.9207 *    -2.0584 *     9.8997 *  0.0000     2          
   264  Li    c      3.9207 *    -9.8997 *     2.0584 *  0.0000     2          
   265  Cl    c      1.9603 *    -4.0187 *     9.8997 *  0.0000     2          
   266  Li    c      1.9603 *    -9.8997 *     4.0187 *  0.0000     2          
   267  Li    c      0.0000       7.7433 *    -7.7433 *  0.0000     1          
   268  Li    c     -7.8414 *    -0.0980 *    -7.7433 *  0.0000     2          
   269  Li    c     -7.8414 *     7.7433 *     0.0980 *  0.0000     2          
   270  Li    c      0.0000       7.7433 *     7.9394 *  0.0000     1          
   271  Li    c      0.0000      -7.9394 *    -7.7433 *  0.0000     1          
   272  O     c      3.9207 *     9.7037 *    -3.8227 *  0.0000     2          
   273  Li    c      7.8414 *    -7.9394 *     0.0980 *  0.0000     2          
   274  Li    c      7.8414 *    -0.0980 *     7.9394 *  0.0000     2          
   275  O     c      7.8414 *     1.8623 *    -7.7433 *  0.0000     2          
   276  O     c      3.9207 *     9.7037 *     4.0187 *  0.0000     2          
   277  O     c      7.8414 *    -2.0584 *    -7.7433 *  0.0000     2          
   278  Li    c      0.0000      -7.9394 *     7.9394 *  0.0000     1          
   279  Li    c      0.0000       5.7830 *    -9.7037 *  0.0000     1          
   280  Li    c      0.0000       9.7037 *    -5.7830 *  0.0000     1          
   281  Cl    c      5.8810 *     7.7433 *    -5.7830 *  0.0000     2          
   282  O     c      3.9207 *    -9.8997 *    -3.8227 *  0.0000     2          
   283  Li    c      5.8810 *     5.7830 *    -7.7433 *  0.0000     2          
   284  O     c     -7.8414 *     1.8623 *     7.9394 *  0.0000     2          
   285  Li    c      7.8414 *     5.7830 *    -5.7830 *  0.0000     2          
   286  Li    c      5.8810 *     9.7037 *     0.0980 *  0.0000     2          
   287  Cl    c      5.8810 *    -0.0980 *    -9.7037 *  0.0000     2          
   288  O     c      7.8414 *    -2.0584 *     7.9394 *  0.0000     2          
   289  O     c      3.9207 *    -9.8997 *     4.0187 *  0.0000     2          
   290  Li    c      9.8017 *     5.7830 *     0.0980 *  0.0000     2          
   291  Cl    c      9.8017 *    -0.0980 *    -5.7830 *  0.0000     2          
   292  Li    c      0.0000       9.7037 *     5.9790 *  0.0000     1          
   293  Li    c      0.0000      -5.9790 *    -9.7037 *  0.0000     1          
   294  Cl    c      5.8810 *     7.7433 *     5.9790 *  0.0000     2          
   295  Li    c      5.8810 *    -5.9790 *    -7.7433 *  0.0000     2          
   296  Li    c     -7.8414 *     5.7830 *     5.9790 *  0.0000     2          
   297  Li    c     -7.8414 *    -5.9790 *    -5.7830 *  0.0000     2          
   298  Cl    c      5.8810 *    -7.9394 *    -5.7830 *  0.0000     2          
   299  Li    c      5.8810 *     5.7830 *     7.9394 *  0.0000     2          
   300  Li    c      0.0000       5.7830 *     9.8997 *  0.0000     1          
   301  Li    c      0.0000      -9.8997 *    -5.7830 *  0.0000     1          
   302  Cl    c      9.8017 *    -0.0980 *     5.9790 *  0.0000     2          
   303  Li    c      9.8017 *    -5.9790 *     0.0980 *  0.0000     2          
   304  Li    c      5.8810 *    -9.8997 *     0.0980 *  0.0000     2          
   305  Cl    c      5.8810 *    -0.0980 *     9.8997 *  0.0000     2          
   306  Li    c      7.8414 *    -5.9790 *     5.9790 *  0.0000     2          
   307  Cl    c      5.8810 *    -7.9394 *     5.9790 *  0.0000     2          
   308  Li    c      5.8810 *    -5.9790 *     7.9394 *  0.0000     2          
   309  Li    c      0.0000      -5.9790 *     9.8997 *  0.0000     1          
   310  Li    c      0.0000      -9.8997 *     5.9790 *  0.0000     1          
   311  Li    c      3.9207 *     7.7433 *    -7.7433 *  0.0000     2          
   312  Li    c      0.0000      -0.0980 *   -11.6640 *  0.0000     1          
   313  Li    c      0.0000      11.6640 *     0.0980 *  0.0000     1          
   314  Li    c     -7.8414 *     3.8227 *    -7.7433 *  0.0000     2          
   315  Li    c     -7.8414 *     7.7433 *    -3.8227 *  0.0000     2          
   316  Li    c     -7.8414 *     7.7433 *     4.0187 *  0.0000     2          
   317  Li    c     -7.8414 *    -4.0187 *    -7.7433 *  0.0000     2          
   318  Li    c     11.7620 *    -0.0980 *     0.0980 *  0.0000     2          
   319  Li    c      3.9207 *    -7.9394 *    -7.7433 *  0.0000     2          
   320  Li    c      3.9207 *     7.7433 *     7.9394 *  0.0000     2          
   321  Li    c      7.8414 *    -7.9394 *    -3.8227 *  0.0000     2          
   322  Li    c     -7.8414 *     3.8227 *     7.9394 *  0.0000     2          
   323  O     c      0.0000       1.8623 *   -11.6640 *  0.0000     1          
   324  O     c      0.0000      -2.0584 *   -11.6640 *  0.0000     1          
   325  Li    c      0.0000      -0.0980 *    11.8600 *  0.0000     1          
   326  Li    c      0.0000     -11.8600 *     0.0980 *  0.0000     1          
   327  Li    c      7.8414 *    -4.0187 *     7.9394 *  0.0000     2          
   328  Li    c      7.8414 *    -7.9394 *     4.0187 *  0.0000     2          
   329  Li    c      3.9207 *    -7.9394 *     7.9394 *  0.0000     2          
   330  O     c     11.7620 *     1.8623 *     0.0980 *  0.0000     2          
   331  O     c     11.7620 *    -2.0584 *     0.0980 *  0.0000     2          
   332  Li    c      3.9207 *     5.7830 *    -9.7037 *  0.0000     2          
   333  Li    c      3.9207 *     9.7037 *    -5.7830 *  0.0000     2          
   334  Cl    c      1.9603 *    11.6640 *    -1.8623 *  0.0000     2          
   335  Li    c      5.8810 *     9.7037 *    -3.8227 *  0.0000     2          
   336  Cl    c      5.8810 *     3.8227 *    -9.7037 *  0.0000     2          
   337  Li    c      1.9603 *     1.8623 *   -11.6640 *  0.0000     2          
   338  Cl    c      1.9603 *    11.6640 *     2.0584 *  0.0000     2          
   339  O     c      0.0000       1.8623 *    11.8600 *  0.0000     1          
   340  Cl    c      9.8017 *     3.8227 *    -5.7830 *  0.0000     2          
   341  Li    c      1.9603 *    -2.0584 *   -11.6640 *  0.0000     2          
   342  Li    c      9.8017 *     5.7830 *    -3.8227 *  0.0000     2          
   343  Cl    c      5.8810 *    -4.0187 *    -9.7037 *  0.0000     2          
   344  O     c      0.0000      -2.0584 *    11.8600 *  0.0000     1          
   345  Li    c      5.8810 *     9.7037 *     4.0187 *  0.0000     2          
   346  Li    c     11.7620 *     1.8623 *    -1.8623 *  0.0000     2          
   347  Li    c     -3.9207 *    -5.9790 *    -9.7037 *  0.0000     2          
   348  Li    c      3.9207 *     9.7037 *     5.9790 *  0.0000     2          
   349  Cl    c      9.8017 *    -4.0187 *    -5.7830 *  0.0000     2          
   350  Li    c      9.8017 *     5.7830 *     4.0187 *  0.0000     2          
   351  Li    c     11.7620 *    -2.0584 *    -1.8623 *  0.0000     2          
   352  Li    c     11.7620 *     1.8623 *     2.0584 *  0.0000     2          
   353  Cl    c      9.8017 *     3.8227 *     5.9790 *  0.0000     2          
   354  Li    c      9.8017 *    -5.9790 *    -3.8227 *  0.0000     2          
   355  Li    c      3.9207 *     5.7830 *     9.8997 *  0.0000     2          
   356  Li    c      3.9207 *    -9.8997 *    -5.7830 *  0.0000     2          
   357  Li    c     11.7620 *    -2.0584 *     2.0584 *  0.0000     2          
   358  Li    c      5.8810 *    -9.8997 *    -3.8227 *  0.0000     2          
   359  Cl    c      5.8810 *     3.8227 *     9.8997 *  0.0000     2          
   360  Cl    c      1.9603 *   -11.8600 *    -1.8623 *  0.0000     2          
   361  Li    c      1.9603 *     1.8623 *    11.8600 *  0.0000     2          
   362  Cl    c      9.8017 *    -4.0187 *     5.9790 *  0.0000     2          
   363  Li    c      9.8017 *    -5.9790 *     4.0187 *  0.0000     2          
   364  Cl    c      1.9603 *   -11.8600 *     2.0584 *  0.0000     2          
   365  Cl    c      5.8810 *    -4.0187 *     9.8997 *  0.0000     2          
   366  Li    c      5.8810 *    -9.8997 *     4.0187 *  0.0000     2          
   367  Li    c      1.9603 *    -2.0584 *    11.8600 *  0.0000     2          
   368  Li    c     -3.9207 *    -5.9790 *     9.8997 *  0.0000     2          
   369  Li    c      3.9207 *    -9.8997 *     5.9790 *  0.0000     2          
   370  Li    c      0.0000       3.8227 *   -11.6640 *  0.0000     1          
   371  Li    c      0.0000      11.6640 *    -3.8227 *  0.0000     1          
   372  Li    c      3.9207 *    11.6640 *     0.0980 *  0.0000     2          
   373  Li    c      3.9207 *    -0.0980 *   -11.6640 *  0.0000     2          
   374  Li    c      0.0000      11.6640 *     4.0187 *  0.0000     1          
   375  Li    c      0.0000      -4.0187 *   -11.6640 *  0.0000     1          
   376  Li    c     11.7620 *    -0.0980 *    -3.8227 *  0.0000     2          
   377  Li    c     11.7620 *     3.8227 *     0.0980 *  0.0000     2          
   378  O     c      0.0000       9.7037 *    -7.7433 *  0.0000     1          
   379  Li    c     11.7620 *    -0.0980 *     4.0187 *  0.0000     2          
   380  Li    c     11.7620 *    -4.0187 *     0.0980 *  0.0000     2          
   381  O     c      3.9207 *     1.8623 *   -11.6640 *  0.0000     2          
   382  O     c      7.8414 *     5.7830 *    -7.7433 *  0.0000     2          
   383  Li    c      0.0000       3.8227 *    11.8600 *  0.0000     1          
   384  Li    c      0.0000     -11.8600 *    -3.8227 *  0.0000     1          
   385  O     c      7.8414 *     9.7037 *     0.0980 *  0.0000     2          
   386  O     c      3.9207 *    -2.0584 *   -11.6640 *  0.0000     2          
   387  Li    c      3.9207 *   -11.8600 *     0.0980 *  0.0000     2          
   388  Li    c      3.9207 *    -0.0980 *    11.8600 *  0.0000     2          
   389  O     c     11.7620 *     1.8623 *    -3.8227 *  0.0000     2          
   390  Li    c      0.0000      -4.0187 *    11.8600 *  0.0000     1          
   391  Li    c      0.0000     -11.8600 *     4.0187 *  0.0000     1          
   392  O     c     11.7620 *    -2.0584 *    -3.8227 *  0.0000     2          
   393  O     c     -7.8414 *    -5.9790 *    -7.7433 *  0.0000     2          
   394  O     c      0.0000       9.7037 *     7.9394 *  0.0000     1          
   395  Cl    c      1.9603 *     7.7433 *    -9.7037 *  0.0000     2          
   396  O     c      0.0000      -9.8997 *    -7.7433 *  0.0000     1          
   397  O     c     11.7620 *     1.8623 *     4.0187 *  0.0000     2          
   398  O     c     -7.8414 *     5.7830 *     7.9394 *  0.0000     2          
   399  Li    c      1.9603 *     9.7037 *    -7.7433 *  0.0000     2          
   400  O     c     11.7620 *    -2.0584 *     4.0187 *  0.0000     2          
   401  Li    c      7.8414 *     1.8623 *    -9.7037 *  0.0000     2          
   402  Li    c      7.8414 *     9.7037 *    -1.8623 *  0.0000     2          
   403  O     c      7.8414 *    -9.8997 *     0.0980 *  0.0000     2          
   404  Cl    c      9.8017 *     7.7433 *    -1.8623 *  0.0000     2          
   405  O     c      3.9207 *     1.8623 *    11.8600 *  0.0000     2          
   406  Li    c      9.8017 *     1.8623 *    -7.7433 *  0.0000     2          
   407  Li    c      7.8414 *     9.7037 *     2.0584 *  0.0000     2          
   408  Li    c     -7.8414 *    -2.0584 *    -9.7037 *  0.0000     2          
   409  O     c     -3.9207 *    -2.0584 *    11.8600 *  0.0000     2          
   410  Cl    c      9.8017 *     7.7433 *     2.0584 *  0.0000     2          
   411  O     c     -7.8414 *    -5.9790 *     7.9394 *  0.0000     2          
   412  Li    c      9.8017 *    -2.0584 *    -7.7433 *  0.0000     2          
   413  Cl    c      1.9603 *    -7.9394 *    -9.7037 *  0.0000     2          
   414  O     c      0.0000      -9.8997 *     7.9394 *  0.0000     1          
   415  Li    c      1.9603 *     9.7037 *     7.9394 *  0.0000     2          
   416  Cl    c      1.9603 *     7.7433 *     9.8997 *  0.0000     2          
   417  Li    c      1.9603 *    -9.8997 *    -7.7433 *  0.0000     2          
   418  Cl    c      9.8017 *    -7.9394 *    -1.8623 *  0.0000     2          
   419  Li    c      9.8017 *     1.8623 *     7.9394 *  0.0000     2          
   420  Li    c      7.8414 *     1.8623 *     9.8997 *  0.0000     2          
   421  Li    c      7.8414 *    -9.8997 *    -1.8623 *  0.0000     2          
   422  Cl    c      9.8017 *    -7.9394 *     2.0584 *  0.0000     2          
   423  Li    c      9.8017 *    -2.0584 *     7.9394 *  0.0000     2          
   424  Li    c      7.8414 *    -9.8997 *     2.0584 *  0.0000     2          
   425  Li    c     -7.8414 *    -2.0584 *     9.8997 *  0.0000     2          
   426  Cl    c      1.9603 *    -7.9394 *     9.8997 *  0.0000     2          
   427  Li    c      1.9603 *    -9.8997 *     7.9394 *  0.0000     2          
   428  Li    c      3.9207 *     3.8227 *   -11.6640 *  0.0000     2          
   429  Li    c      3.9207 *    11.6640 *    -3.8227 *  0.0000     2          
   430  Li    c      3.9207 *    11.6640 *     4.0187 *  0.0000     2          
   431  Li    c      3.9207 *    -4.0187 *   -11.6640 *  0.0000     2          
   432  Li    c     11.7620 *     3.8227 *    -3.8227 *  0.0000     2          
   433  Li    c     11.7620 *     3.8227 *     4.0187 *  0.0000     2          
   434  Li    c     11.7620 *    -4.0187 *    -3.8227 *  0.0000     2          
   435  O     c      0.0000       5.7830 *   -11.6640 *  0.0000     1          
   436  O     c      3.9207 *     9.7037 *    -7.7433 *  0.0000     2          
   437  O     c      7.8414 *     9.7037 *    -3.8227 *  0.0000     2          
   438  Li    c      3.9207 *   -11.8600 *    -3.8227 *  0.0000     2          
   439  Li    c     -3.9207 *     3.8227 *    11.8600 *  0.0000     2          
   440  Li    c     11.7620 *    -4.0187 *     4.0187 *  0.0000     2          
   441  O     c     11.7620 *     5.7830 *     0.0980 *  0.0000     2          
   442  O     c      0.0000      -5.9790 *   -11.6640 *  0.0000     1          
   443  O     c      7.8414 *     9.7037 *     4.0187 *  0.0000     2          
   444  Li    c      3.9207 *    -4.0187 *    11.8600 *  0.0000     2          
   445  Li    c      3.9207 *   -11.8600 *     4.0187 *  0.0000     2          
   446  O     c      3.9207 *     9.7037 *     7.9394 *  0.0000     2          
   447  Cl    c      1.9603 *    11.6640 *    -5.7830 *  0.0000     2          
   448  O     c      3.9207 *    -9.8997 *    -7.7433 *  0.0000     2          
   449  Li    c      1.9603 *     5.7830 *   -11.6640 *  0.0000     2          
   450  Cl    c      5.8810 *    11.6640 *    -1.8623 *  0.0000     2          
   451  O     c      0.0000       5.7830 *    11.8600 *  0.0000     1          
   452  O     c      7.8414 *    -9.8997 *    -3.8227 *  0.0000     2          
   453  O     c     11.7620 *    -5.9790 *     0.0980 *  0.0000     2          
   454  Li    c      5.8810 *     1.8623 *   -11.6640 *  0.0000     2          
   455  Cl    c      5.8810 *    11.6640 *     2.0584 *  0.0000     2          
   456  Li    c      5.8810 *    -2.0584 *   -11.6640 *  0.0000     2          
   457  Li    c     11.7620 *     1.8623 *    -5.7830 *  0.0000     2          
   458  Li    c     11.7620 *     5.7830 *    -1.8623 *  0.0000     2          
   459  Cl    c      1.9603 *    11.6640 *     5.9790 *  0.0000     2          
   460  O     c      7.8414 *    -9.8997 *     4.0187 *  0.0000     2          
   461  Li    c      1.9603 *    -5.9790 *   -11.6640 *  0.0000     2          
   462  Li    c     11.7620 *    -2.0584 *    -5.7830 *  0.0000     2          
   463  Li    c     11.7620 *     5.7830 *     2.0584 *  0.0000     2          
   464  O     c      0.0000      -5.9790 *    11.8600 *  0.0000     1          
   465  O     c      3.9207 *    -9.8997 *     7.9394 *  0.0000     2          
   466  Li    c     11.7620 *     1.8623 *     5.9790 *  0.0000     2          
   467  Li    c     11.7620 *    -5.9790 *    -1.8623 *  0.0000     2          
   468  Cl    c      1.9603 *   -11.8600 *    -5.7830 *  0.0000     2          
   469  Li    c      1.9603 *     5.7830 *    11.8600 *  0.0000     2          
   470  Li    c     11.7620 *    -2.0584 *     5.9790 *  0.0000     2          
   471  Li    c     11.7620 *    -5.9790 *     2.0584 *  0.0000     2          
   472  Cl    c      5.8810 *   -11.8600 *    -1.8623 *  0.0000     2          
   473  Li    c      5.8810 *     1.8623 *    11.8600 *  0.0000     2          
   474  Cl    c      5.8810 *   -11.8600 *     2.0584 *  0.0000     2          
   475  Li    c      5.8810 *    -2.0584 *    11.8600 *  0.0000     2          
   476  Cl    c      1.9603 *   -11.8600 *     5.9790 *  0.0000     2          
   477  Li    c      1.9603 *    -5.9790 *    11.8600 *  0.0000     2          
   478  Li    c      7.8414 *     7.7433 *    -7.7433 *  0.0000     2          
   479  Li    c      7.8414 *    -7.9394 *    -7.7433 *  0.0000     2          
   480  Li    c      7.8414 *     7.7433 *     7.9394 *  0.0000     2          
   481  O     c     -3.9207 *     5.7830 *   -11.6640 *  0.0000     2          
   482  O     c      0.0000      13.6243 *     0.0980 *  0.0000     1          
   483  O     c     11.7620 *     5.7830 *    -3.8227 *  0.0000     2          
   484  O     c      3.9207 *    -5.9790 *   -11.6640 *  0.0000     2          
   485  Li    c      7.8414 *    -7.9394 *     7.9394 *  0.0000     2          
   486  O     c     11.7620 *     5.7830 *     4.0187 *  0.0000     2          
   487  Li    c      0.0000       9.7037 *    -9.7037 *  0.0000     1          
   488  Cl    c      5.8810 *     7.7433 *    -9.7037 *  0.0000     2          
   489  Li    c      5.8810 *     9.7037 *    -7.7433 *  0.0000     2          
   490  O     c     11.7620 *    -5.9790 *    -3.8227 *  0.0000     2          
   491  Li    c      0.0000       1.8623 *   -13.6243 *  0.0000     1          
   492  Li    c      0.0000      13.6243 *    -1.8623 *  0.0000     1          
   493  Li    c      7.8414 *     5.7830 *    -9.7037 *  0.0000     2          
   494  Li    c      7.8414 *     9.7037 *    -5.7830 *  0.0000     2          
   495  Li    c      1.9603 *    13.6243 *     0.0980 *  0.0000     2          
   496  Cl    c      1.9603 *    -0.0980 *   -13.6243 *  0.0000     2          
   497  Cl    c      9.8017 *     7.7433 *    -5.7830 *  0.0000     2          
   498  O     c      3.9207 *     5.7830 *    11.8600 *  0.0000     2          
   499  Li    c      9.8017 *     5.7830 *    -7.7433 *  0.0000     2          
   500  Li    c      0.0000      -2.0584 *   -13.6243 *  0.0000     1          
   501  Li    c      0.0000      13.6243 *     2.0584 *  0.0000     1          
   502  Li    c      9.8017 *     9.7037 *     0.0980 *  0.0000     2          
   503  Cl    c      9.8017 *    -0.0980 *    -9.7037 *  0.0000     2          
   504  O     c     11.7620 *    -5.9790 *     4.0187 *  0.0000     2          
   505  O     c      0.0000     -13.8204 *     0.0980 *  0.0000     1          
   506  Li    c     -7.8414 *    -5.9790 *    -9.7037 *  0.0000     2          
   507  Li    c      7.8414 *     9.7037 *     5.9790 *  0.0000     2          
   508  Cl    c      5.8810 *    -7.9394 *    -9.7037 *  0.0000     2          
   509  Cl    c     13.7224 *    -0.0980 *    -1.8623 *  0.0000     2          
   510  O     c      3.9207 *    -5.9790 *    11.8600 *  0.0000     2          
   511  Li    c      5.8810 *     9.7037 *     7.9394 *  0.0000     2          
   512  Li    c     13.7224 *     1.8623 *     0.0980 *  0.0000     2          
   513  Cl    c      9.8017 *     7.7433 *     5.9790 *  0.0000     2          
   514  Li    c      9.8017 *    -5.9790 *    -7.7433 *  0.0000     2          
   515  Li    c      0.0000       9.7037 *     9.8997 *  0.0000     1          
   516  Li    c      0.0000      -9.8997 *    -9.7037 *  0.0000     1          
   517  Cl    c      5.8810 *     7.7433 *     9.8997 *  0.0000     2          
   518  Li    c      5.8810 *    -9.8997 *    -7.7433 *  0.0000     2          
   519  Cl    c      9.8017 *    -7.9394 *    -5.7830 *  0.0000     2          
   520  Cl    c     13.7224 *    -0.0980 *     2.0584 *  0.0000     2          
   521  Li    c     13.7224 *    -2.0584 *     0.0980 *  0.0000     2          
   522  Li    c      9.8017 *     5.7830 *     7.9394 *  0.0000     2          
   523  Li    c      7.8414 *     5.7830 *     9.8997 *  0.0000     2          
   524  Li    c      7.8414 *    -9.8997 *    -5.7830 *  0.0000     2          
   525  Li    c      9.8017 *    -9.8997 *     0.0980 *  0.0000     2          
   526  Cl    c      9.8017 *    -0.0980 *     9.8997 *  0.0000     2          
   527  Li    c      0.0000       1.8623 *    13.8204 *  0.0000     1          
   528  Li    c      0.0000     -13.8204 *    -1.8623 *  0.0000     1          
   529  Li    c      1.9603 *   -13.8204 *     0.0980 *  0.0000     2          
   530  Cl    c      1.9603 *    -0.0980 *    13.8204 *  0.0000     2          
   531  Cl    c      9.8017 *    -7.9394 *     5.9790 *  0.0000     2          
   532  Li    c      9.8017 *    -5.9790 *     7.9394 *  0.0000     2          
   533  Li    c      0.0000      -2.0584 *    13.8204 *  0.0000     1          
   534  Li    c      0.0000     -13.8204 *     2.0584 *  0.0000     1          
   535  Li    c     -7.8414 *    -5.9790 *     9.8997 *  0.0000     2          
   536  Li    c      7.8414 *    -9.8997 *     5.9790 *  0.0000     2          
   537  Cl    c      5.8810 *    -7.9394 *     9.8997 *  0.0000     2          
   538  Li    c      5.8810 *    -9.8997 *     7.9394 *  0.0000     2          
   539  Li    c      0.0000      -9.8997 *     9.8997 *  0.0000     1          
   540  Li    c      0.0000       7.7433 *   -11.6640 *  0.0000     1          
   541  Li    c      0.0000      11.6640 *    -7.7433 *  0.0000     1          
   542  Li    c     -7.8414 *    11.6640 *     0.0980 *  0.0000     2          
   543  Li    c      7.8414 *    -0.0980 *   -11.6640 *  0.0000     2          
   544  Li    c     11.7620 *    -0.0980 *    -7.7433 *  0.0000     2          
   545  Li    c     11.7620 *     7.7433 *     0.0980 *  0.0000     2          
   546  Li    c      0.0000      11.6640 *     7.9394 *  0.0000     1          
   547  Li    c      0.0000      -7.9394 *   -11.6640 *  0.0000     1          
   548  O     c      0.0000      13.6243 *    -3.8227 *  0.0000     1          
   549  Li    c      0.0000       7.7433 *    11.8600 *  0.0000     1          
   550  Li    c      0.0000     -11.8600 *    -7.7433 *  0.0000     1          
   551  O     c      3.9207 *    13.6243 *     0.0980 *  0.0000     2          
   552  O     c     -7.8414 *     1.8623 *   -11.6640 *  0.0000     2          
   553  Li    c     11.7620 *    -0.0980 *     7.9394 *  0.0000     2          
   554  Li    c     11.7620 *    -7.9394 *     0.0980 *  0.0000     2          
   555  O     c      0.0000      13.6243 *     4.0187 *  0.0000     1          
   556  O     c     11.7620 *     1.8623 *    -7.7433 *  0.0000     2          
   557  O     c      7.8414 *    -2.0584 *   -11.6640 *  0.0000     2          
   558  Li    c     -7.8414 *   -11.8600 *     0.0980 *  0.0000     2          
   559  Li    c      7.8414 *    -0.0980 *    11.8600 *  0.0000     2          
   560  O     c     11.7620 *    -2.0584 *    -7.7433 *  0.0000     2          
   561  Li    c      3.9207 *     9.7037 *    -9.7037 *  0.0000     2          
   562  Li    c      0.0000      -7.9394 *    11.8600 *  0.0000     1          
   563  Li    c      0.0000     -11.8600 *     7.9394 *  0.0000     1          
   564  Cl    c      1.9603 *     3.8227 *   -13.6243 *  0.0000     2          
   565  Li    c      1.9603 *    13.6243 *    -3.8227 *  0.0000     2          
   566  Cl    c      5.8810 *    11.6640 *    -5.7830 *  0.0000     2          
   567  Li    c      5.8810 *     5.7830 *   -11.6640 *  0.0000     2          
   568  Li    c      3.9207 *    13.6243 *    -1.8623 *  0.0000     2          
   569  Li    c      3.9207 *     1.8623 *   -13.6243 *  0.0000     2          
   570  O     c     11.7620 *     1.8623 *     7.9394 *  0.0000     2          
   571  Li    c      9.8017 *     9.7037 *    -3.8227 *  0.0000     2          
   572  Cl    c      9.8017 *     3.8227 *    -9.7037 *  0.0000     2          
   573  Li    c      3.9207 *    13.6243 *     2.0584 *  0.0000     2          
   574  Li    c      3.9207 *    -2.0584 *   -13.6243 *  0.0000     2          
   575  Li    c     11.7620 *     5.7830 *    -5.7830 *  0.0000     2          
   576  Cl    c      1.9603 *    -4.0187 *   -13.6243 *  0.0000     2          
   577  O     c      0.0000     -13.8204 *    -3.8227 *  0.0000     1          
   578  Li    c      1.9603 *    13.6243 *     4.0187 *  0.0000     2          
   579  O     c      7.8414 *     1.8623 *    11.8600 *  0.0000     2          
   580  O     c     11.7620 *    -2.0584 *     7.9394 *  0.0000     2          
   581  O     c      3.9207 *   -13.8204 *     0.0980 *  0.0000     2          
   582  O     c     -7.8414 *    -2.0584 *    11.8600 *  0.0000     2          
   583  Cl    c      5.8810 *    11.6640 *     5.9790 *  0.0000     2          
   584  Cl    c     13.7224 *     3.8227 *    -1.8623 *  0.0000     2          
   585  Li    c      5.8810 *    -5.9790 *   -11.6640 *  0.0000     2          
   586  Li    c      9.8017 *     9.7037 *     4.0187 *  0.0000     2          
   587  Li    c     13.7224 *     1.8623 *    -3.8227 *  0.0000     2          
   588  Cl    c      9.8017 *    -4.0187 *    -9.7037 *  0.0000     2          
   589  O     c      0.0000     -13.8204 *     4.0187 *  0.0000     1          
   590  Cl    c     13.7224 *     3.8227 *     2.0584 *  0.0000     2          
   591  Li    c     13.7224 *    -2.0584 *    -3.8227 *  0.0000     2          
   592  Li    c      3.9207 *     9.7037 *     9.8997 *  0.0000     2          
   593  Li    c      3.9207 *    -9.8997 *    -9.7037 *  0.0000     2          
   594  Li    c     11.7620 *     5.7830 *     5.9790 *  0.0000     2          
   595  Li    c     11.7620 *    -5.9790 *    -5.7830 *  0.0000     2          
   596  Cl    c     13.7224 *    -4.0187 *    -1.8623 *  0.0000     2          
   597  Li    c     13.7224 *     1.8623 *     4.0187 *  0.0000     2          
   598  Cl    c      5.8810 *   -11.8600 *    -5.7830 *  0.0000     2          
   599  Li    c      5.8810 *     5.7830 *    11.8600 *  0.0000     2          
   600  Li    c      9.8017 *    -9.8997 *    -3.8227 *  0.0000     2          
   601  Cl    c      9.8017 *     3.8227 *     9.8997 *  0.0000     2          
   602  Cl    c     13.7224 *    -4.0187 *     2.0584 *  0.0000     2          
   603  Li    c     13.7224 *    -2.0584 *     4.0187 *  0.0000     2          
   604  Cl    c      1.9603 *     3.8227 *    13.8204 *  0.0000     2          
   605  Li    c      1.9603 *   -13.8204 *    -3.8227 *  0.0000     2          
   606  Li    c      3.9207 *   -13.8204 *    -1.8623 *  0.0000     2          
   607  Li    c      3.9207 *     1.8623 *    13.8204 *  0.0000     2          
   608  Li    c     11.7620 *    -5.9790 *     5.9790 *  0.0000     2          
   609  Li    c      9.8017 *    -9.8997 *     4.0187 *  0.0000     2          
   610  Cl    c      9.8017 *    -4.0187 *     9.8997 *  0.0000     2          
   611  Li    c      3.9207 *   -13.8204 *     2.0584 *  0.0000     2          
   612  Li    c      3.9207 *    -2.0584 *    13.8204 *  0.0000     2          
   613  Cl    c      1.9603 *    -4.0187 *    13.8204 *  0.0000     2          
   614  Li    c      1.9603 *   -13.8204 *     4.0187 *  0.0000     2          
   615  Cl    c      5.8810 *   -11.8600 *     5.9790 *  0.0000     2          
   616  Li    c      5.8810 *    -5.9790 *    11.8600 *  0.0000     2          
   617  Li    c      3.9207 *    -9.8997 *     9.8997 *  0.0000     2          
   618  Li    c      3.9207 *    11.6640 *    -7.7433 *  0.0000     2          
   619  Li    c      3.9207 *     7.7433 *   -11.6640 *  0.0000     2          
   620  Li    c     -7.8414 *     3.8227 *   -11.6640 *  0.0000     2          
   621  Li    c     -7.8414 *    11.6640 *    -3.8227 *  0.0000     2          
   622  Li    c     11.7620 *     3.8227 *    -7.7433 *  0.0000     2          
   623  Li    c     11.7620 *     7.7433 *    -3.8227 *  0.0000     2          
   624  Li    c      7.8414 *    -4.0187 *   -11.6640 *  0.0000     2          
   625  Li    c     -7.8414 *    11.6640 *     4.0187 *  0.0000     2          
   626  Li    c      3.9207 *    11.6640 *     7.9394 *  0.0000     2          
   627  Li    c      3.9207 *    -7.9394 *   -11.6640 *  0.0000     2          
   628  Li    c     11.7620 *     7.7433 *     4.0187 *  0.0000     2          
   629  Li    c     11.7620 *    -4.0187 *    -7.7433 *  0.0000     2          
   630  O     c      3.9207 *    13.6243 *    -3.8227 *  0.0000     2          
   631  O     c      7.8414 *     9.7037 *    -7.7433 *  0.0000     2          
   632  Li    c      3.9207 *     7.7433 *    11.8600 *  0.0000     2          
   633  Li    c      3.9207 *   -11.8600 *    -7.7433 *  0.0000     2          
   634  Li    c     11.7620 *     3.8227 *     7.9394 *  0.0000     2          
   635  Li    c     11.7620 *    -7.9394 *    -3.8227 *  0.0000     2          
   636  Li    c     -7.8414 *     3.8227 *    11.8600 *  0.0000     2          
   637  Li    c     -7.8414 *   -11.8600 *    -3.8227 *  0.0000     2          
   638  O     c      3.9207 *    13.6243 *     4.0187 *  0.0000     2          
   639  Li    c     11.7620 *    -4.0187 *     7.9394 *  0.0000     2          
   640  Li    c     11.7620 *    -7.9394 *     4.0187 *  0.0000     2          
   641  Li    c     -7.8414 *    -4.0187 *    11.8600 *  0.0000     2          
   642  Li    c     -7.8414 *   -11.8600 *     4.0187 *  0.0000     2          
   643  O     c      7.8414 *     9.7037 *     7.9394 *  0.0000     2          
   644  Li    c      0.0000       5.7830 *   -13.6243 *  0.0000     1          
   645  Li    c      0.0000      13.6243 *    -5.7830 *  0.0000     1          
   646  Li    c      3.9207 *    -7.9394 *    11.8600 *  0.0000     2          
   647  Li    c      3.9207 *   -11.8600 *     7.9394 *  0.0000     2          
   648  O     c      7.8414 *    -9.8997 *    -7.7433 *  0.0000     2          
   649  Li    c      5.8810 *    13.6243 *     0.0980 *  0.0000     2          
   650  Cl    c      5.8810 *    -0.0980 *   -13.6243 *  0.0000     2          
   651  O     c      3.9207 *   -13.8204 *    -3.8227 *  0.0000     2          
   652  Li    c      0.0000      13.6243 *     5.9790 *  0.0000     1          
   653  Li    c      0.0000      -5.9790 *   -13.6243 *  0.0000     1          
   654  Cl    c     13.7224 *    -0.0980 *    -5.7830 *  0.0000     2          
   655  Li    c     13.7224 *     5.7830 *     0.0980 *  0.0000     2          
   656  O     c      3.9207 *   -13.8204 *     4.0187 *  0.0000     2          
   657  O     c      7.8414 *    -9.8997 *     7.9394 *  0.0000     2          
   658  Cl    c     13.7224 *    -0.0980 *     5.9790 *  0.0000     2          
   659  Li    c     13.7224 *    -5.9790 *     0.0980 *  0.0000     2          
   660  Li    c      0.0000       5.7830 *    13.8204 *  0.0000     1          
   661  Li    c      0.0000     -13.8204 *    -5.7830 *  0.0000     1          
   662  Li    c      5.8810 *   -13.8204 *     0.0980 *  0.0000     2          
   663  Cl    c      5.8810 *    -0.0980 *    13.8204 *  0.0000     2          
   664  Li    c      0.0000      -5.9790 *    13.8204 *  0.0000     1          
   665  Li    c      0.0000     -13.8204 *     5.9790 *  0.0000     1          
   666  O     c      0.0000       9.7037 *   -11.6640 *  0.0000     1          
   667  O     c     -7.8414 *     5.7830 *   -11.6640 *  0.0000     2          
   668  O     c     11.7620 *     5.7830 *    -7.7433 *  0.0000     2          
   669  O     c     11.7620 *     9.7037 *     0.0980 *  0.0000     2          
   670  O     c     -7.8414 *    -5.9790 *   -11.6640 *  0.0000     2          
   671  Cl    c      1.9603 *    11.6640 *    -9.7037 *  0.0000     2          
   672  O     c      0.0000      -9.8997 *   -11.6640 *  0.0000     1          
   673  O     c     11.7620 *    -5.9790 *    -7.7433 *  0.0000     2          
   674  Li    c      1.9603 *     9.7037 *   -11.6640 *  0.0000     2          
   675  Li    c      3.9207 *    13.6243 *    -5.7830 *  0.0000     2          
   676  Li    c     -3.9207 *     5.7830 *   -13.6243 *  0.0000     2          
   677  Cl    c      5.8810 *     3.8227 *   -13.6243 *  0.0000     2          
   678  O     c      0.0000       9.7037 *    11.8600 *  0.0000     1          
   679  Li    c      5.8810 *    13.6243 *    -3.8227 *  0.0000     2          
   680  O     c     11.7620 *     5.7830 *     7.9394 *  0.0000     2          
   681  Cl    c      9.8017 *    11.6640 *    -1.8623 *  0.0000     2          
   682  O     c      7.8414 *     5.7830 *    11.8600 *  0.0000     2          
   683  Li    c      9.8017 *     1.8623 *   -11.6640 *  0.0000     2          
   684  Li    c     11.7620 *     1.8623 *    -9.7037 *  0.0000     2          
   685  Li    c     11.7620 *     9.7037 *    -1.8623 *  0.0000     2          
   686  Cl    c      5.8810 *    -4.0187 *   -13.6243 *  0.0000     2          
   687  O     c     11.7620 *    -9.8997 *     0.0980 *  0.0000     2          
   688  Li    c      5.8810 *    13.6243 *     4.0187 *  0.0000     2          
   689  Cl    c      9.8017 *    11.6640 *     2.0584 *  0.0000     2          
   690  Cl    c     13.7224 *     3.8227 *    -5.7830 *  0.0000     2          
   691  Li    c      9.8017 *    -2.0584 *   -11.6640 *  0.0000     2          
   692  Li    c     13.7224 *     5.7830 *    -3.8227 *  0.0000     2          
   693  Li    c      3.9207 *    13.6243 *     5.9790 *  0.0000     2          
   694  Li    c      3.9207 *    -5.9790 *   -13.6243 *  0.0000     2          
   695  Li    c     11.7620 *    -2.0584 *    -9.7037 *  0.0000     2          
   696  Li    c     11.7620 *     9.7037 *     2.0584 *  0.0000     2          
   697  O     c     11.7620 *    -5.9790 *     7.9394 *  0.0000     2          
   698  Cl    c      1.9603 *    11.6640 *     9.8997 *  0.0000     2          
   699  O     c      7.8414 *    -5.9790 *    11.8600 *  0.0000     2          
[...]
   2021 y         -9.801689     -9.802703    -0.001014    Cartesian    0.01
   2021 z          5.881013      5.881304     0.000291    Cartesian    0.00
   2022 x         15.682702     15.685399     0.002698    Cartesian    0.02
   2022 y         11.762026     11.763888     0.001862    Cartesian    0.02
   2022 z          7.841351      7.842900     0.001549    Cartesian    0.02
   2023 x          7.841351      7.842496     0.001145    Cartesian    0.01
   2023 y        -11.762026    -11.765563    -0.003537    Cartesian    0.03
   2023 z        -11.762026    -11.763760    -0.001734    Cartesian    0.01
   2024 x         19.603377     19.607658     0.004281    Cartesian    0.02
   2024 y         -3.920675     -3.922010    -0.001334    Cartesian    0.03
   2024 z         -3.920675     -3.921151    -0.000476    Cartesian    0.01
   2025 x          7.841351      7.842802     0.001451    Cartesian    0.02
   2025 y         11.762026     11.764310     0.002283    Cartesian    0.02
   2025 z         15.682702     15.686325     0.003623    Cartesian    0.02
   2026 x         19.603377     19.607627     0.004250    Cartesian    0.02
   2026 y          3.920675      3.920793     0.000117    Cartesian    0.00
   2026 z          7.841351      7.843012     0.001661    Cartesian    0.02
   2027 x          5.881013      5.881238     0.000225    Cartesian    0.00
   2027 y         -9.801689     -9.802817    -0.001128    Cartesian    0.01
   2027 z         17.643040     17.644347     0.001307    Cartesian    0.01
   2028 x         15.682702     15.685257     0.002555    Cartesian    0.02
   2028 y        -11.762026    -11.765297    -0.003271    Cartesian    0.03
   2028 z         -3.920675     -3.921235    -0.000560    Cartesian    0.01
   2029 x         19.603377     19.607411     0.004034    Cartesian    0.02
   2029 y         -3.920675     -3.921890    -0.001215    Cartesian    0.03
   2029 z          7.841351      7.842946     0.001595    Cartesian    0.02
   2030 x          7.841351      7.842754     0.001403    Cartesian    0.02
   2030 y          3.920675      3.920961     0.000285    Cartesian    0.01
   2030 z         19.603377     19.608202     0.004825    Cartesian    0.02
   2031 x         15.682702     15.685094     0.002392    Cartesian    0.02
   2031 y        -11.762026    -11.765161    -0.003135    Cartesian    0.03
   2031 z          7.841351      7.842897     0.001546    Cartesian    0.02
   2032 x          7.841351      7.842651     0.001300    Cartesian    0.02
   2032 y         -3.920675     -3.922059    -0.001383    Cartesian    0.04
   2032 z         19.603377     19.607964     0.004587    Cartesian    0.02
   2033 x          7.841351      7.842542     0.001191    Cartesian    0.02
   2033 y        -11.762026    -11.765117    -0.003090    Cartesian    0.03
   2033 z         15.682702     15.685489     0.002787    Cartesian    0.02
   2034 x          1.960338      1.960338     0.000000    Cartesian    0.00
   2034 y         17.643040     17.644622     0.001583    Cartesian    0.01
   2034 z         -5.881013     -5.881740    -0.000726    Cartesian    0.01
   2035 x         13.722364     13.724564     0.002200    Cartesian    0.02
   2035 y          9.801689      9.803354     0.001665    Cartesian    0.02
   2035 z         -9.801689     -9.803400    -0.001711    Cartesian    0.02
   2036 x          9.801689      9.802612     0.000924    Cartesian    0.01
   2036 y         17.643040     17.644582     0.001542    Cartesian    0.01
   2036 z          1.960338      1.960577     0.000240    Cartesian    0.01
   2037 x          1.960338      1.960338     0.000000    Cartesian    0.00
   2037 y         17.643040     17.644568     0.001529    Cartesian    0.01
   2037 z          9.801689      9.802820     0.001131    Cartesian    0.01
   2038 x          7.841351      7.842956     0.001605    Cartesian    0.02
   2038 y         15.682702     15.686635     0.003933    Cartesian    0.03
   2038 z         -7.841351     -7.843240    -0.001889    Cartesian    0.02
   2039 x          3.920675      3.921377     0.000702    Cartesian    0.02
   2039 y          7.841351      7.843488     0.002137    Cartesian    0.03
   2039 z        -15.682702    -15.688654    -0.005952    Cartesian    0.04
   2040 x         13.722364     13.724308     0.001944    Cartesian    0.01
   2040 y         -9.801689     -9.803743    -0.002054    Cartesian    0.02
   2040 z         -9.801689     -9.803215    -0.001527    Cartesian    0.02
   2041 x         11.762026     11.764711     0.002685    Cartesian    0.02
   2041 y         15.682702     15.686432     0.003730    Cartesian    0.02
   2041 z         -3.920675     -3.921360    -0.000684    Cartesian    0.02
   2042 x         13.722364     13.724378     0.002014    Cartesian    0.01
   2042 y          9.801689      9.803138     0.001450    Cartesian    0.01
   2042 z         13.722364     13.724417     0.002053    Cartesian    0.01
   2043 x         15.682702     15.686016     0.003314    Cartesian    0.02
   2043 y          0.000000     -0.000798    -0.000798    Cartesian    0.00
   2043 z        -11.762026    -11.764374    -0.002348    Cartesian    0.02
   2044 x          1.960338      1.960338     0.000000    Cartesian    0.00
   2044 y        -17.643040    -17.644913    -0.001874    Cartesian    0.01
   2044 z         -5.881013     -5.881657    -0.000644    Cartesian    0.01
   2045 x          3.920675      3.921372     0.000696    Cartesian    0.02
   2045 y         -7.841351     -7.844670    -0.003319    Cartesian    0.04
   2045 z        -15.682702    -15.687764    -0.005062    Cartesian    0.03
   2046 x         11.762026     11.764604     0.002578    Cartesian    0.02
   2046 y         15.682702     15.686128     0.003426    Cartesian    0.02
   2046 z          7.841351      7.843368     0.002017    Cartesian    0.03
   2047 x         19.603377     19.608519     0.005142    Cartesian    0.03
   2047 y          7.841351      7.842641     0.001290    Cartesian    0.02
   2047 z         -0.000000     -0.000014    -0.000014    Cartesian *******
   2048 x          7.841351      7.842849     0.001498    Cartesian    0.02
   2048 y         15.682702     15.686112     0.003410    Cartesian    0.02
   2048 z         11.762026     11.765063     0.003037    Cartesian    0.03
   2049 x         19.603377     19.608383     0.005006    Cartesian    0.03
   2049 y          7.841351      7.842644     0.001293    Cartesian    0.02
   2049 z          3.920675      3.921734     0.001058    Cartesian    0.03
   2050 x          9.801689      9.802436     0.000747    Cartesian    0.01
   2050 y        -17.643040    -17.644895    -0.001855    Cartesian    0.01
   2050 z          1.960338      1.960502     0.000164    Cartesian    0.01
   2051 x         13.722364     13.724225     0.001861    Cartesian    0.01
   2051 y         -9.801689     -9.803547    -0.001858    Cartesian    0.02
   2051 z         13.722364     13.724256     0.001892    Cartesian    0.01
   2052 x          1.960338      1.960338     0.000000    Cartesian    0.00
   2052 y        -17.643040    -17.644896    -0.001856    Cartesian    0.01
   2052 z          9.801689      9.802528     0.000839    Cartesian    0.01
   2053 x          7.841351      7.842703     0.001352    Cartesian    0.02
   2053 y        -15.682702    -15.687169    -0.004467    Cartesian    0.03
   2053 z         -7.841351     -7.843023    -0.001672    Cartesian    0.02
   2054 x         19.603377     19.608101     0.004724    Cartesian    0.02
   2054 y         -7.841351     -7.843746    -0.002395    Cartesian    0.03
   2054 z         -0.000000     -0.000145    -0.000145    Cartesian *******
   2055 x          3.920675      3.921372     0.000696    Cartesian    0.02
   2055 y          7.841351      7.842862     0.001511    Cartesian    0.02
   2055 z         19.603377     19.608907     0.005530    Cartesian    0.03
   2056 x         11.762026     11.764177     0.002151    Cartesian    0.02
   2056 y        -15.682702    -15.687011    -0.004309    Cartesian    0.03
   2056 z         -3.920675     -3.921511    -0.000836    Cartesian    0.02
   2057 x         19.603377     19.608014     0.004637    Cartesian    0.02
   2057 y         -7.841351     -7.843736    -0.002385    Cartesian    0.03
   2057 z          3.920675      3.921741     0.001065    Cartesian    0.03
   2058 x         15.682702     15.685546     0.002844    Cartesian    0.02
   2058 y          0.000000     -0.000613    -0.000613    Cartesian    0.00
   2058 z         15.682702     15.686040     0.003338    Cartesian    0.02
   2059 x         11.762026     11.764207     0.002181    Cartesian    0.02
   2059 y        -15.682702    -15.686760    -0.004058    Cartesian    0.03
   2059 z          7.841351      7.843058     0.001707    Cartesian    0.02
   2060 x          3.920675      3.921326     0.000651    Cartesian    0.02
   2060 y         -7.841351     -7.843843    -0.002492    Cartesian    0.03
   2060 z         19.603377     19.608428     0.005051    Cartesian    0.03
   2061 x          7.841351      7.842697     0.001346    Cartesian    0.02
   2061 y        -15.682702    -15.686683    -0.003981    Cartesian    0.03
   2061 z         11.762026     11.764531     0.002504    Cartesian    0.02
   2062 x          9.801689      9.803464     0.001775    Cartesian    0.02
   2062 y         13.722364     13.724648     0.002284    Cartesian    0.02
   2062 z         -9.801689     -9.803453    -0.001764    Cartesian    0.02
   2063 x          5.881013      5.881960     0.000947    Cartesian    0.02
   2063 y         17.643040     17.645380     0.002340    Cartesian    0.01
   2063 z         -5.881013     -5.882065    -0.001051    Cartesian    0.02
   2064 x         13.722364     13.724411     0.002047    Cartesian    0.01
   2064 y         13.722364     13.724438     0.002074    Cartesian    0.02
   2064 z         -5.881013     -5.882273    -0.001260    Cartesian    0.02
   2065 x          1.960338      1.960338     0.000000    Cartesian    0.00
   2065 y          1.960338      1.960182    -0.000155    Cartesian   -0.01
   2065 z        -17.643040    -17.644672    -0.001632    Cartesian    0.01
   2066 x          9.801689      9.802954     0.001265    Cartesian    0.01
   2066 y         17.643040     17.645337     0.002297    Cartesian    0.01
   2066 z         -1.960338     -1.961017    -0.000679    Cartesian    0.03
   2067 x         13.722364     13.723621     0.001256    Cartesian    0.01
   2067 y          1.960338      1.960194    -0.000144    Cartesian   -0.01
   2067 z        -13.722364    -13.724105    -0.001740    Cartesian    0.01
   2068 x          1.960338      1.960338     0.000000    Cartesian    0.00
   2068 y         -1.960338     -1.960502    -0.000164    Cartesian    0.01
   2068 z        -17.643040    -17.644051    -0.001012    Cartesian    0.01
   2069 x         13.722364     13.723817     0.001453    Cartesian    0.01
   2069 y         -1.960338     -1.960691    -0.000353    Cartesian    0.02
   2069 z        -13.722364    -13.724055    -0.001691    Cartesian    0.01
   2070 x        -13.722364    -13.723838    -0.001474    Cartesian    0.01
   2070 y          1.960338      1.960234    -0.000104    Cartesian   -0.01
   2070 z         -9.801689     -9.802698    -0.001010    Cartesian    0.01
   2071 x          9.801689      9.802919     0.001230    Cartesian    0.01
   2071 y         17.643040     17.645274     0.002234    Cartesian    0.01
   2071 z          5.881013      5.882110     0.001097    Cartesian    0.02
   2072 x         17.643040     17.644617     0.001577    Cartesian    0.01
   2072 y         -1.960338     -1.960602    -0.000264    Cartesian    0.01
   2072 z         -9.801689     -9.802608    -0.000919    Cartesian    0.01
   2073 x          5.881013      5.881897     0.000884    Cartesian    0.02
   2073 y         17.643040     17.645297     0.002257    Cartesian    0.01
   2073 z          9.801689      9.803092     0.001404    Cartesian    0.01
   2074 x         13.722364     13.724325     0.001961    Cartesian    0.01
   2074 y         13.722364     13.724344     0.001980    Cartesian    0.01
   2074 z          9.801689      9.803363     0.001674    Cartesian    0.02
   2075 x          9.801689      9.803323     0.001635    Cartesian    0.02
   2075 y         13.722364     13.724428     0.002064    Cartesian    0.02
   2075 z         13.722364     13.724416     0.002051    Cartesian    0.01
   2076 x          3.920675      3.921251     0.000576    Cartesian    0.01
   2076 y         19.603377     19.608834     0.005457    Cartesian    0.03
   2076 z         -0.000000      0.000012     0.000012    Cartesian *******
   2077 x         21.563715     21.564262     0.000547    Cartesian    0.00
   2077 y          1.960338      1.960017    -0.000321    Cartesian   -0.02
   2077 z          1.960338      1.960331    -0.000006    Cartesian   -0.00
   2078 x          3.920675      3.921233     0.000557    Cartesian    0.01
   2078 y         19.603377     19.608543     0.005166    Cartesian    0.03
   2078 z          3.920675      3.921783     0.001108    Cartesian    0.03
   2079 x         15.682702     15.686668     0.003966    Cartesian    0.03
   2079 y          3.920675      3.921247     0.000571    Cartesian    0.01
   2079 z        -11.762026    -11.765087    -0.003061    Cartesian    0.03
   2080 x          9.801689      9.803188     0.001499    Cartesian    0.02
   2080 y        -13.722364    -13.724608    -0.002244    Cartesian    0.02
   2080 z         -9.801689     -9.803278    -0.001589    Cartesian    0.02
   2081 x         21.563715     21.565092     0.001377    Cartesian    0.01
   2081 y         -1.960338     -1.960986    -0.000648    Cartesian    0.03
   2081 z          1.960338      1.960432     0.000095    Cartesian    0.00
   2082 x         13.722364     13.724135     0.001771    Cartesian    0.01
   2082 y        -13.722364    -13.724591    -0.002227    Cartesian    0.02
   2082 z         -5.881013     -5.882266    -0.001253    Cartesian    0.02
   2083 x          5.881013      5.881812     0.000798    Cartesian    0.01
   2083 y        -17.643040    -17.645518    -0.002478    Cartesian    0.01
   2083 z         -5.881013     -5.881894    -0.000881    Cartesian    0.01
   2084 x        -13.722364    -13.724557    -0.002193    Cartesian    0.02
   2084 y          1.960338      1.960720     0.000383    Cartesian    0.02
   2084 z         13.722364     13.723860     0.001495    Cartesian    0.01
   2085 x         15.682702     15.686580     0.003878    Cartesian    0.02
   2085 y         -3.920675     -3.922389    -0.001713    Cartesian    0.04
   2085 z        -11.762026    -11.765032    -0.003006    Cartesian    0.03
   2086 x         13.722364     13.724038     0.001674    Cartesian    0.01
   2086 y          1.960338      1.960707     0.000369    Cartesian    0.02
   2086 z         17.643040     17.645432     0.002392    Cartesian    0.01
   2087 x          9.801689      9.802725     0.001036    Cartesian    0.01
   2087 y        -17.643040    -17.645498    -0.002459    Cartesian    0.01
   2087 z         -1.960338     -1.960956    -0.000618    Cartesian    0.03
   2088 x        -13.722364    -13.724523    -0.002158    Cartesian    0.02
   2088 y         -1.960338     -1.961074    -0.000736    Cartesian    0.04
   2088 z         13.722364     13.723922     0.001557    Cartesian    0.01
   2089 x         13.722364     13.723957     0.001593    Cartesian    0.01
   2089 y         -1.960338     -1.961141    -0.000804    Cartesian    0.04
   2089 z         17.643040     17.645396     0.002356    Cartesian    0.01
   2090 x          1.960338      1.960338     0.000000    Cartesian    0.00
   2090 y          1.960338      1.960605     0.000267    Cartesian    0.01
   2090 z         21.563715     21.565386     0.001670    Cartesian    0.01
   2091 x          1.960338      1.960338     0.000000    Cartesian    0.00
   2091 y         -1.960338     -1.960960    -0.000622    Cartesian    0.03
   2091 z         21.563715     21.565333     0.001618    Cartesian    0.01
   2092 x          9.801689      9.802718     0.001029    Cartesian    0.01
   2092 y        -17.643040    -17.645433    -0.002394    Cartesian    0.01
   2092 z          5.881013      5.881944     0.000931    Cartesian    0.02
   2093 x         13.722364     13.724108     0.001744    Cartesian    0.01
   2093 y        -13.722364    -13.724526    -0.002161    Cartesian    0.02
   2093 z          9.801689      9.803226     0.001537    Cartesian    0.02
   2094 x          5.881013      5.881792     0.000779    Cartesian    0.01
   2094 y        -17.643040    -17.645431    -0.002391    Cartesian    0.01
   2094 z          9.801689      9.802849     0.001160    Cartesian    0.01
   2095 x          9.801689      9.803152     0.001464    Cartesian    0.01
   2095 y        -13.722364    -13.724551    -0.002186    Cartesian    0.02
   2095 z         13.722364     13.724183     0.001819    Cartesian    0.01
   2096 x         15.682702     15.686779     0.004077    Cartesian    0.03
   2096 y          3.920675      3.921347     0.000671    Cartesian    0.02
   2096 z         15.682702     15.687102     0.004400    Cartesian    0.03
   2097 x          3.920675      3.921335     0.000659    Cartesian    0.02
   2097 y        -19.603377    -19.609400    -0.006022    Cartesian    0.03
   2097 z         -0.000000     -0.000310    -0.000310    Cartesian *******
   2098 x         15.682702     15.686678     0.003976    Cartesian    0.03
   2098 y         -3.920675     -3.922361    -0.001686    Cartesian    0.04
   2098 z         15.682702     15.686903     0.004201    Cartesian    0.03
   2099 x          3.920675      3.921412     0.000736    Cartesian    0.02
   2099 y        -19.603377    -19.609199    -0.005821    Cartesian    0.03
   2099 z          3.920675      3.921742     0.001067    Cartesian    0.03
   2100 x          9.801689      9.803767     0.002078    Cartesian    0.02
   2100 y          9.801689      9.803733     0.002044    Cartesian    0.02
   2100 z        -13.722364    -13.725348    -0.002984    Cartesian    0.02
   2101 x          5.881013      5.881999     0.000986    Cartesian    0.02
   2101 y          1.960338      1.960824     0.000487    Cartesian    0.02
   2101 z        -17.643040    -17.645886    -0.002846    Cartesian    0.02
--------------------------------------------------------------------------------


  Time to end of optimisation  =      355.2241 seconds


  Peak dynamic memory used =    1736.63 MB 


  Timing analysis for GULP :

--------------------------------------------------------------------------------
  Task / Subroutine                                          Time (Seconds)
--------------------------------------------------------------------------------
  Calculation of reciprocal space energy and derivatives          0.0002
  Calculation of reciprocal space energy using symmetry           0.0003
  Calculation of real space energy and derivatives                0.0016
  Calculation of real space energy using symmetry                 0.0032
  Calculation for region 1 energy and derivatives (2-b)         145.3942
  Calculation for region 2a energy                               47.2658
  Calculation for region 2b energy                                0.0025
  Calculation and manipulation of Hessian matrix                  1.5328
  Calculation of matrix inversion                               158.8103
  Symmetry generation of equivalent positions                     0.0015
--------------------------------------------------------------------------------
  Total CPU time                                                355.2241
--------------------------------------------------------------------------------


  Dump file written as Li3OCl.grs


  Job Finished at 11:56.46 23rd October    2020                               

