********************************************************************************
*                       GENERAL UTILITY LATTICE PROGRAM                        *
*                                 Julian Gale                                  *
*                       Curtin Institute for Computation                       *
*                    School of Molecular and Life Sciences                     *
*                    Curtin University, Western Australia                      *
********************************************************************************
* Version = 5.2.0 * Last modified =  10th September 2020                       *
********************************************************************************
*  optimise     - perform optimisation run                                     *
*  conp         - constant pressure calculation                                *
*  property     - calculate properties for final geometry                      *
*  defect       - perform defect calculation after bulk run                    *
*  compare      - compare initial and final structures                         *
********************************************************************************

  Job Started  at 14:13.43 23rd October    2020                               

  Number of CPUs =     1


  Total number of configurations input =      1

********************************************************************************
*  Input for Configuration =   1                                               *
********************************************************************************

  Formula = ClOLi3                                                      

  Number of irreducible atoms/shells =       5


  Total number atoms/shells =       7

  Dimensionality = 3               :  Bulk   


  Symmetry :

  Crystal family                   :  Cubic       
  Crystal class  (Groth - 1921)    :  Cubic Hexakisoctahedral              

  Space group (centrosymmetric)    :  P M 3 M         

  Patterson group                  :  P m -3 m 

  Cartesian lattice vectors (Angstroms) :

        3.918873    0.000000    0.000000
        0.000000    3.918873    0.000000
        0.000000    0.000000    3.918873

  Cell parameters (Angstroms/Degrees):

  a =       3.9189    alpha =  90.0000
  b =       3.9189    beta  =  90.0000
  c =       3.9189    gamma =  90.0000

  Initial cell volume =          60.184349 Angs**3

  Temperature of configuration =   0.00     K 

  Pressure of configuration =         0.000 GPa 

  Fractional coordinates of asymmetric unit :

--------------------------------------------------------------------------------
   No.  Atomic       x           y          z         Charge      Occupancy
        Label      (Frac)      (Frac)     (Frac)        (e)         (Frac)  
--------------------------------------------------------------------------------
      1 Cl    c    0.000000    0.000000    0.000000     1.48500    1.000000    
      2 O     c    0.500000    0.500000    0.500000     0.18300    1.000000    
      3 Li    c    0.500000    0.500000    0.000000     1.00000    1.000000    
      4 Cl    s    0.000000    0.000000    0.000000    -2.48500    1.000000    
      5 O     s    0.500000    0.500000    0.500000    -2.18300    1.000000    
--------------------------------------------------------------------------------


  Constraints : 

--------------------------------------------------------------------------------
  Constraint no.      Unconstrained     Constrained    Coefficient    Offset
                         Variable         Variable
--------------------------------------------------------------------------------
           1              Strain 1        Strain 2       1.00000      0.0000
           2              Strain 1        Strain 3       1.00000      0.0000
--------------------------------------------------------------------------------


********************************************************************************
*  General input information                                                   *
********************************************************************************

  Species output for all configurations : 

--------------------------------------------------------------------------------
  Species    Type    Atomic    Atomic    Charge       Radii (Angs)     Library
                     Number     Mass       (e)     Cova   Ionic  VDW   Symbol
--------------------------------------------------------------------------------
    Li       Core        3       6.94   1.000000   0.680  0.000  1.800          
    O        Core        8      16.00   0.183000   0.730  0.000  1.360          
    O        Shell       8       0.00  -2.183000   0.730  0.000  1.360          
    Cl       Core       17      35.45   1.485000   0.990  0.000  1.650          
    Cl       Shell      17       0.00  -2.485000   0.990  0.000  1.650          
--------------------------------------------------------------------------------


  Lattice summation method               =    Ewald          (3-D)
                                         =    Parry          (2-D)
                                         =    Saunders et al (1-D)
  Accuracy factor for lattice sums       =   12.000


  Analytic derivatives to be used

  Time limit = Infinity

  Maximum range for interatomic potentials =    100000.000000 Angstroms

  General interatomic potentials :

--------------------------------------------------------------------------------
Atom  Types   Potential      Parameter       Value         Units   Cutoffs(Ang)
  1     2                                                            Min /  Max 
--------------------------------------------------------------------------------
O    c O    s Spring (c-s)  Spring k 2       593.72000    eV*Ang^-2 0.000  0.800
                            Spring k 4       0.0000000    eV*Ang^-4 
--------------------------------------------------------------------------------
Cl   c Cl   s Spring (c-s)  Spring k 2       29.380000    eV*Ang^-2 0.000  0.800
                            Spring k 4       0.0000000    eV*Ang^-4 
--------------------------------------------------------------------------------
Li   c Li   c Buckingham    Buckingham A     360.53000    eV        0.000 12.000
                            Buckingham rho  0.16100000    Ang       
                            Buckingham C     0.0000000    eV*Ang^6  
--------------------------------------------------------------------------------
Li   c O    s Buckingham    Buckingham A     292.30000    eV        0.000 12.000
                            Buckingham rho  0.34720000    Ang       
                            Buckingham C     0.0000000    eV*Ang^6  
--------------------------------------------------------------------------------
Li   c Cl   s Buckingham    Buckingham A     421.04000    eV        0.000 12.000
                            Buckingham rho  0.33400000    Ang       
                            Buckingham C     0.0000000    eV*Ang^6  
--------------------------------------------------------------------------------
O    s O    s Buckingham    Buckingham A     22764.300    eV        0.000 12.000
                            Buckingham rho  0.14900000    Ang       
                            Buckingham C     13.190000    eV*Ang^6  
--------------------------------------------------------------------------------
O    s Cl   s Buckingham    Buckingham A     8286.9100    eV        0.000 12.000
                            Buckingham rho  0.25900000    Ang       
                            Buckingham C     62.200000    eV*Ang^6  
--------------------------------------------------------------------------------
Cl   s Cl   s Buckingham    Buckingham A     1227.2000    eV        0.000 12.000
                            Buckingham rho  0.32100000    Ang       
                            Buckingham C     14.530000    eV*Ang^6  
--------------------------------------------------------------------------------

********************************************************************************
*  Output for configuration   1                                                *
********************************************************************************


  Components of energy : 

--------------------------------------------------------------------------------
  Interatomic potentials     =           7.26836263 eV    
  Monopole - monopole (real) =         -11.53475722 eV    
  Monopole - monopole (recip)=         -33.94580548 eV    
  Monopole - monopole (total)=         -45.48056271 eV    
--------------------------------------------------------------------------------
  Total lattice energy       =         -38.21220008 eV    
--------------------------------------------------------------------------------
  Total lattice energy       =           -3686.8932 kJ/(mole unit cells)
--------------------------------------------------------------------------------


  Number of variables =        1

  Maximum number of calculations  =          1000
  Maximum Hessian update interval =            10
  Maximum step size               =   1.000000000
  Maximum parameter tolerance     =   0.000010000
  Maximum function  tolerance     =   0.000010000
  Maximum gradient  tolerance     =   0.001000000
  Maximum gradient  component     =   0.010000000

  Symmetry constrained optimisation

  Symmetry used for second derivatives

  Cell parameters to be optimised using strains

  Newton-Raphson optimiser to be used

  BFGS hessian update to be used

  Lower half triangular hessian to be used

  Start of bulk optimisation :

  Cycle:      0 Energy:       -38.212200  Gnorm:      0.095699  CPU:    0.009
  ** Hessian calculated **
  Cycle:      1 Energy:       -38.212222  Gnorm:      0.000105  CPU:    0.011


  **** Optimisation achieved ****


  Final energy =     -38.21222207 eV
  Final Gnorm  =       0.00000016

  Components of energy : 

--------------------------------------------------------------------------------
  Interatomic potentials     =           7.24743141 eV    
  Monopole - monopole (real) =         -11.52945423 eV    
  Monopole - monopole (recip)=         -33.93019924 eV    
  Monopole - monopole (total)=         -45.45965348 eV    
--------------------------------------------------------------------------------
  Total lattice energy       =         -38.21222207 eV    
--------------------------------------------------------------------------------
  Total lattice energy       =           -3686.8953 kJ/(mole unit cells)
--------------------------------------------------------------------------------

  Final asymmetric unit coordinates :

--------------------------------------------------------------------------------
   No.  Atomic        x           y           z         Radius
        Label       (Frac)      (Frac)      (Frac)       (Angs) 
--------------------------------------------------------------------------------
     1  Cl    c     0.000000    0.000000    0.000000    0.000000
     2  O     c     0.500000    0.500000    0.500000    0.000000
     3  Li    c     0.500000    0.500000    0.000000    0.000000
     4  Cl    s     0.000000    0.000000    0.000000    0.000000
     5  O     s     0.500000    0.500000    0.500000    0.000000
--------------------------------------------------------------------------------

  Final Cartesian lattice vectors (Angstroms) :

        3.920675    0.000000    0.000000
        0.000000    3.920675    0.000000
        0.000000    0.000000    3.920675


  Final cell parameters and derivatives :

--------------------------------------------------------------------------------
       a            3.920675 Angstrom     dE/de1(xx)    -0.000000 eV/strain
       b            3.920675 Angstrom     dE/de2(yy)     0.000000 eV/strain
       c            3.920675 Angstrom     dE/de3(zz)     0.000000 eV/strain
       alpha       90.000000 Degrees      dE/de4(yz)     0.000000 eV/strain
       beta        90.000000 Degrees      dE/de5(xz)     0.000000 eV/strain
       gamma       90.000000 Degrees      dE/de6(xy)     0.000000 eV/strain
--------------------------------------------------------------------------------

  Primitive cell volume =            60.267433 Angs**3

  Density of cell =      1.991276 g/cm**3

  Non-primitive cell volume =            60.267433 Angs**3


  Final internal derivatives :

--------------------------------------------------------------------------------
   No.  Atomic          a             b             c           Radius
        Label          (eV)          (eV)          (eV)        (eV/Angs)
--------------------------------------------------------------------------------
      1 Cl    c       0.000000      0.000000      0.000000      0.000000
      2 O     c       0.000000      0.000000      0.000000      0.000000
      3 Li    c       0.000000      0.000000      0.000000      0.000000
      4 Cl    s       0.000000      0.000000      0.000000      0.000000
      5 O     s       0.000000      0.000000      0.000000      0.000000
--------------------------------------------------------------------------------
  Maximum abs         0.000000      0.000000      0.000000      0.000000
--------------------------------------------------------------------------------

  Comparison of initial and final structures : 

--------------------------------------------------------------------------------
  Parameter   Initial value   Final value   Difference    Units      Percent
--------------------------------------------------------------------------------
    Volume        60.184349     60.267433     0.083084    Angs**3      0.14
    a              3.918873      3.920675     0.001802    Angstroms    0.05
    b              3.918873      3.920675     0.001802    Angstroms    0.05
    c              3.918873      3.920675     0.001802    Angstroms    0.05
    alpha         90.000000     90.000000     0.000000    Degrees      0.00
    beta          90.000000     90.000000     0.000000    Degrees      0.00
    gamma         90.000000     90.000000     0.000000    Degrees      0.00
      1 x          0.000000      0.000000     0.000000    Fractional   0.00
      1 y          0.000000      0.000000     0.000000    Fractional   0.00
      1 z          0.000000      0.000000     0.000000    Fractional   0.00
      2 x          0.500000      0.500000     0.000000    Fractional   0.00
      2 y          0.500000      0.500000     0.000000    Fractional   0.00
      2 z          0.500000      0.500000     0.000000    Fractional   0.00
      3 x          0.500000      0.500000     0.000000    Fractional   0.00
      3 y          0.500000      0.500000     0.000000    Fractional   0.00
      3 z          0.000000      0.000000     0.000000    Fractional   0.00
      4 x          0.000000      0.000000     0.000000    Fractional   0.00
      4 y          0.000000      0.000000     0.000000    Fractional   0.00
      4 z          0.000000      0.000000     0.000000    Fractional   0.00
      5 x          0.500000      0.500000     0.000000    Fractional   0.00
      5 y          0.500000      0.500000     0.000000    Fractional   0.00
      5 z          0.500000      0.500000     0.000000    Fractional   0.00
--------------------------------------------------------------------------------


  Born effective charge tensors : 

-------------------------------------------------------------------------------
  Atom             x           y             z
-------------------------------------------------------------------------------
    1 Cl    x      -0.9489     -0.0000     -0.0000
            y      -0.0000     -0.9489     -0.0000
            z      -0.0000     -0.0000     -0.9489
-------------------------------------------------------------------------------
    2 O     x      -2.4688      0.0000      0.0000
            y       0.0000     -2.4688      0.0000
            z       0.0000      0.0000     -2.4688
-------------------------------------------------------------------------------
    3 Li    x       1.3129      0.0000     -0.0000
            y       0.0000      1.3129      0.0000
            z      -0.0000      0.0000      0.7919
-------------------------------------------------------------------------------




  Elastic Constant Matrix: (Units=GPa)

-------------------------------------------------------------------------------
  Indices      1         2         3         4         5         6    
-------------------------------------------------------------------------------
       1     94.3368   44.9178   44.9178    0.0000   -0.0000    0.0000
       2     44.9178   94.3368   44.9178   -0.0000    0.0000   -0.0000
       3     44.9178   44.9178   94.3368    0.0000   -0.0000    0.0000
       4      0.0000   -0.0000    0.0000   44.9178   -0.0000    0.0000
       5     -0.0000    0.0000   -0.0000   -0.0000   44.9178    0.0000
       6      0.0000   -0.0000    0.0000    0.0000    0.0000   44.9178
-------------------------------------------------------------------------------


  Elastic Compliance Matrix: (Units=1/GPa)

-------------------------------------------------------------------------------
  Indices      1         2         3         4         5         6    
-------------------------------------------------------------------------------
       1    0.015300 -0.004935 -0.004935 -0.000000  0.000000 -0.000000
       2   -0.004935  0.015300 -0.004935  0.000000 -0.000000  0.000000
       3   -0.004935 -0.004935  0.015300 -0.000000  0.000000 -0.000000
       4   -0.000000  0.000000 -0.000000  0.022263  0.000000 -0.000000
       5    0.000000 -0.000000  0.000000  0.000000  0.022263 -0.000000
       6   -0.000000  0.000000 -0.000000 -0.000000 -0.000000  0.022263
-------------------------------------------------------------------------------

  Mechanical properties :

-------------------------------------------------------------------------------
  Convention :                    Reuss         Voigt         Hill
-------------------------------------------------------------------------------
  Bulk  Modulus (GPa)     =      61.39080      61.39080      61.39080
  Shear Modulus (GPa)     =      33.84570      36.83448      35.34009
-------------------------------------------------------------------------------
  Velocity S-wave (km/s)  =       4.12274       4.30092       4.21277
  Velocity P-wave (km/s)  =       7.31386       7.44942       7.38195
-------------------------------------------------------------------------------
  Compressibility (1/GPa) =    0.01628909
-------------------------------------------------------------------------------
  Stress axis :                     x             y             z
-------------------------------------------------------------------------------
  Youngs Moduli (GPa)     =      65.35947      65.35947      65.35947
-------------------------------------------------------------------------------
  Poissons Ratio (x)      =                     0.32256       0.32256
  Poissons Ratio (y)      =       0.32256                     0.32256
  Poissons Ratio (z)      =       0.32256       0.32256
-------------------------------------------------------------------------------


  Piezoelectric Strain Matrix: (Units=C/m**2)

-------------------------------------------------------------------------------
  Indices      1         2         3         4         5         6    
-------------------------------------------------------------------------------
       x    -0.00000   0.00000   0.00000  -0.00000  -0.00000   0.00000
       y    -0.00000   0.00000   0.00000  -0.00000  -0.00000  -0.00000
       z     0.00000   0.00000   0.00000   0.00000  -0.00000  -0.00000
-------------------------------------------------------------------------------


  Piezoelectric Stress Matrix: (Units=10**-11 C/N)

-------------------------------------------------------------------------------
  Indices      1         2         3         4         5         6    
-------------------------------------------------------------------------------
       x    -0.00000   0.00000   0.00000  -0.00000  -0.00000   0.00000
       y    -0.00000   0.00000   0.00000  -0.00000  -0.00000  -0.00000
       z    -0.00000  -0.00000   0.00000   0.00000  -0.00000  -0.00000
-------------------------------------------------------------------------------


  Static dielectric constant tensor : 

-------------------------------------------------------------------------------
              x         y         z
-------------------------------------------------------------------------------
       x    12.11703   0.00000  -0.00000
       y     0.00000  12.11703  -0.00000
       z    -0.00000  -0.00000  12.11703
--------------------------------------------------------------------------------

  High frequency dielectric constant tensor : 

-------------------------------------------------------------------------------
              x         y         z
-------------------------------------------------------------------------------
       x     1.74104   0.00000   0.00000
       y     0.00000   1.74104   0.00000
       z     0.00000   0.00000   1.74104
-------------------------------------------------------------------------------

  Static refractive indices : 

-------------------------------------------------------------------------------
    1 =    3.48095      2 =    3.48095      3 =    3.48095
-------------------------------------------------------------------------------

  High frequency refractive indices : 

-------------------------------------------------------------------------------
    1 =    1.31948      2 =    1.31948      3 =    1.31948
-------------------------------------------------------------------------------


  Time to end of optimisation =       0.0153 seconds

********************************************************************************
*  Defect calculation for configuration   1 :                                  *
********************************************************************************

  Total number of defects =      3

  Total charge on defect  =  -1.00

  Defect centre is at   0.5000   0.2500   0.2500  Frac

  Region 1 radius =  20.0000      Number of ions =   3899

  Number of symmetry inequivalent region 1 ions  =   1132

  Region 2 radius =  24.0000      Number of ions =   2828

  Number of symmetry inequivalent region 2a ions =    778

  Region 2a mode = 4 : screened electrostatics due to region 1 
                       neglect correction to region 1 forces from 2a
                       region 2a displacements based on defects only

  Region 2a ions will only interact with defects in region 1

  Vacancies:

--------------------------------------------------------------------------------
    Specification type     Symbol/Number         x          y          z
--------------------------------------------------------------------------------
    Fractional                               0.500000   0.500000   0.000000
    Fractional                               0.500000   0.000000   0.500000
--------------------------------------------------------------------------------

  Interstitials:

--------------------------------------------------------------------------------
    Specification type     Symbol/Number         x          y          z
--------------------------------------------------------------------------------
    Atom/Fractional         Li               0.500000   0.250000   0.250000
--------------------------------------------------------------------------------


  Symmetry reduced region 1 (Relative to defect centre) :

--------------------------------------------------------------------------------
   No.   Atomic       x            y             z       Radius  Multiplicity   
         Label      (Angs)       (Angs)        (Angs)    (Angs)     
--------------------------------------------------------------------------------
     1  Li    c      0.0000       0.0000       0.0000    0.0000     1    Defect
     2  O     c      0.0000       0.9802 *     0.9802    0.0000     1          
     3  Cl    c      1.9603 *    -0.9802 *    -0.9802    0.0000     2          
     4  Li    c      1.9603 *     0.9802 *     0.9802    0.0000     2          
     5  O     c      0.0000       0.9802 *    -2.9405 *  0.0000     2          
     6  Li    c      0.0000       0.9802 *     2.9405 *  0.0000     2          
     7  Li    c      0.0000      -2.9405 *    -0.9802 *  0.0000     2          
     8  Cl    c      1.9603 *    -0.9802 *     2.9405 *  0.0000     4          
     9  Li    c      1.9603 *     0.9802 *    -2.9405 *  0.0000     4          
    10  O     c      0.0000      -2.9405 *    -2.9405    0.0000     1          
    11  O     c     -3.9207 *     0.9802 *     0.9802    0.0000     2          
    12  Li    c      0.0000      -2.9405 *     2.9405 *  0.0000     2          
    13  Li    c     -3.9207 *     0.9802 *    -0.9802 *  0.0000     4          
    14  Cl    c      1.9603 *     2.9405 *     2.9405    0.0000     2          
    15  Li    c      1.9603 *    -2.9405 *    -2.9405    0.0000     2          
    16  O     c      0.0000       0.9802 *     4.9008 *  0.0000     2          
    17  Li    c      0.0000       0.9802 *    -4.9008 *  0.0000     2          
    18  Li    c      0.0000      -0.9802 *     4.9008 *  0.0000     2          
    19  O     c     -3.9207 *     0.9802 *    -2.9405 *  0.0000     4          
    20  Li    c     -3.9207 *     0.9802 *     2.9405 *  0.0000     4          
    21  Li    c     -3.9207 *    -2.9405 *    -0.9802 *  0.0000     4          
    22  Cl    c      1.9603 *    -0.9802 *    -4.9008 *  0.0000     4          
    23  Li    c      1.9603 *     0.9802 *     4.9008 *  0.0000     4          
    24  O     c      0.0000      -2.9405 *     4.9008 *  0.0000     2          
    25  Li    c      0.0000      -2.9405 *    -4.9008 *  0.0000     2          
    26  Li    c      0.0000       2.9405 *     4.9008 *  0.0000     2          
    27  O     c     -3.9207 *    -2.9405 *    -2.9405    0.0000     2          
    28  Li    c     -3.9207 *    -2.9405 *     2.9405 *  0.0000     4          
    29  Cl    c      5.8810 *    -0.9802 *    -0.9802    0.0000     2          
    30  Li    c      5.8810 *     0.9802 *     0.9802    0.0000     2          
    31  Cl    c      1.9603 *     2.9405 *    -4.9008 *  0.0000     4          
    32  Li    c      1.9603 *    -2.9405 *     4.9008 *  0.0000     4          
    33  O     c     -3.9207 *     0.9802 *     4.9008 *  0.0000     4          
    34  Li    c     -3.9207 *     0.9802 *    -4.9008 *  0.0000     4          
    35  Li    c     -3.9207 *    -0.9802 *     4.9008 *  0.0000     4          
    36  Cl    c      5.8810 *    -0.9802 *     2.9405 *  0.0000     4          
    37  Li    c      5.8810 *     0.9802 *    -2.9405 *  0.0000     4          
    38  O     c      0.0000       4.9008 *     4.9008    0.0000     1          
    39  O     c      3.9207 *    -2.9405 *     4.9008 *  0.0000     4          
    40  Li    c      0.0000       4.9008 *    -4.9008 *  0.0000     2          
    41  Li    c      3.9207 *    -2.9405 *    -4.9008 *  0.0000     4          
    42  Li    c      3.9207 *     2.9405 *     4.9008 *  0.0000     4          
    43  O     c      0.0000       0.9802 *    -6.8612 *  0.0000     2          
    44  Li    c      0.0000       0.9802 *     6.8612 *  0.0000     2          
    45  Li    c      0.0000      -6.8612 *    -0.9802 *  0.0000     2          
    46  Cl    c      1.9603 *     6.8612 *    -0.9802 *  0.0000     4          
    47  Cl    c      5.8810 *     2.9405 *     2.9405    0.0000     2          
    48  Li    c      1.9603 *    -6.8612 *     0.9802 *  0.0000     4          
    49  Li    c      5.8810 *    -2.9405 *    -2.9405    0.0000     2          
    50  Cl    c      1.9603 *    -4.9008 *    -4.9008    0.0000     2          
    51  Li    c      1.9603 *     4.9008 *     4.9008    0.0000     2          
    52  O     c      0.0000      -2.9405 *    -6.8612 *  0.0000     2          
    53  Li    c      0.0000      -2.9405 *     6.8612 *  0.0000     2          
    54  Li    c      0.0000      -6.8612 *     2.9405 *  0.0000     2          
    55  Cl    c      1.9603 *     2.9405 *     6.8612 *  0.0000     4          
    56  Cl    c      5.8810 *    -0.9802 *    -4.9008 *  0.0000     4          
    57  Li    c      1.9603 *    -2.9405 *    -6.8612 *  0.0000     4          
    58  Li    c      5.8810 *     0.9802 *     4.9008 *  0.0000     4          
    59  O     c     -7.8414 *     0.9802 *     0.9802    0.0000     2          
    60  Li    c     -7.8414 *     0.9802 *    -0.9802 *  0.0000     4          
    61  O     c      3.9207 *     4.9008 *     4.9008    0.0000     2          
    62  O     c     -3.9207 *     0.9802 *    -6.8612 *  0.0000     4          
    63  Li    c      3.9207 *     4.9008 *    -4.9008 *  0.0000     4          
    64  Li    c     -3.9207 *     0.9802 *     6.8612 *  0.0000     4          
    65  Li    c     -3.9207 *    -6.8612 *    -0.9802 *  0.0000     4          
    66  Cl    c      5.8810 *     2.9405 *    -4.9008 *  0.0000     4          
    67  Li    c      5.8810 *     4.9008 *    -2.9405 *  0.0000     4          
    68  O     c      0.0000      -6.8612 *     4.9008 *  0.0000     2          
    69  O     c     -3.9207 *    -2.9405 *    -6.8612 *  0.0000     4          
    70  O     c     -7.8414 *     0.9802 *    -2.9405 *  0.0000     4          
    71  Li    c      0.0000      -6.8612 *    -4.9008 *  0.0000     2          
    72  Li    c     -3.9207 *    -2.9405 *     6.8612 *  0.0000     4          
    73  Li    c     -3.9207 *    -6.8612 *     2.9405 *  0.0000     4          
    74  Li    c     -7.8414 *     0.9802 *     2.9405 *  0.0000     4          
    75  Li    c     -7.8414 *    -2.9405 *    -0.9802 *  0.0000     4          
    76  Li    c      0.0000       6.8612 *     4.9008 *  0.0000     2          
    77  Cl    c      1.9603 *     6.8612 *    -4.9008 *  0.0000     4          
    78  Li    c      1.9603 *     4.9008 *    -6.8612 *  0.0000     4          
    79  O     c      0.0000       0.9802 *     8.8215 *  0.0000     2          
    80  Li    c      0.0000       0.9802 *    -8.8215 *  0.0000     2          
    81  Li    c      0.0000      -0.9802 *     8.8215 *  0.0000     2          
    82  O     c      7.8414 *    -2.9405 *    -2.9405    0.0000     2          
    83  Li    c      7.8414 *    -2.9405 *     2.9405 *  0.0000     4          
    84  Cl    c      5.8810 *    -0.9802 *     6.8612 *  0.0000     4          
    85  Li    c      5.8810 *     0.9802 *    -6.8612 *  0.0000     4          
    86  Cl    c      1.9603 *    -0.9802 *    -8.8215 *  0.0000     4          
    87  Cl    c      5.8810 *    -4.9008 *    -4.9008    0.0000     2          
    88  Li    c      1.9603 *     0.9802 *     8.8215 *  0.0000     4          
    89  Li    c      5.8810 *     4.9008 *     4.9008    0.0000     2          
    90  O     c      0.0000      -2.9405 *     8.8215 *  0.0000     2          
    91  O     c     -7.8414 *     0.9802 *     4.9008 *  0.0000     4          
    92  Li    c      0.0000      -2.9405 *    -8.8215 *  0.0000     2          
    93  Li    c     -7.8414 *     0.9802 *    -4.9008 *  0.0000     4          
    94  Li    c      0.0000       2.9405 *     8.8215 *  0.0000     2          
    95  Li    c     -7.8414 *    -0.9802 *     4.9008 *  0.0000     4          
    96  O     c      3.9207 *    -6.8612 *     4.9008 *  0.0000     4          
    97  Li    c      3.9207 *    -6.8612 *    -4.9008 *  0.0000     4          
    98  Li    c      3.9207 *     6.8612 *     4.9008 *  0.0000     4          
    99  Cl    c      1.9603 *     2.9405 *    -8.8215 *  0.0000     4          
   100  Cl    c      5.8810 *     2.9405 *     6.8612 *  0.0000     4          
   101  Li    c      1.9603 *     8.8215 *    -2.9405 *  0.0000     4          
   102  Li    c      5.8810 *    -2.9405 *    -6.8612 *  0.0000     4          
   103  O     c      3.9207 *     0.9802 *     8.8215 *  0.0000     4          
   104  Li    c      3.9207 *     0.9802 *    -8.8215 *  0.0000     4          
   105  Li    c      3.9207 *    -0.9802 *     8.8215 *  0.0000     4          
   106  O     c     -7.8414 *     4.9008 *    -2.9405 *  0.0000     4          
   107  Li    c     -7.8414 *     4.9008 *     2.9405 *  0.0000     4          
   108  Li    c     -7.8414 *    -2.9405 *    -4.9008 *  0.0000     4          
   109  O     c      0.0000      -6.8612 *    -6.8612    0.0000     1          
   110  Li    c      0.0000      -6.8612 *     6.8612 *  0.0000     2          
   111  Cl    c      1.9603 *     6.8612 *     6.8612    0.0000     2          
   112  Cl    c      9.8017 *    -0.9802 *    -0.9802    0.0000     2          
   113  Li    c      1.9603 *    -6.8612 *    -6.8612    0.0000     2          
   114  Li    c      9.8017 *     0.9802 *     0.9802    0.0000     2          
   115  O     c      0.0000       4.9008 *     8.8215 *  0.0000     2          
   116  O     c      3.9207 *    -2.9405 *     8.8215 *  0.0000     4          
   117  Li    c      0.0000       4.9008 *    -8.8215 *  0.0000     2          
   118  Li    c      3.9207 *    -2.9405 *    -8.8215 *  0.0000     4          
   119  Li    c      0.0000      -4.9008 *     8.8215 *  0.0000     2          
   120  Li    c      3.9207 *     2.9405 *     8.8215 *  0.0000     4          
   121  Cl    c      1.9603 *    -4.9008 *    -8.8215 *  0.0000     4          
   122  Cl    c      5.8810 *    -4.9008 *     6.8612 *  0.0000     4          
   123  Cl    c      9.8017 *     2.9405 *    -0.9802 *  0.0000     4          
   124  Li    c      1.9603 *     4.9008 *     8.8215 *  0.0000     4          
   125  Li    c      5.8810 *     4.9008 *    -6.8612 *  0.0000     4          
   126  Li    c      9.8017 *    -2.9405 *     0.9802 *  0.0000     4          
   127  O     c     -7.8414 *     0.9802 *    -6.8612 *  0.0000     4          
   128  O     c     -7.8414 *     4.9008 *     4.9008    0.0000     2          
   129  Li    c     -7.8414 *     0.9802 *     6.8612 *  0.0000     4          
   130  Li    c     -7.8414 *     4.9008 *    -4.9008 *  0.0000     4          
   131  Li    c     -7.8414 *    -6.8612 *    -0.9802 *  0.0000     4          
   132  O     c      3.9207 *    -6.8612 *    -6.8612    0.0000     2          
   133  Li    c      3.9207 *    -6.8612 *     6.8612 *  0.0000     4          
   134  Cl    c      5.8810 *    -0.9802 *    -8.8215 *  0.0000     4          
   135  Cl    c      9.8017 *     2.9405 *     2.9405    0.0000     2          
   136  Li    c      5.8810 *     0.9802 *     8.8215 *  0.0000     4          
   137  Li    c      9.8017 *    -2.9405 *    -2.9405    0.0000     2          
   138  O     c     -3.9207 *     4.9008 *     8.8215 *  0.0000     4          
   139  Li    c     -3.9207 *     4.9008 *    -8.8215 *  0.0000     4          
   140  Li    c     -3.9207 *    -4.9008 *     8.8215 *  0.0000     4          
   141  O     c     -7.8414 *    -2.9405 *    -6.8612 *  0.0000     4          
   142  Li    c     -7.8414 *    -2.9405 *     6.8612 *  0.0000     4          
   143  Li    c     -7.8414 *    -6.8612 *     2.9405 *  0.0000     4          
   144  O     c      0.0000       0.9802 *   -10.7819 *  0.0000     2          
   145  Li    c      0.0000       0.9802 *    10.7819 *  0.0000     2          
   146  Li    c      0.0000     -10.7819 *    -0.9802 *  0.0000     2          
   147  Cl    c      1.9603 *    -0.9802 *    10.7819 *  0.0000     4          
   148  Cl    c      5.8810 *     2.9405 *    -8.8215 *  0.0000     4          
   149  Cl    c      9.8017 *    -0.9802 *    -4.9008 *  0.0000     4          
   150  Li    c      1.9603 *     0.9802 *   -10.7819 *  0.0000     4          
   151  Li    c      5.8810 *     8.8215 *    -2.9405 *  0.0000     4          
   152  Li    c      9.8017 *     0.9802 *     4.9008 *  0.0000     4          
   153  O     c      0.0000      -6.8612 *     8.8215 *  0.0000     2          
   154  Li    c      0.0000      -6.8612 *    -8.8215 *  0.0000     2          
   155  Li    c      0.0000       6.8612 *     8.8215 *  0.0000     2          
   156  O     c      0.0000      -2.9405 *   -10.7819 *  0.0000     2          
   157  Li    c      0.0000      -2.9405 *    10.7819 *  0.0000     2          
   158  Li    c      0.0000     -10.7819 *     2.9405 *  0.0000     2          
   159  Cl    c      1.9603 *     6.8612 *    -8.8215 *  0.0000     4          
   160  Li    c      1.9603 *    -6.8612 *     8.8215 *  0.0000     4          
   161  Cl    c      1.9603 *     2.9405 *    10.7819 *  0.0000     4          
   162  Cl    c      5.8810 *     6.8612 *     6.8612    0.0000     2          
   163  Cl    c      9.8017 *     2.9405 *    -4.9008 *  0.0000     4          
   164  Li    c      1.9603 *    -2.9405 *   -10.7819 *  0.0000     4          
   165  Li    c      5.8810 *    -6.8612 *    -6.8612    0.0000     2          
   166  Li    c      9.8017 *     4.9008 *    -2.9405 *  0.0000     4          
   167  O     c     -7.8414 *    -6.8612 *     4.9008 *  0.0000     4          
   168  Li    c     -7.8414 *    -6.8612 *    -4.9008 *  0.0000     4          
   169  Li    c     -7.8414 *     6.8612 *     4.9008 *  0.0000     4          
   170  O     c      3.9207 *     0.9802 *   -10.7819 *  0.0000     4          
   171  Li    c      3.9207 *     0.9802 *    10.7819 *  0.0000     4          
   172  Li    c      3.9207 *   -10.7819 *    -0.9802 *  0.0000     4          
   173  Cl    c      5.8810 *    -4.9008 *    -8.8215 *  0.0000     4          
   174  Li    c      5.8810 *     4.9008 *     8.8215 *  0.0000     4          
   175  O     c     -3.9207 *    -6.8612 *     8.8215 *  0.0000     4          
   176  O     c     -7.8414 *     0.9802 *     8.8215 *  0.0000     4          
   177  Li    c     -3.9207 *    -6.8612 *    -8.8215 *  0.0000     4          
   178  Li    c     -7.8414 *     0.9802 *    -8.8215 *  0.0000     4          
   179  Li    c     -3.9207 *     6.8612 *     8.8215 *  0.0000     4          
   180  Li    c     -7.8414 *    -0.9802 *     8.8215 *  0.0000     4          
   181  O     c      0.0000     -10.7819 *     4.9008 *  0.0000     2          
   182  O     c      3.9207 *   -10.7819 *    -2.9405 *  0.0000     4          
   183  Li    c      0.0000     -10.7819 *    -4.9008 *  0.0000     2          
   184  Li    c      3.9207 *   -10.7819 *     2.9405 *  0.0000     4          
   185  Li    c      0.0000      10.7819 *     4.9008 *  0.0000     2          
   186  Li    c      3.9207 *    10.7819 *    -2.9405 *  0.0000     4          
   187  O     c     11.7620 *     0.9802 *     0.9802    0.0000     2          
   188  Li    c     11.7620 *     0.9802 *    -0.9802 *  0.0000     4          
   189  Cl    c      1.9603 *    10.7819 *    -4.9008 *  0.0000     4          
   190  Cl    c      9.8017 *    -0.9802 *     6.8612 *  0.0000     4          
   191  Li    c      1.9603 *     4.9008 *   -10.7819 *  0.0000     4          
   192  Li    c      9.8017 *     0.9802 *    -6.8612 *  0.0000     4          
   193  Cl    c      9.8017 *    -4.9008 *    -4.9008    0.0000     2          
   194  Li    c      9.8017 *     4.9008 *     4.9008    0.0000     2          
   195  O     c     -7.8414 *    -2.9405 *     8.8215 *  0.0000     4          
   196  Li    c     -7.8414 *    -2.9405 *    -8.8215 *  0.0000     4          
   197  Li    c     -7.8414 *     2.9405 *     8.8215 *  0.0000     4          
   198  O     c     11.7620 *     0.9802 *    -2.9405 *  0.0000     4          
   199  Li    c     11.7620 *     0.9802 *     2.9405 *  0.0000     4          
   200  Li    c     11.7620 *    -2.9405 *    -0.9802 *  0.0000     4          
   201  Cl    c      5.8810 *    -0.9802 *    10.7819 *  0.0000     4          
   202  Li    c      5.8810 *     0.9802 *   -10.7819 *  0.0000     4          
   203  Cl    c      9.8017 *     2.9405 *     6.8612 *  0.0000     4          
   204  Li    c      9.8017 *    -2.9405 *    -6.8612 *  0.0000     4          
   205  O     c      0.0000       8.8215 *     8.8215    0.0000     1          
   206  O     c      3.9207 *   -10.7819 *     4.9008 *  0.0000     4          
   207  O     c     11.7620 *    -2.9405 *    -2.9405    0.0000     2          
   208  Li    c      0.0000       8.8215 *    -8.8215 *  0.0000     2          
   209  Li    c      3.9207 *   -10.7819 *    -4.9008 *  0.0000     4          
   210  Li    c     11.7620 *    -2.9405 *     2.9405 *  0.0000     4          
   211  Li    c      3.9207 *    10.7819 *     4.9008 *  0.0000     4          
   212  O     c      7.8414 *    -6.8612 *    -6.8612    0.0000     2          
   213  Li    c      7.8414 *    -6.8612 *     6.8612 *  0.0000     4          
   214  Cl    c      5.8810 *     2.9405 *    10.7819 *  0.0000     4          
   215  Cl    c      5.8810 *    -8.8215 *     6.8612 *  0.0000     4          
   216  Li    c      5.8810 *     8.8215 *    -6.8612 *  0.0000     4          
   217  Li    c      5.8810 *    -2.9405 *   -10.7819 *  0.0000     4          
   218  Cl    c      1.9603 *    -8.8215 *    -8.8215    0.0000     2          
   219  Li    c      1.9603 *     8.8215 *     8.8215    0.0000     2          
   220  O     c      0.0000       0.9802 *    12.7422 *  0.0000     2          
   221  O     c     -7.8414 *     4.9008 *     8.8215 *  0.0000     4          
   222  Li    c      0.0000       0.9802 *   -12.7422 *  0.0000     2          
   223  Li    c     -7.8414 *     4.9008 *    -8.8215 *  0.0000     4          
   224  Li    c      0.0000      -0.9802 *    12.7422 *  0.0000     2          
   225  Li    c     -7.8414 *    -4.9008 *     8.8215 *  0.0000     4          
   226  O     c     11.7620 *     0.9802 *     4.9008 *  0.0000     4          
   227  Li    c     11.7620 *     0.9802 *    -4.9008 *  0.0000     4          
   228  Li    c     11.7620 *    -0.9802 *     4.9008 *  0.0000     4          
   229  O     c      0.0000      -6.8612 *   -10.7819 *  0.0000     2          
   230  Li    c      0.0000      -6.8612 *    10.7819 *  0.0000     2          
   231  Li    c      0.0000     -10.7819 *     6.8612 *  0.0000     2          
   232  Cl    c      1.9603 *    -0.9802 *   -12.7422 *  0.0000     4          
   233  Cl    c      1.9603 *     6.8612 *    10.7819 *  0.0000     4          
   234  Li    c      1.9603 *     0.9802 *    12.7422 *  0.0000     4          
   235  Li    c      1.9603 *    -6.8612 *   -10.7819 *  0.0000     4          
   236  Cl    c      9.8017 *     6.8612 *    -4.9008 *  0.0000     4          
   237  Li    c      9.8017 *     4.9008 *    -6.8612 *  0.0000     4          
   238  O     c      0.0000      -2.9405 *    12.7422 *  0.0000     2          
   239  Li    c      0.0000      -2.9405 *   -12.7422 *  0.0000     2          
   240  Li    c      0.0000       2.9405 *    12.7422 *  0.0000     2          
   241  O     c     11.7620 *    -2.9405 *     4.9008 *  0.0000     4          
   242  Li    c     11.7620 *    -2.9405 *    -4.9008 *  0.0000     4          
   243  Li    c     11.7620 *     2.9405 *     4.9008 *  0.0000     4          
   244  O     c      3.9207 *     8.8215 *     8.8215    0.0000     2          
   245  Li    c      3.9207 *     8.8215 *    -8.8215 *  0.0000     4          
   246  Cl    c      1.9603 *   -12.7422 *     2.9405 *  0.0000     4          
   247  Li    c      1.9603 *    12.7422 *    -2.9405 *  0.0000     4          
   248  Cl    c      5.8810 *    10.7819 *    -4.9008 *  0.0000     4          
   249  Cl    c      9.8017 *    -0.9802 *    -8.8215 *  0.0000     4          
   250  Li    c      5.8810 *     4.9008 *   -10.7819 *  0.0000     4          
   251  Li    c      9.8017 *     0.9802 *     8.8215 *  0.0000     4          
   252  O     c      3.9207 *     0.9802 *    12.7422 *  0.0000     4          
   253  Li    c      3.9207 *     0.9802 *   -12.7422 *  0.0000     4          
   254  Li    c      3.9207 *    -0.9802 *    12.7422 *  0.0000     4          
   255  O     c      3.9207 *    -6.8612 *   -10.7819 *  0.0000     4          
   256  O     c      7.8414 *     0.9802 *   -10.7819 *  0.0000     4          
   257  Li    c      3.9207 *    -6.8612 *    10.7819 *  0.0000     4          
   258  Li    c      3.9207 *   -10.7819 *     6.8612 *  0.0000     4          
   259  Li    c      7.8414 *     0.9802 *    10.7819 *  0.0000     4          
   260  Li    c     -7.8414 *   -10.7819 *    -0.9802 *  0.0000     4          
   261  Cl    c      9.8017 *    -8.8215 *     2.9405 *  0.0000     4          
   262  Li    c      9.8017 *     8.8215 *    -2.9405 *  0.0000     4          
   263  O     c      0.0000       4.9008 *    12.7422 *  0.0000     2          
   264  O     c      3.9207 *    -2.9405 *    12.7422 *  0.0000     4          
   265  O     c     -7.8414 *    -6.8612 *     8.8215 *  0.0000     4          
   266  Li    c      0.0000       4.9008 *   -12.7422 *  0.0000     2          
   267  Li    c      3.9207 *    -2.9405 *   -12.7422 *  0.0000     4          
   268  Li    c     -7.8414 *    -6.8612 *    -8.8215 *  0.0000     4          
   269  Li    c      0.0000      -4.9008 *    12.7422 *  0.0000     2          
   270  Li    c      3.9207 *     2.9405 *    12.7422 *  0.0000     4          
   271  Li    c     -7.8414 *     6.8612 *     8.8215 *  0.0000     4          
   272  O     c     11.7620 *     4.9008 *     4.9008    0.0000     2          
   273  O     c     -7.8414 *   -10.7819 *    -2.9405 *  0.0000     4          
   274  Li    c     11.7620 *     4.9008 *    -4.9008 *  0.0000     4          
   275  Li    c     -7.8414 *   -10.7819 *     2.9405 *  0.0000     4          
   276  Li    c     -7.8414 *    10.7819 *    -2.9405 *  0.0000     4          
   277  O     c     11.7620 *     0.9802 *    -6.8612 *  0.0000     4          
   278  Li    c     11.7620 *     0.9802 *     6.8612 *  0.0000     4          
   279  Li    c     11.7620 *    -6.8612 *    -0.9802 *  0.0000     4          
   280  Cl    c      1.9603 *    -4.9008 *   -12.7422 *  0.0000     4          
   281  Cl    c      5.8810 *    -8.8215 *    -8.8215    0.0000     2          
   282  Li    c      1.9603 *     4.9008 *    12.7422 *  0.0000     4          
   283  Li    c      5.8810 *     8.8215 *     8.8215    0.0000     2          
   284  Cl    c      9.8017 *     6.8612 *     6.8612    0.0000     2          
   285  Cl    c     13.7224 *    -0.9802 *    -0.9802    0.0000     2          
   286  Li    c      9.8017 *    -6.8612 *    -6.8612    0.0000     2          
   287  Li    c     13.7224 *     0.9802 *     0.9802    0.0000     2          
   288  O     c      0.0000       8.8215 *   -10.7819 *  0.0000     2          
   289  O     c     11.7620 *    -2.9405 *    -6.8612 *  0.0000     4          
   290  Li    c      0.0000       8.8215 *    10.7819 *  0.0000     2          
   291  Li    c      0.0000     -10.7819 *    -8.8215 *  0.0000     2          
   292  Li    c     11.7620 *    -2.9405 *     6.8612 *  0.0000     4          
   293  Li    c     11.7620 *    -6.8612 *     2.9405 *  0.0000     4          
   294  Cl    c      5.8810 *    -0.9802 *   -12.7422 *  0.0000     4          
   295  Li    c      5.8810 *     0.9802 *    12.7422 *  0.0000     4          
   296  Cl    c      1.9603 *    10.7819 *    -8.8215 *  0.0000     4          
   297  Cl    c      5.8810 *     6.8612 *    10.7819 *  0.0000     4          
   298  Cl    c      9.8017 *    -8.8215 *    -4.9008 *  0.0000     4          
   299  Cl    c     13.7224 *    -0.9802 *     2.9405 *  0.0000     4          
   300  Li    c      1.9603 *     8.8215 *   -10.7819 *  0.0000     4          
   301  Li    c      5.8810 *    -6.8612 *   -10.7819 *  0.0000     4          
   302  Li    c      9.8017 *     8.8215 *     4.9008 *  0.0000     4          
   303  Li    c     13.7224 *     0.9802 *    -2.9405 *  0.0000     4          
   304  O     c      3.9207 *     4.9008 *    12.7422 *  0.0000     4          
   305  Li    c      3.9207 *     4.9008 *   -12.7422 *  0.0000     4          
   306  Li    c      3.9207 *    -4.9008 *    12.7422 *  0.0000     4          
   307  O     c     -7.8414 *   -10.7819 *     4.9008 *  0.0000     4          
   308  Li    c     -7.8414 *   -10.7819 *    -4.9008 *  0.0000     4          
   309  Li    c     -7.8414 *    10.7819 *     4.9008 *  0.0000     4          
   310  Cl    c      5.8810 *     2.9405 *   -12.7422 *  0.0000     4          
   311  Cl    c     13.7224 *     2.9405 *     2.9405    0.0000     2          
   312  Li    c      5.8810 *    12.7422 *    -2.9405 *  0.0000     4          
   313  Li    c     13.7224 *    -2.9405 *    -2.9405    0.0000     2          
   314  O     c      0.0000      -6.8612 *    12.7422 *  0.0000     2          
   315  O     c      3.9207 *   -10.7819 *     8.8215 *  0.0000     4          
   316  Li    c      0.0000      -6.8612 *   -12.7422 *  0.0000     2          
   317  Li    c      3.9207 *   -10.7819 *    -8.8215 *  0.0000     4          
   318  Li    c      0.0000       6.8612 *    12.7422 *  0.0000     2          
   319  Li    c      3.9207 *    10.7819 *     8.8215 *  0.0000     4          
   320  O     c     11.7620 *    -6.8612 *     4.9008 *  0.0000     4          
   321  Li    c     11.7620 *    -6.8612 *    -4.9008 *  0.0000     4          
   322  Li    c     11.7620 *     6.8612 *     4.9008 *  0.0000     4          
   323  Cl    c      1.9603 *     6.8612 *   -12.7422 *  0.0000     4          
   324  Cl    c      9.8017 *    -0.9802 *    10.7819 *  0.0000     4          
   325  Li    c      1.9603 *    12.7422 *    -6.8612 *  0.0000     4          
   326  Li    c      9.8017 *     0.9802 *   -10.7819 *  0.0000     4          
   327  Cl    c     13.7224 *    -0.9802 *    -4.9008 *  0.0000     4          
   328  Li    c     13.7224 *     0.9802 *     4.9008 *  0.0000     4          
   329  O     c      0.0000       0.9802 *   -14.7025 *  0.0000     2          
   330  O     c      7.8414 *     8.8215 *     8.8215    0.0000     2          
   331  O     c     11.7620 *     0.9802 *     8.8215 *  0.0000     4          
   332  Li    c      0.0000       0.9802 *    14.7025 *  0.0000     2          
   333  Li    c      0.0000     -14.7025 *    -0.9802 *  0.0000     2          
   334  Li    c      7.8414 *     8.8215 *    -8.8215 *  0.0000     4          
   335  Li    c     11.7620 *     0.9802 *    -8.8215 *  0.0000     4          
   336  Li    c     11.7620 *    -0.9802 *     8.8215 *  0.0000     4          
   337  Cl    c      1.9603 *    -0.9802 *    14.7025 *  0.0000     4          
   338  Li    c      1.9603 *     0.9802 *   -14.7025 *  0.0000     4          
   339  Cl    c      5.8810 *    -4.9008 *   -12.7422 *  0.0000     4          
   340  Cl    c      9.8017 *     2.9405 *    10.7819 *  0.0000     4          
   341  Cl    c      9.8017 *    -8.8215 *     6.8612 *  0.0000     4          
   342  Cl    c     13.7224 *     2.9405 *    -4.9008 *  0.0000     4          
   343  Li    c      5.8810 *     4.9008 *    12.7422 *  0.0000     4          
   344  Li    c      9.8017 *     8.8215 *    -6.8612 *  0.0000     4          
   345  Li    c      9.8017 *    -2.9405 *   -10.7819 *  0.0000     4          
   346  Li    c     13.7224 *     4.9008 *    -2.9405 *  0.0000     4          
   347  O     c      3.9207 *    -6.8612 *    12.7422 *  0.0000     4          
   348  O     c      7.8414 *     0.9802 *    12.7422 *  0.0000     4          
   349  Li    c      3.9207 *    -6.8612 *   -12.7422 *  0.0000     4          
   350  Li    c      7.8414 *     0.9802 *   -12.7422 *  0.0000     4          
   351  Li    c      3.9207 *     6.8612 *    12.7422 *  0.0000     4          
   352  Li    c      7.8414 *    -0.9802 *    12.7422 *  0.0000     4          
   353  O     c      0.0000      -2.9405 *   -14.7025 *  0.0000     2          
   354  O     c     11.7620 *    -2.9405 *     8.8215 *  0.0000     4          
   355  Li    c      0.0000      -2.9405 *    14.7025 *  0.0000     2          
   356  Li    c      0.0000     -14.7025 *     2.9405 *  0.0000     2          
   357  Li    c     11.7620 *    -2.9405 *    -8.8215 *  0.0000     4          
   358  Li    c     11.7620 *     2.9405 *     8.8215 *  0.0000     4          
   359  O     c     -7.8414 *    -6.8612 *   -10.7819 *  0.0000     4          
   360  Li    c     -7.8414 *    -6.8612 *    10.7819 *  0.0000     4          
   361  Li    c     -7.8414 *   -10.7819 *     6.8612 *  0.0000     4          
   362  Cl    c      1.9603 *    14.7025 *     2.9405 *  0.0000     4          
   363  Li    c      1.9603 *   -14.7025 *    -2.9405 *  0.0000     4          
   364  Cl    c      5.8810 *    10.7819 *    -8.8215 *  0.0000     4          
   365  Li    c      5.8810 *     8.8215 *   -10.7819 *  0.0000     4          
   366  O     c      7.8414 *    -2.9405 *    12.7422 *  0.0000     4          
   367  Li    c      7.8414 *    -2.9405 *   -12.7422 *  0.0000     4          
   368  Li    c      7.8414 *     2.9405 *    12.7422 *  0.0000     4          
   369  O     c      3.9207 *     0.9802 *   -14.7025 *  0.0000     4          
   370  Li    c      3.9207 *     0.9802 *    14.7025 *  0.0000     4          
   371  Li    c      3.9207 *   -14.7025 *    -0.9802 *  0.0000     4          
   372  O     c      0.0000     -10.7819 *   -10.7819    0.0000     1          
   373  O     c     11.7620 *    -6.8612 *    -6.8612    0.0000     2          
   374  Li    c      0.0000     -10.7819 *    10.7819 *  0.0000     2          
   375  Li    c     11.7620 *    -6.8612 *     6.8612 *  0.0000     4          
   376  Cl    c      1.9603 *    10.7819 *    10.7819    0.0000     2          
   377  Li    c      1.9603 *   -10.7819 *   -10.7819    0.0000     2          
   378  Cl    c      9.8017 *    10.7819 *    -4.9008 *  0.0000     4          
   379  Cl    c     13.7224 *    -0.9802 *     6.8612 *  0.0000     4          
   380  Cl    c     13.7224 *    -4.9008 *    -4.9008    0.0000     2          
   381  Li    c      9.8017 *     4.9008 *   -10.7819 *  0.0000     4          
   382  Li    c     13.7224 *     0.9802 *    -6.8612 *  0.0000     4          
   383  Li    c     13.7224 *     4.9008 *     4.9008    0.0000     2          
   384  O     c      0.0000       8.8215 *    12.7422 *  0.0000     2          
   385  Li    c      0.0000       8.8215 *   -12.7422 *  0.0000     2          
   386  Li    c      0.0000      -8.8215 *    12.7422 *  0.0000     2          
   387  O     c      0.0000     -14.7025 *     4.9008 *  0.0000     2          
   388  O     c      3.9207 *   -14.7025 *    -2.9405 *  0.0000     4          
   389  Li    c      0.0000     -14.7025 *    -4.9008 *  0.0000     2          
   390  Li    c      3.9207 *   -14.7025 *     2.9405 *  0.0000     4          
   391  Li    c      0.0000      14.7025 *     4.9008 *  0.0000     2          
   392  Li    c      3.9207 *    14.7025 *    -2.9405 *  0.0000     4          
   393  O     c     11.7620 *     4.9008 *     8.8215 *  0.0000     4          
   394  Li    c     11.7620 *     4.9008 *    -8.8215 *  0.0000     4          
   395  Li    c     11.7620 *     8.8215 *    -4.9008 *  0.0000     4          
   396  Cl    c      1.9603 *    14.7025 *    -4.9008 *  0.0000     4          
   397  Cl    c      1.9603 *   -12.7422 *    -8.8215 *  0.0000     4          
   398  Li    c      1.9603 *     4.9008 *   -14.7025 *  0.0000     4          
   399  Li    c      1.9603 *    12.7422 *     8.8215 *  0.0000     4          
   400  Cl    c      5.8810 *     6.8612 *   -12.7422 *  0.0000     4          
   401  Cl    c     13.7224 *     2.9405 *     6.8612 *  0.0000     4          
   402  Li    c      5.8810 *    12.7422 *    -6.8612 *  0.0000     4          
   403  Li    c     13.7224 *    -2.9405 *    -6.8612 *  0.0000     4          
   404  O     c     -7.8414 *     4.9008 *    12.7422 *  0.0000     4          
   405  Li    c     -7.8414 *     4.9008 *   -12.7422 *  0.0000     4          
   406  Li    c     -7.8414 *    -4.9008 *    12.7422 *  0.0000     4          
   407  O     c      3.9207 *   -10.7819 *   -10.7819    0.0000     2          
   408  O     c    -15.6827 *     0.9802 *     0.9802    0.0000     2          
   409  Li    c      3.9207 *   -10.7819 *    10.7819 *  0.0000     4          
   410  Li    c    -15.6827 *     0.9802 *    -0.9802 *  0.0000     4          
   411  Cl    c      5.8810 *    -0.9802 *    14.7025 *  0.0000     4          
   412  Li    c      5.8810 *     0.9802 *   -14.7025 *  0.0000     4          
   413  Cl    c      9.8017 *    -8.8215 *    -8.8215    0.0000     2          
   414  Li    c      9.8017 *     8.8215 *     8.8215    0.0000     2          
   415  O     c      3.9207 *     8.8215 *    12.7422 *  0.0000     4          
   416  O     c      3.9207 *   -14.7025 *     4.9008 *  0.0000     4          
   417  O     c     -7.8414 *   -10.7819 *     8.8215 *  0.0000     4          
   418  Li    c      3.9207 *     8.8215 *   -12.7422 *  0.0000     4          
   419  Li    c      3.9207 *    12.7422 *    -8.8215 *  0.0000     4          
   420  Li    c      3.9207 *   -14.7025 *    -4.9008 *  0.0000     4          
   421  Li    c     -7.8414 *   -10.7819 *    -8.8215 *  0.0000     4          
   422  Li    c      3.9207 *    14.7025 *     4.9008 *  0.0000     4          
   423  Li    c     -7.8414 *    10.7819 *     8.8215 *  0.0000     4          
   424  O     c    -15.6827 *     0.9802 *    -2.9405 *  0.0000     4          
   425  Li    c    -15.6827 *     0.9802 *     2.9405 *  0.0000     4          
   426  Li    c    -15.6827 *    -2.9405 *    -0.9802 *  0.0000     4          
   427  O     c     11.7620 *     0.9802 *   -10.7819 *  0.0000     4          
   428  Li    c     11.7620 *     0.9802 *    10.7819 *  0.0000     4          
   429  Li    c     11.7620 *   -10.7819 *    -0.9802 *  0.0000     4          
   430  Cl    c      5.8810 *     2.9405 *    14.7025 *  0.0000     4          
   431  Cl    c      9.8017 *    -0.9802 *   -12.7422 *  0.0000     4          
   432  Cl    c      9.8017 *    10.7819 *     6.8612 *  0.0000     4          
   433  Cl    c     13.7224 *     6.8612 *    -4.9008 *  0.0000     4          
   434  Li    c      5.8810 *    -2.9405 *   -14.7025 *  0.0000     4          
   435  Li    c      9.8017 *     0.9802 *    12.7422 *  0.0000     4          
   436  Li    c      9.8017 *   -10.7819 *    -6.8612 *  0.0000     4          
   437  Li    c     13.7224 *     4.9008 *    -6.8612 *  0.0000     4          
   438  O     c      0.0000      -6.8612 *   -14.7025 *  0.0000     2          
   439  O     c     11.7620 *     8.8215 *    -6.8612 *  0.0000     4          
   440  O     c     11.7620 *    -2.9405 *   -10.7819 *  0.0000     4          
   441  O     c    -15.6827 *    -2.9405 *    -2.9405    0.0000     2          
   442  Li    c      0.0000      -6.8612 *    14.7025 *  0.0000     2          
   443  Li    c      0.0000     -14.7025 *     6.8612 *  0.0000     2          
   444  Li    c     11.7620 *     8.8215 *     6.8612 *  0.0000     4          
   445  Li    c     11.7620 *    -2.9405 *    10.7819 *  0.0000     4          
   446  Li    c     11.7620 *    -6.8612 *    -8.8215 *  0.0000     4          
   447  Li    c     11.7620 *   -10.7819 *     2.9405 *  0.0000     4          
   448  Li    c    -15.6827 *    -2.9405 *     2.9405 *  0.0000     4          
   449  Cl    c      1.9603 *     6.8612 *    14.7025 *  0.0000     4          
   450  Cl    c     13.7224 *    -8.8215 *    -0.9802 *  0.0000     4          
   451  Li    c      1.9603 *    -6.8612 *   -14.7025 *  0.0000     4          
   452  Li    c     13.7224 *     8.8215 *     0.9802 *  0.0000     4          
   453  Cl    c      5.8810 *    10.7819 *    10.7819    0.0000     2          
   454  Cl    c      9.8017 *     2.9405 *   -12.7422 *  0.0000     4          
   455  Li    c      5.8810 *   -10.7819 *   -10.7819    0.0000     2          
   456  Li    c      9.8017 *    12.7422 *    -2.9405 *  0.0000     4          
   457  O     c      7.8414 *    -6.8612 *    12.7422 *  0.0000     4          
   458  O     c    -15.6827 *     0.9802 *     4.9008 *  0.0000     4          
   459  Li    c      7.8414 *    -6.8612 *   -12.7422 *  0.0000     4          
   460  Li    c     -7.8414 *    12.7422 *     6.8612 *  0.0000     4          
   461  Li    c    -15.6827 *     0.9802 *    -4.9008 *  0.0000     4          
   462  Li    c    -15.6827 *     4.9008 *    -0.9802 *  0.0000     4          
   463  Cl    c      5.8810 *    14.7025 *    -4.9008 *  0.0000     4          
   464  Li    c      5.8810 *     4.9008 *   -14.7025 *  0.0000     4          
   465  Cl    c      5.8810 *    -8.8215 *   -12.7422 *  0.0000     4          
   466  Cl    c     13.7224 *     2.9405 *    -8.8215 *  0.0000     4          
   467  Li    c      5.8810 *     8.8215 *    12.7422 *  0.0000     4          
   468  Li    c     13.7224 *     8.8215 *    -2.9405 *  0.0000     4          
   469  O     c      0.0000       0.9802 *    16.6629 *  0.0000     2          
   470  Li    c      0.0000       0.9802 *   -16.6629 *  0.0000     2          
   471  Li    c      0.0000      -0.9802 *    16.6629 *  0.0000     2          
   472  O     c      0.0000     -10.7819 *    12.7422 *  0.0000     2          
   473  O     c      3.9207 *   -14.7025 *    -6.8612 *  0.0000     4          
   474  O     c      7.8414 *   -14.7025 *     0.9802 *  0.0000     4          
   475  O     c    -15.6827 *    -2.9405 *     4.9008 *  0.0000     4          
   476  Li    c      0.0000     -10.7819 *   -12.7422 *  0.0000     2          
   477  Li    c      3.9207 *   -14.7025 *     6.8612 *  0.0000     4          
   478  Li    c      7.8414 *   -14.7025 *    -0.9802 *  0.0000     4          
   479  Li    c     -3.9207 *    -6.8612 *    14.7025 *  0.0000     4          
   480  Li    c     -7.8414 *     0.9802 *    14.7025 *  0.0000     4          
   481  Li    c    -15.6827 *    -2.9405 *    -4.9008 *  0.0000     4          
   482  Li    c      0.0000      10.7819 *    12.7422 *  0.0000     2          
   483  Li    c    -15.6827 *     2.9405 *     4.9008 *  0.0000     4          
   484  O     c     11.7620 *     4.9008 *   -10.7819 *  0.0000     4          
   485  Li    c     11.7620 *     4.9008 *    10.7819 *  0.0000     4          
   486  Li    c     11.7620 *   -10.7819 *    -4.9008 *  0.0000     4          
   487  Cl    c      1.9603 *    -0.9802 *   -16.6629 *  0.0000     4          
   488  Cl    c      1.9603 *    10.7819 *   -12.7422 *  0.0000     4          
   489  Cl    c      9.8017 *    -4.9008 *   -12.7422 *  0.0000     4          
   490  Cl    c     13.7224 *     6.8612 *     6.8612    0.0000     2          
   491  Li    c      1.9603 *     0.9802 *    16.6629 *  0.0000     4          
   492  Li    c      1.9603 *    12.7422 *   -10.7819 *  0.0000     4          
   493  Li    c      9.8017 *     4.9008 *    12.7422 *  0.0000     4          
   494  Li    c     13.7224 *    -6.8612 *    -6.8612    0.0000     2          
   495  O     c      0.0000      -2.9405 *    16.6629 *  0.0000     2          
   496  Li    c      0.0000      -2.9405 *   -16.6629 *  0.0000     2          
   497  Li    c      0.0000       2.9405 *    16.6629 *  0.0000     2          
   498  O     c      7.8414 *    -2.9405 *   -14.7025 *  0.0000     4          
   499  Li    c      7.8414 *    -2.9405 *    14.7025 *  0.0000     4          
   500  Li    c      7.8414 *   -14.7025 *     2.9405 *  0.0000     4          
   501  Cl    c      9.8017 *    -8.8215 *    10.7819 *  0.0000     4          
   502  Cl    c     13.7224 *    -8.8215 *    -4.9008 *  0.0000     4          
   503  Li    c      9.8017 *     8.8215 *   -10.7819 *  0.0000     4          
   504  Li    c     13.7224 *     8.8215 *     4.9008 *  0.0000     4          
   505  Cl    c      1.9603 *     2.9405 *   -16.6629 *  0.0000     4          
   506  Li    c      1.9603 *    16.6629 *    -2.9405 *  0.0000     4          
   507  O     c      3.9207 *     0.9802 *    16.6629 *  0.0000     4          
   508  O     c      3.9207 *   -10.7819 *    12.7422 *  0.0000     4          
   509  Li    c      3.9207 *     0.9802 *   -16.6629 *  0.0000     4          
   510  Li    c      3.9207 *   -10.7819 *   -12.7422 *  0.0000     4          
   511  Li    c      3.9207 *    -0.9802 *    16.6629 *  0.0000     4          
   512  Li    c      3.9207 *    10.7819 *    12.7422 *  0.0000     4          
   513  O     c      0.0000       8.8215 *   -14.7025 *  0.0000     2          
   514  O     c     11.7620 *     8.8215 *     8.8215    0.0000     2          
   515  O     c    -15.6827 *     0.9802 *    -6.8612 *  0.0000     4          
   516  O     c    -15.6827 *     4.9008 *     4.9008    0.0000     2          
   517  Li    c      0.0000       8.8215 *    14.7025 *  0.0000     2          
   518  Li    c      0.0000     -14.7025 *    -8.8215 *  0.0000     2          
   519  Li    c     11.7620 *     8.8215 *    -8.8215 *  0.0000     4          
   520  Li    c    -15.6827 *     0.9802 *     6.8612 *  0.0000     4          
   521  Li    c    -15.6827 *     4.9008 *    -4.9008 *  0.0000     4          
   522  Li    c    -15.6827 *    -6.8612 *    -0.9802 *  0.0000     4          
   523  O     c      7.8414 *   -10.7819 *   -10.7819    0.0000     2          
   524  Li    c      7.8414 *   -10.7819 *    10.7819 *  0.0000     4          
   525  Cl    c      1.9603 *    14.7025 *    -8.8215 *  0.0000     4          
   526  Cl    c      5.8810 *     6.8612 *    14.7025 *  0.0000     4          
   527  Li    c      1.9603 *     8.8215 *   -14.7025 *  0.0000     4          
   528  Li    c      5.8810 *    -6.8612 *   -14.7025 *  0.0000     4          
   529  O     c      0.0000       4.9008 *    16.6629 *  0.0000     2          
   530  O     c      3.9207 *    -2.9405 *    16.6629 *  0.0000     4          
   531  Li    c      0.0000       4.9008 *   -16.6629 *  0.0000     2          
   532  Li    c      3.9207 *    -2.9405 *   -16.6629 *  0.0000     4          
   533  Li    c      0.0000      -4.9008 *    16.6629 *  0.0000     2          
   534  Li    c      3.9207 *     2.9405 *    16.6629 *  0.0000     4          
   535  O     c      7.8414 *     8.8215 *    12.7422 *  0.0000     4          
   536  O     c      7.8414 *   -14.7025 *     4.9008 *  0.0000     4          
   537  O     c     11.7620 *     0.9802 *    12.7422 *  0.0000     4          
   538  O     c    -15.6827 *    -2.9405 *    -6.8612 *  0.0000     4          
   539  Li    c      7.8414 *     8.8215 *   -12.7422 *  0.0000     4          
   540  Li    c      7.8414 *   -14.7025 *    -4.9008 *  0.0000     4          
   541  Li    c     11.7620 *     0.9802 *   -12.7422 *  0.0000     4          
   542  Li    c     -7.8414 *    12.7422 *    -8.8215 *  0.0000     4          
   543  Li    c    -15.6827 *    -2.9405 *     6.8612 *  0.0000     4          
   544  Li    c      7.8414 *    14.7025 *     4.9008 *  0.0000     4          
   545  Li    c     11.7620 *    -0.9802 *    12.7422 *  0.0000     4          
   546  Li    c    -15.6827 *     2.9405 *    -6.8612 *  0.0000     4          
   547  O     c     11.7620 *    -6.8612 *   -10.7819 *  0.0000     4          
   548  Li    c     11.7620 *    -6.8612 *    10.7819 *  0.0000     4          
   549  Li    c     11.7620 *   -10.7819 *     6.8612 *  0.0000     4          
   550  Cl    c      1.9603 *   -16.6629 *    -4.9008 *  0.0000     4          
   551  Cl    c      9.8017 *   -12.7422 *     6.8612 *  0.0000     4          
   552  Cl    c     13.7224 *    10.7819 *    -0.9802 *  0.0000     4          
   553  Li    c      1.9603 *    16.6629 *     4.9008 *  0.0000     4          
   554  Li    c      9.8017 *    12.7422 *    -6.8612 *  0.0000     4          
   555  Li    c     13.7224 *   -10.7819 *     0.9802 *  0.0000     4          
   556  O     c      3.9207 *   -14.7025 *     8.8215 *  0.0000     4          
   557  O     c     11.7620 *    -2.9405 *    12.7422 *  0.0000     4          
   558  Li    c      3.9207 *   -14.7025 *    -8.8215 *  0.0000     4          
   559  Li    c     11.7620 *    -2.9405 *   -12.7422 *  0.0000     4          
   560  Li    c      3.9207 *    14.7025 *     8.8215 *  0.0000     4          
   561  Li    c     11.7620 *     2.9405 *    12.7422 *  0.0000     4          
   562  Cl    c      9.8017 *    -0.9802 *    14.7025 *  0.0000     4          
   563  Cl    c     13.7224 *    -8.8215 *     6.8612 *  0.0000     4          
   564  Cl    c     17.6430 *    -0.9802 *    -0.9802    0.0000     2          
   565  Li    c      9.8017 *     0.9802 *   -14.7025 *  0.0000     4          
   566  Li    c     13.7224 *     8.8215 *    -6.8612 *  0.0000     4          
   567  Li    c     17.6430 *     0.9802 *     0.9802    0.0000     2          
   568  Cl    c      5.8810 *    -0.9802 *   -16.6629 *  0.0000     4          
   569  Cl    c      5.8810 *    10.7819 *   -12.7422 *  0.0000     4          
   570  Cl    c     13.7224 *     2.9405 *    10.7819 *  0.0000     4          
   571  Li    c      5.8810 *     0.9802 *    16.6629 *  0.0000     4          
   572  Li    c      5.8810 *    12.7422 *   -10.7819 *  0.0000     4          
   573  Li    c     13.7224 *    -2.9405 *   -10.7819 *  0.0000     4          
   574  O     c      3.9207 *     4.9008 *    16.6629 *  0.0000     4          
   575  Li    c      3.9207 *     4.9008 *   -16.6629 *  0.0000     4          
   576  Li    c      3.9207 *    -4.9008 *    16.6629 *  0.0000     4          
   577  O     c    -15.6827 *     4.9008 *    -6.8612 *  0.0000     4          
   578  Li    c    -15.6827 *     4.9008 *     6.8612 *  0.0000     4          
   579  Li    c    -15.6827 *    -6.8612 *    -4.9008 *  0.0000     4          
   580  Cl    c      5.8810 *     2.9405 *   -16.6629 *  0.0000     4          
   581  Cl    c      9.8017 *     2.9405 *    14.7025 *  0.0000     4          
   582  Cl    c     17.6430 *    -0.9802 *     2.9405 *  0.0000     4          
   583  Li    c      5.8810 *    -2.9405 *    16.6629 *  0.0000     4          
   584  Li    c      9.8017 *    -2.9405 *   -14.7025 *  0.0000     4          
   585  Li    c     17.6430 *     0.9802 *    -2.9405 *  0.0000     4          
   586  O     c      0.0000      -6.8612 *    16.6629 *  0.0000     2          
   587  Li    c      0.0000      -6.8612 *   -16.6629 *  0.0000     2          
   588  Li    c      0.0000       6.8612 *    16.6629 *  0.0000     2          
   589  O     c      0.0000      12.7422 *    12.7422    0.0000     1          
   590  O     c      7.8414 *   -14.7025 *    -6.8612 *  0.0000     4          
   591  O     c     11.7620 *     4.9008 *    12.7422 *  0.0000     4          
   592  O     c    -15.6827 *     0.9802 *     8.8215 *  0.0000     4          
   593  Li    c      0.0000      12.7422 *   -12.7422 *  0.0000     2          
   594  Li    c      7.8414 *   -14.7025 *     6.8612 *  0.0000     4          
   595  Li    c     11.7620 *     4.9008 *   -12.7422 *  0.0000     4          
   596  Li    c     -7.8414 *    -6.8612 *    14.7025 *  0.0000     4          
   597  Li    c    -15.6827 *     0.9802 *    -8.8215 *  0.0000     4          
   598  Li    c    -15.6827 *     8.8215 *    -0.9802 *  0.0000     4          
   599  Li    c     11.7620 *    -4.9008 *    12.7422 *  0.0000     4          
   600  Cl    c      1.9603 *     6.8612 *   -16.6629 *  0.0000     4          
   601  Cl    c      1.9603 *   -12.7422 *   -12.7422    0.0000     2          
   602  Cl    c      5.8810 *    14.7025 *    -8.8215 *  0.0000     4          
   603  Cl    c      9.8017 *    10.7819 *    10.7819    0.0000     2          
   604  Cl    c     13.7224 *    10.7819 *    -4.9008 *  0.0000     4          
   605  Li    c      1.9603 *    12.7422 *    12.7422    0.0000     2          
   606  Li    c      1.9603 *    16.6629 *    -6.8612 *  0.0000     4          
   607  Li    c      5.8810 *     8.8215 *   -14.7025 *  0.0000     4          
   608  Li    c      9.8017 *   -10.7819 *   -10.7819    0.0000     2          
   609  Li    c     13.7224 *     4.9008 *   -10.7819 *  0.0000     4          
   610  Cl    c     17.6430 *     2.9405 *     2.9405    0.0000     2          
   611  Li    c     17.6430 *    -2.9405 *    -2.9405    0.0000     2          
   612  O     c    -15.6827 *    -2.9405 *     8.8215 *  0.0000     4          
   613  Li    c    -15.6827 *    -2.9405 *    -8.8215 *  0.0000     4          
   614  Li    c    -15.6827 *     2.9405 *     8.8215 *  0.0000     4          
   615  O     c      0.0000     -10.7819 *   -14.7025 *  0.0000     2          
   616  O     c     11.7620 *   -10.7819 *     8.8215 *  0.0000     4          
   617  Li    c      0.0000     -10.7819 *    14.7025 *  0.0000     2          
   618  Li    c      0.0000     -14.7025 *    10.7819 *  0.0000     2          
   619  Li    c     11.7620 *   -10.7819 *    -8.8215 *  0.0000     4          
   620  Li    c     11.7620 *    10.7819 *     8.8215 *  0.0000     4          
   621  Cl    c      1.9603 *    10.7819 *    14.7025 *  0.0000     4          
   622  Cl    c      9.8017 *    14.7025 *    -4.9008 *  0.0000     4          
   623  Cl    c      9.8017 *    -8.8215 *   -12.7422 *  0.0000     4          
   624  Cl    c     17.6430 *    -0.9802 *    -4.9008 *  0.0000     4          
   625  Li    c      1.9603 *   -10.7819 *   -14.7025 *  0.0000     4          
   626  Li    c      9.8017 *     4.9008 *   -14.7025 *  0.0000     4          
   627  Li    c      9.8017 *     8.8215 *    12.7422 *  0.0000     4          
   628  Li    c     17.6430 *     0.9802 *     4.9008 *  0.0000     4          
   629  Cl    c      5.8810 *    -4.9008 *   -16.6629 *  0.0000     4          
   630  Li    c      5.8810 *     4.9008 *    16.6629 *  0.0000     4          
   631  O     c      3.9207 *    12.7422 *    12.7422    0.0000     2          
   632  O     c      3.9207 *    -6.8612 *    16.6629 *  0.0000     4          
   633  O     c      7.8414 *     0.9802 *    16.6629 *  0.0000     4          
   634  O     c     -7.8414 *   -10.7819 *    12.7422 *  0.0000     4          
   635  Li    c      3.9207 *    12.7422 *   -12.7422 *  0.0000     4          
   636  Li    c      3.9207 *    -6.8612 *   -16.6629 *  0.0000     4          
   637  Li    c      7.8414 *     0.9802 *   -16.6629 *  0.0000     4          
   638  Li    c     -7.8414 *   -10.7819 *   -12.7422 *  0.0000     4          
   639  Li    c      3.9207 *     6.8612 *    16.6629 *  0.0000     4          
   640  Li    c      7.8414 *    -0.9802 *    16.6629 *  0.0000     4          
   641  Li    c     -7.8414 *    10.7819 *    12.7422 *  0.0000     4          
   642  O     c    -15.6827 *    -6.8612 *    -6.8612    0.0000     2          
   643  Li    c    -15.6827 *    -6.8612 *     6.8612 *  0.0000     4          
   644  Cl    c     13.7224 *    -8.8215 *    -8.8215    0.0000     2          
   645  Cl    c     17.6430 *     2.9405 *    -4.9008 *  0.0000     4          
   646  Li    c     13.7224 *     8.8215 *     8.8215    0.0000     2          
   647  Li    c     17.6430 *     4.9008 *    -2.9405 *  0.0000     4          
   648  O     c      7.8414 *    -2.9405 *    16.6629 *  0.0000     4          
   649  Li    c      7.8414 *    -2.9405 *   -16.6629 *  0.0000     4          
   650  Li    c      7.8414 *     2.9405 *    16.6629 *  0.0000     4          
   651  O     c     11.7620 *    -6.8612 *    12.7422 *  0.0000     4          
   652  O     c    -15.6827 *     4.9008 *     8.8215 *  0.0000     4          
   653  Li    c     11.7620 *    -6.8612 *   -12.7422 *  0.0000     4          
   654  Li    c    -15.6827 *     4.9008 *    -8.8215 *  0.0000     4          
   655  Li    c    -15.6827 *     8.8215 *    -4.9008 *  0.0000     4          
   656  Li    c     11.7620 *     6.8612 *    12.7422 *  0.0000     4          
   657  O     c      0.0000       0.9802 *   -18.6232 *  0.0000     2          
   658  O     c      3.9207 *   -10.7819 *   -14.7025 *  0.0000     4          
   659  Li    c      0.0000       0.9802 *    18.6232 *  0.0000     2          
   660  Li    c      0.0000     -18.6232 *    -0.9802 *  0.0000     2          
   661  Li    c      3.9207 *   -10.7819 *    14.7025 *  0.0000     4          
   662  Li    c      3.9207 *   -14.7025 *    10.7819 *  0.0000     4          
   663  Cl    c      1.9603 *    -0.9802 *    18.6232 *  0.0000     4          
   664  Cl    c     13.7224 *    10.7819 *     6.8612 *  0.0000     4          
   665  Cl    c     13.7224 *   -12.7422 *    -0.9802 *  0.0000     4          
   666  Li    c      1.9603 *     0.9802 *   -18.6232 *  0.0000     4          
   667  Li    c     13.7224 *    12.7422 *     0.9802 *  0.0000     4          
   668  Li    c     13.7224 *   -10.7819 *    -6.8612 *  0.0000     4          
   669  O     c      0.0000       8.8215 *    16.6629 *  0.0000     2          
   670  O     c      7.8414 *   -14.7025 *     8.8215 *  0.0000     4          
   671  Li    c      0.0000       8.8215 *   -16.6629 *  0.0000     2          
   672  Li    c      7.8414 *   -14.7025 *    -8.8215 *  0.0000     4          
   673  Li    c      0.0000      -8.8215 *    16.6629 *  0.0000     2          
   674  Li    c      7.8414 *    14.7025 *     8.8215 *  0.0000     4          
   675  O     c     11.7620 *     0.9802 *   -14.7025 *  0.0000     4          
   676  Li    c     11.7620 *     0.9802 *    14.7025 *  0.0000     4          
   677  Li    c     11.7620 *   -14.7025 *    -0.9802 *  0.0000     4          
   678  O     c      0.0000      -2.9405 *   -18.6232 *  0.0000     2          
   679  Li    c      0.0000      -2.9405 *    18.6232 *  0.0000     2          
   680  Li    c      0.0000     -18.6232 *     2.9405 *  0.0000     2          
   681  Cl    c      9.8017 *    14.7025 *     6.8612 *  0.0000     4          
   682  Cl    c     17.6430 *    -0.9802 *     6.8612 *  0.0000     4          
   683  Cl    c     17.6430 *    -4.9008 *    -4.9008    0.0000     2          
   684  Li    c      9.8017 *   -14.7025 *    -6.8612 *  0.0000     4          
   685  Li    c     17.6430 *     0.9802 *    -6.8612 *  0.0000     4          
   686  Li    c     17.6430 *     4.9008 *     4.9008    0.0000     2          
   687  Cl    c      1.9603 *     2.9405 *    18.6232 *  0.0000     4          
   688  Cl    c      1.9603 *    -8.8215 *   -16.6629 *  0.0000     4          
   689  Cl    c      5.8810 *     6.8612 *   -16.6629 *  0.0000     4          
   690  Cl    c      5.8810 *   -12.7422 *   -12.7422    0.0000     2          
   691  Cl    c     13.7224 *     2.9405 *   -12.7422 *  0.0000     4          
   692  Li    c      1.9603 *     8.8215 *    16.6629 *  0.0000     4          
   693  Li    c      1.9603 *    -2.9405 *   -18.6232 *  0.0000     4          
   694  Li    c      5.8810 *    12.7422 *    12.7422    0.0000     2          
   695  Li    c      5.8810 *    16.6629 *    -6.8612 *  0.0000     4          
   696  Li    c     13.7224 *    12.7422 *    -2.9405 *  0.0000     4          
   697  O     c      7.8414 *     4.9008 *    16.6629 *  0.0000     4          
   698  Li    c      7.8414 *     4.9008 *   -16.6629 *  0.0000     4          
   699  Li    c      7.8414 *    -4.9008 *    16.6629 *  0.0000     4          
[...]
   1052 y         11.762026     11.766295     0.004268    Cartesian    0.04
   1052 z         11.762026     11.766295     0.004268    Cartesian    0.04
   1053 x         15.682702     15.685469     0.002767    Cartesian    0.02
   1053 y         11.762026     11.763628     0.001602    Cartesian    0.01
   1053 z         -3.920675     -3.922030    -0.001354    Cartesian    0.03
   1054 x         19.603377     19.606326     0.002948    Cartesian    0.02
   1054 y          3.920675      3.920719     0.000044    Cartesian    0.00
   1054 z          3.920675      3.920719     0.000044    Cartesian    0.00
   1055 x        -13.722364    -13.722238     0.000126    Cartesian   -0.00
   1055 y         -1.960338     -1.960755    -0.000417    Cartesian    0.02
   1055 z          9.801689      9.801005    -0.000683    Cartesian   -0.01
   1056 x          1.960338      1.960338     0.000000    Cartesian    0.00
   1056 y         -9.801689     -9.801394     0.000294    Cartesian   -0.00
   1056 z        -13.722364    -13.722139     0.000225    Cartesian   -0.00
   1057 x         13.722364     13.722759     0.000395    Cartesian    0.00
   1057 y         -9.801689     -9.801695    -0.000007    Cartesian    0.00
   1057 z          9.801689      9.801362    -0.000326    Cartesian   -0.00
   1058 x          3.920675      3.920981     0.000306    Cartesian    0.01
   1058 y         11.762026     11.764525     0.002498    Cartesian    0.02
   1058 z         15.682702     15.686517     0.003815    Cartesian    0.02
   1059 x         11.762026     11.763497     0.001471    Cartesian    0.01
   1059 y         15.682702     15.686185     0.003484    Cartesian    0.02
   1059 z         -3.920675     -3.921722    -0.001047    Cartesian    0.03
   1060 x         11.762026     11.764254     0.002227    Cartesian    0.02
   1060 y         -7.841351     -7.843440    -0.002089    Cartesian    0.03
   1060 z        -11.762026    -11.764525    -0.002499    Cartesian    0.02
   1061 x         19.603377     19.606410     0.003032    Cartesian    0.02
   1061 y          0.000000      0.000407     0.000407    Cartesian    0.00
   1061 z         -3.920675     -3.920564     0.000112    Cartesian   -0.00
   1062 x          7.841351      7.842644     0.001293    Cartesian    0.02
   1062 y         -3.920675     -3.921545    -0.000869    Cartesian    0.02
   1062 z        -15.682702    -15.685622    -0.002920    Cartesian    0.02
   1063 x          5.881013      5.881457     0.000443    Cartesian    0.01
   1063 y         13.722364     13.723486     0.001122    Cartesian    0.01
   1063 z         13.722364     13.723486     0.001122    Cartesian    0.01
   1064 x          5.881013      5.881151     0.000138    Cartesian    0.00
   1064 y         -5.881013     -5.881240    -0.000226    Cartesian    0.00
   1064 z         17.643040     17.643934     0.000894    Cartesian    0.01
   1065 x          9.801689      9.801600    -0.000089    Cartesian   -0.00
   1065 y          1.960338      1.960432     0.000095    Cartesian    0.00
   1065 z         17.643040     17.644513     0.001473    Cartesian    0.01
   1066 x         -5.881013     -5.881384    -0.000371    Cartesian    0.01
   1066 y         -9.801689     -9.801439     0.000249    Cartesian   -0.00
   1066 z         13.722364     13.722381     0.000016    Cartesian    0.00
   1067 x        -13.722364    -13.722265     0.000100    Cartesian   -0.00
   1067 y         -5.881013     -5.880569     0.000444    Cartesian   -0.01
   1067 z         -5.881013     -5.880569     0.000444    Cartesian   -0.01
   1068 x         15.682702     15.684893     0.002191    Cartesian    0.01
   1068 y         -7.841351     -7.842436    -0.001085    Cartesian    0.01
   1068 z         -7.841351     -7.842436    -0.001085    Cartesian    0.01
   1069 x         19.603377     19.606516     0.003139    Cartesian    0.02
   1069 y          3.920675      3.920935     0.000259    Cartesian    0.01
   1069 z         -3.920675     -3.921095    -0.000419    Cartesian    0.01
   1070 x          9.801689      9.801809     0.000120    Cartesian    0.00
   1070 y         -1.960338     -1.960545    -0.000207    Cartesian    0.01
   1070 z         17.643040     17.644217     0.001177    Cartesian    0.01
   1071 x         13.722364     13.722646     0.000282    Cartesian    0.00
   1071 y         -5.881013     -5.881575    -0.000561    Cartesian    0.01
   1071 z         13.722364     13.722838     0.000474    Cartesian    0.00
   1072 x        -13.722364    -13.723230    -0.000866    Cartesian    0.01
   1072 y          5.881013      5.881243     0.000229    Cartesian    0.00
   1072 z          9.801689      9.802047     0.000358    Cartesian    0.00
   1073 x          1.960338      1.960338     0.000000    Cartesian    0.00
   1073 y          1.960338      1.960388     0.000051    Cartesian    0.00
   1073 z        -17.643040    -17.644200    -0.001160    Cartesian    0.01
   1074 x          5.881013      5.881735     0.000722    Cartesian    0.01
   1074 y         -9.801689     -9.801924    -0.000236    Cartesian    0.00
   1074 z        -13.722364    -13.722907    -0.000542    Cartesian    0.00
   1075 x          3.920675      3.921142     0.000466    Cartesian    0.01
   1075 y          0.000000     -0.000001    -0.000001    Cartesian    0.00
   1075 z         19.603377     19.607512     0.004134    Cartesian    0.02
   1076 x         15.682702     15.686277     0.003575    Cartesian    0.02
   1076 y         11.762026     11.765133     0.003107    Cartesian    0.03
   1076 z          7.841351      7.843184     0.001833    Cartesian    0.02
   1077 x         15.682702     15.685427     0.002725    Cartesian    0.02
   1077 y        -11.762026    -11.763967    -0.001941    Cartesian    0.02
   1077 z          0.000000     -0.000023    -0.000023    Cartesian    0.00
   1078 x          1.960338      1.960338     0.000000    Cartesian    0.00
   1078 y          9.801689      9.802113     0.000425    Cartesian    0.00
   1078 z         17.643040     17.644719     0.001680    Cartesian    0.01
   1079 x          9.801689      9.802125     0.000436    Cartesian    0.00
   1079 y        -13.722364    -13.722809    -0.000445    Cartesian    0.00
   1079 z          9.801689      9.802053     0.000364    Cartesian    0.00
   1080 x         13.722364     13.723357     0.000993    Cartesian    0.01
   1080 y          1.960338      1.960561     0.000223    Cartesian    0.01
   1080 z        -13.722364    -13.723605    -0.001241    Cartesian    0.01
   1081 x          1.960338      1.960338     0.000000    Cartesian    0.00
   1081 y         -1.960338     -1.960571    -0.000233    Cartesian    0.01
   1081 z        -17.643040    -17.644215    -0.001176    Cartesian    0.01
   1082 x         11.762026     11.764791     0.002764    Cartesian    0.02
   1082 y         15.682702     15.686610     0.003908    Cartesian    0.02
   1082 z          7.841351      7.843239     0.001888    Cartesian    0.02
   1083 x         19.603377     19.607199     0.003822    Cartesian    0.02
   1083 y          0.000000     -0.000113    -0.000113    Cartesian    0.00
   1083 z          7.841351      7.842709     0.001358    Cartesian    0.02
   1084 x         19.603377     19.607242     0.003865    Cartesian    0.02
   1084 y         -3.920675     -3.921264    -0.000589    Cartesian    0.02
   1084 z         -3.920675     -3.921264    -0.000589    Cartesian    0.02
   1085 x          3.920675      3.921144     0.000469    Cartesian    0.01
   1085 y          3.920675      3.921607     0.000932    Cartesian    0.02
   1085 z         19.603377     19.607662     0.004285    Cartesian    0.02
   1086 x          3.920675      3.920977     0.000302    Cartesian    0.01
   1086 y         -7.841351     -7.843094    -0.001743    Cartesian    0.02
   1086 z        -15.682702    -15.686086    -0.003384    Cartesian    0.02
   1087 x          7.841351      7.842709     0.001358    Cartesian    0.02
   1087 y          7.841351      7.842852     0.001501    Cartesian    0.02
   1087 z        -15.682702    -15.686761    -0.004059    Cartesian    0.03
   1088 x          7.841351      7.842904     0.001553    Cartesian    0.02
   1088 y        -11.762026    -11.764445    -0.002418    Cartesian    0.02
   1088 z        -11.762026    -11.764445    -0.002418    Cartesian    0.02
   1089 x         15.682702     15.685707     0.003005    Cartesian    0.02
   1089 y          3.920675      3.921506     0.000831    Cartesian    0.02
   1089 z        -11.762026    -11.764037    -0.002011    Cartesian    0.02
   1090 x          9.801689      9.802009     0.000321    Cartesian    0.00
   1090 y          5.881013      5.881321     0.000307    Cartesian    0.01
   1090 z         17.643040     17.644253     0.001214    Cartesian    0.01
   1091 x         13.722364     13.723407     0.001043    Cartesian    0.01
   1091 y         -1.960338     -1.960390    -0.000052    Cartesian    0.00
   1091 z        -13.722364    -13.723438    -0.001074    Cartesian    0.01
   1092 x        -13.722364    -13.723734    -0.001369    Cartesian    0.01
   1092 y          1.960338      1.960465     0.000128    Cartesian    0.01
   1092 z         -9.801689     -9.802140    -0.000451    Cartesian    0.00
   1093 x          5.881013      5.881156     0.000143    Cartesian    0.00
   1093 y          1.960338      1.960404     0.000067    Cartesian    0.00
   1093 z        -17.643040    -17.644112    -0.001073    Cartesian    0.01
   1094 x          7.841351      7.842964     0.001613    Cartesian    0.02
   1094 y         11.762026     11.765350     0.003323    Cartesian    0.03
   1094 z         15.682702     15.686736     0.004034    Cartesian    0.03
   1095 x         19.603377     19.607900     0.004523    Cartesian    0.02
   1095 y          3.920675      3.921327     0.000651    Cartesian    0.02
   1095 z          7.841351      7.842899     0.001548    Cartesian    0.02
   1096 x          5.881013      5.881278     0.000265    Cartesian    0.00
   1096 y          9.801689      9.802765     0.001076    Cartesian    0.01
   1096 z         17.643040     17.644964     0.001924    Cartesian    0.01
   1097 x        -13.722364    -13.724148    -0.001784    Cartesian    0.01
   1097 y          9.801689      9.802579     0.000890    Cartesian    0.01
   1097 z         -5.881013     -5.881996    -0.000982    Cartesian    0.02
   1098 x        -13.722364    -13.723488    -0.001124    Cartesian    0.01
   1098 y         -1.960338     -1.960204     0.000134    Cartesian   -0.01
   1098 z         -9.801689     -9.802231    -0.000542    Cartesian    0.01
   1099 x          1.960338      1.960338     0.000000    Cartesian    0.00
   1099 y          5.881013      5.881311     0.000298    Cartesian    0.01
   1099 z        -17.643040    -17.644245    -0.001205    Cartesian    0.01
   1100 x          5.881013      5.881099     0.000085    Cartesian    0.00
   1100 y         -1.960338     -1.960455    -0.000117    Cartesian    0.01
   1100 z        -17.643040    -17.643865    -0.000825    Cartesian    0.00
   1101 x         13.722364     13.724296     0.001932    Cartesian    0.01
   1101 y         -9.801689     -9.803139    -0.001451    Cartesian    0.01
   1101 z         -9.801689     -9.803139    -0.001451    Cartesian    0.01
   1102 x          3.920675      3.921243     0.000567    Cartesian    0.01
   1102 y         19.603377     19.608566     0.005188    Cartesian    0.03
   1102 z         -3.920675     -3.921728    -0.001052    Cartesian    0.03
   1103 x         11.762026     11.764456     0.002429    Cartesian    0.02
   1103 y         11.762026     11.764412     0.002386    Cartesian    0.02
   1103 z        -11.762026    -11.764655    -0.002628    Cartesian    0.02
   1104 x         11.762026     11.764734     0.002707    Cartesian    0.02
   1104 y        -15.682702    -15.687257    -0.004555    Cartesian    0.03
   1104 z          0.000000     -0.000214    -0.000214    Cartesian    0.00
   1105 x         15.682702     15.686045     0.003343    Cartesian    0.02
   1105 y         -3.920675     -3.921659    -0.000983    Cartesian    0.03
   1105 z        -11.762026    -11.764641    -0.002615    Cartesian    0.02
   1106 x          1.960338      1.960338     0.000000    Cartesian    0.00
   1106 y        -13.722364    -13.723980    -0.001616    Cartesian    0.01
   1106 z         13.722364     13.723384     0.001019    Cartesian    0.01
   1107 x         13.722364     13.724842     0.002478    Cartesian    0.02
   1107 y          9.801689      9.803680     0.001991    Cartesian    0.02
   1107 z         13.722364     13.724952     0.002587    Cartesian    0.02
   1108 x         13.722364     13.724020     0.001656    Cartesian    0.01
   1108 y          5.881013      5.881847     0.000834    Cartesian    0.01
   1108 z        -13.722364    -13.724118    -0.001753    Cartesian    0.01
   1109 x          3.920675      3.921351     0.000676    Cartesian    0.02
   1109 y         15.682702     15.686116     0.003414    Cartesian    0.02
   1109 z        -11.762026    -11.764952    -0.002926    Cartesian    0.02
   1110 x          7.841351      7.842980     0.001629    Cartesian    0.02
   1110 y         19.603377     19.608963     0.005586    Cartesian    0.03
   1110 z          0.000000     -0.000310    -0.000310    Cartesian    0.00
   1111 x         15.682702     15.686466     0.003764    Cartesian    0.02
   1111 y         -7.841351     -7.843198    -0.001847    Cartesian    0.02
   1111 z         11.762026     11.764430     0.002404    Cartesian    0.02
   1112 x         19.603377     19.607982     0.004605    Cartesian    0.02
   1112 y          7.841351      7.842831     0.001480    Cartesian    0.02
   1112 z         -3.920675     -3.921692    -0.001016    Cartesian    0.03
   1113 x         11.762026     11.764919     0.002893    Cartesian    0.02
   1113 y          3.920675      3.921562     0.000886    Cartesian    0.02
   1113 z        -15.682702    -15.687643    -0.004941    Cartesian    0.03
   1114 x          9.801689      9.802839     0.001151    Cartesian    0.01
   1114 y         -5.881013     -5.882173    -0.001160    Cartesian    0.02
   1114 z         17.643040     17.645572     0.002532    Cartesian    0.01
   1115 x         -5.881013     -5.882782    -0.001769    Cartesian    0.03
   1115 y         13.722364     13.724941     0.002577    Cartesian    0.02
   1115 z         13.722364     13.724941     0.002577    Cartesian    0.02
   1116 x        -13.722364    -13.724329    -0.001965    Cartesian    0.01
   1116 y         -9.801689     -9.802862    -0.001173    Cartesian    0.01
   1116 z          5.881013      5.881751     0.000737    Cartesian    0.01
   1117 x          5.881013      5.881875     0.000862    Cartesian    0.01
   1117 y          5.881013      5.881931     0.000917    Cartesian    0.02
   1117 z        -17.643040    -17.645585    -0.002545    Cartesian    0.01
   1118 x         21.563715     21.564490     0.000775    Cartesian    0.00
   1118 y          1.960338      1.960279    -0.000059    Cartesian   -0.00
   1118 z          1.960338      1.960279    -0.000059    Cartesian   -0.00
   1119 x         11.762026     11.764703     0.002677    Cartesian    0.02
   1119 y         -7.841351     -7.843535    -0.002184    Cartesian    0.03
   1119 z         15.682702     15.687219     0.004517    Cartesian    0.03
   1120 x          7.841351      7.843096     0.001745    Cartesian    0.02
   1120 y          3.920675      3.921744     0.001069    Cartesian    0.03
   1120 z         19.603377     19.609024     0.005646    Cartesian    0.03
   1121 x          7.841351      7.843181     0.001830    Cartesian    0.02
   1121 y         -7.841351     -7.843824    -0.002473    Cartesian    0.03
   1121 z        -15.682702    -15.687432    -0.004730    Cartesian    0.03
   1122 x         19.603377     19.608304     0.004927    Cartesian    0.03
   1122 y          0.000000     -0.000393    -0.000393    Cartesian    0.00
   1122 z         -7.841351     -7.843133    -0.001782    Cartesian    0.02
   1123 x          1.960338      1.960338     0.000000    Cartesian    0.00
   1123 y         -9.801689     -9.802786    -0.001098    Cartesian    0.01
   1123 z         17.643040     17.644464     0.001425    Cartesian    0.01
   1124 x          5.881013      5.882002     0.000989    Cartesian    0.02
   1124 y        -13.722364    -13.724494    -0.002129    Cartesian    0.02
   1124 z         13.722364     13.724330     0.001966    Cartesian    0.01
   1125 x          1.960338      1.960338     0.000000    Cartesian    0.00
   1125 y         -5.881013     -5.881903    -0.000890    Cartesian    0.02
   1125 z        -17.643040    -17.644610    -0.001570    Cartesian    0.01
   1126 x          9.801689      9.803377     0.001689    Cartesian    0.02
   1126 y         -9.801689     -9.803399    -0.001710    Cartesian    0.02
   1126 z        -13.722364    -13.724549    -0.002185    Cartesian    0.02
   1127 x         21.563715     21.565959     0.002244    Cartesian    0.01
   1127 y          1.960338      1.960926     0.000589    Cartesian    0.03
   1127 z         -1.960338     -1.960909    -0.000571    Cartesian    0.03
   1128 x          3.920675      3.921383     0.000708    Cartesian    0.02
   1128 y         19.603377     19.609136     0.005758    Cartesian    0.03
   1128 z          7.841351      7.843488     0.002137    Cartesian    0.03
   1129 x         11.762026     11.765065     0.003039    Cartesian    0.03
   1129 y        -15.682702    -15.687886    -0.005184    Cartesian    0.03
   1129 z         -3.920675     -3.922071    -0.001395    Cartesian    0.04
   1130 x         15.682702     15.686885     0.004183    Cartesian    0.03
   1130 y        -11.762026    -11.765482    -0.003456    Cartesian    0.03
   1130 z          7.841351      7.843243     0.001892    Cartesian    0.02
   1131 x          3.920675      3.921437     0.000762    Cartesian    0.02
   1131 y         11.762026     11.765189     0.003163    Cartesian    0.03
   1131 z        -15.682702    -15.687847    -0.005145    Cartesian    0.03
   1132 x         19.603377     19.608495     0.005118    Cartesian    0.03
   1132 y          3.920675      3.921569     0.000893    Cartesian    0.02
   1132 z         -7.841351     -7.843395    -0.002044    Cartesian    0.03
--------------------------------------------------------------------------------


  Time to end of optimisation  =      311.9366 seconds


  Peak dynamic memory used =    1247.58 MB 


  Timing analysis for GULP :

--------------------------------------------------------------------------------
  Task / Subroutine                                          Time (Seconds)
--------------------------------------------------------------------------------
  Calculation of reciprocal space energy and derivatives          0.0003
  Calculation of reciprocal space energy using symmetry           0.0003
  Calculation of real space energy and derivatives                0.0020
  Calculation of real space energy using symmetry                 0.0039
  Calculation for region 1 energy and derivatives (2-b)          91.5077
  Calculation for region 2a energy                               26.4223
  Calculation for region 2b energy                                0.0027
  Calculation and manipulation of Hessian matrix                172.7571
  Calculation of matrix inversion                                19.9513
  Symmetry generation of equivalent positions                     0.0021
--------------------------------------------------------------------------------
  Total CPU time                                                311.9366
--------------------------------------------------------------------------------


  Dump file written as Li3OCl.grs


  Job Finished at 14:18.55 23rd October    2020                               

