********************************************************************************
*                       GENERAL UTILITY LATTICE PROGRAM                        *
*                                 Julian Gale                                  *
*                       Curtin Institute for Computation                       *
*                    School of Molecular and Life Sciences                     *
*                    Curtin University, Western Australia                      *
********************************************************************************
* Version = 5.2.0 * Last modified =  10th September 2020                       *
********************************************************************************
*  optimise     - perform optimisation run                                     *
*  conp         - constant pressure calculation                                *
*  property     - calculate properties for final geometry                      *
*  defect       - perform defect calculation after bulk run                    *
*  compare      - compare initial and final structures                         *
********************************************************************************

  Job Started  at 14:18.55 23rd October    2020                               

  Number of CPUs =     1


  Total number of configurations input =      1

********************************************************************************
*  Input for Configuration =   1                                               *
********************************************************************************

  Formula = ClOLi3                                                      

  Number of irreducible atoms/shells =       5


  Total number atoms/shells =       7

  Dimensionality = 3               :  Bulk   


  Symmetry :

  Crystal family                   :  Cubic       
  Crystal class  (Groth - 1921)    :  Cubic Hexakisoctahedral              

  Space group (centrosymmetric)    :  P M 3 M         

  Patterson group                  :  P m -3 m 

  Cartesian lattice vectors (Angstroms) :

        3.918873    0.000000    0.000000
        0.000000    3.918873    0.000000
        0.000000    0.000000    3.918873

  Cell parameters (Angstroms/Degrees):

  a =       3.9189    alpha =  90.0000
  b =       3.9189    beta  =  90.0000
  c =       3.9189    gamma =  90.0000

  Initial cell volume =          60.184349 Angs**3

  Temperature of configuration =   0.00     K 

  Pressure of configuration =         0.000 GPa 

  Fractional coordinates of asymmetric unit :

--------------------------------------------------------------------------------
   No.  Atomic       x           y          z         Charge      Occupancy
        Label      (Frac)      (Frac)     (Frac)        (e)         (Frac)  
--------------------------------------------------------------------------------
      1 Cl    c    0.000000    0.000000    0.000000     1.48500    1.000000    
      2 O     c    0.500000    0.500000    0.500000     0.18300    1.000000    
      3 Li    c    0.500000    0.500000    0.000000     1.00000    1.000000    
      4 Cl    s    0.000000    0.000000    0.000000    -2.48500    1.000000    
      5 O     s    0.500000    0.500000    0.500000    -2.18300    1.000000    
--------------------------------------------------------------------------------


  Constraints : 

--------------------------------------------------------------------------------
  Constraint no.      Unconstrained     Constrained    Coefficient    Offset
                         Variable         Variable
--------------------------------------------------------------------------------
           1              Strain 1        Strain 2       1.00000      0.0000
           2              Strain 1        Strain 3       1.00000      0.0000
--------------------------------------------------------------------------------


********************************************************************************
*  General input information                                                   *
********************************************************************************

  Species output for all configurations : 

--------------------------------------------------------------------------------
  Species    Type    Atomic    Atomic    Charge       Radii (Angs)     Library
                     Number     Mass       (e)     Cova   Ionic  VDW   Symbol
--------------------------------------------------------------------------------
    Li       Core        3       6.94   1.000000   0.680  0.000  1.800          
    O        Core        8      16.00   0.183000   0.730  0.000  1.360          
    O        Shell       8       0.00  -2.183000   0.730  0.000  1.360          
    Cl       Core       17      35.45   1.485000   0.990  0.000  1.650          
    Cl       Shell      17       0.00  -2.485000   0.990  0.000  1.650          
--------------------------------------------------------------------------------


  Lattice summation method               =    Ewald          (3-D)
                                         =    Parry          (2-D)
                                         =    Saunders et al (1-D)
  Accuracy factor for lattice sums       =   12.000


  Analytic derivatives to be used

  Time limit = Infinity

  Maximum range for interatomic potentials =    100000.000000 Angstroms

  General interatomic potentials :

--------------------------------------------------------------------------------
Atom  Types   Potential      Parameter       Value         Units   Cutoffs(Ang)
  1     2                                                            Min /  Max 
--------------------------------------------------------------------------------
O    c O    s Spring (c-s)  Spring k 2       593.72000    eV*Ang^-2 0.000  0.800
                            Spring k 4       0.0000000    eV*Ang^-4 
--------------------------------------------------------------------------------
Cl   c Cl   s Spring (c-s)  Spring k 2       29.380000    eV*Ang^-2 0.000  0.800
                            Spring k 4       0.0000000    eV*Ang^-4 
--------------------------------------------------------------------------------
Li   c Li   c Buckingham    Buckingham A     360.53000    eV        0.000 12.000
                            Buckingham rho  0.16100000    Ang       
                            Buckingham C     0.0000000    eV*Ang^6  
--------------------------------------------------------------------------------
Li   c O    s Buckingham    Buckingham A     292.30000    eV        0.000 12.000
                            Buckingham rho  0.34720000    Ang       
                            Buckingham C     0.0000000    eV*Ang^6  
--------------------------------------------------------------------------------
Li   c Cl   s Buckingham    Buckingham A     421.04000    eV        0.000 12.000
                            Buckingham rho  0.33400000    Ang       
                            Buckingham C     0.0000000    eV*Ang^6  
--------------------------------------------------------------------------------
O    s O    s Buckingham    Buckingham A     22764.300    eV        0.000 12.000
                            Buckingham rho  0.14900000    Ang       
                            Buckingham C     13.190000    eV*Ang^6  
--------------------------------------------------------------------------------
O    s Cl   s Buckingham    Buckingham A     8286.9100    eV        0.000 12.000
                            Buckingham rho  0.25900000    Ang       
                            Buckingham C     62.200000    eV*Ang^6  
--------------------------------------------------------------------------------
Cl   s Cl   s Buckingham    Buckingham A     1227.2000    eV        0.000 12.000
                            Buckingham rho  0.32100000    Ang       
                            Buckingham C     14.530000    eV*Ang^6  
--------------------------------------------------------------------------------

********************************************************************************
*  Output for configuration   1                                                *
********************************************************************************


  Components of energy : 

--------------------------------------------------------------------------------
  Interatomic potentials     =           7.26836263 eV    
  Monopole - monopole (real) =         -11.53475722 eV    
  Monopole - monopole (recip)=         -33.94580548 eV    
  Monopole - monopole (total)=         -45.48056271 eV    
--------------------------------------------------------------------------------
  Total lattice energy       =         -38.21220008 eV    
--------------------------------------------------------------------------------
  Total lattice energy       =           -3686.8932 kJ/(mole unit cells)
--------------------------------------------------------------------------------


  Number of variables =        1

  Maximum number of calculations  =          1000
  Maximum Hessian update interval =            10
  Maximum step size               =   1.000000000
  Maximum parameter tolerance     =   0.000010000
  Maximum function  tolerance     =   0.000010000
  Maximum gradient  tolerance     =   0.001000000
  Maximum gradient  component     =   0.010000000

  Symmetry constrained optimisation

  Symmetry used for second derivatives

  Cell parameters to be optimised using strains

  Newton-Raphson optimiser to be used

  BFGS hessian update to be used

  Lower half triangular hessian to be used

  Start of bulk optimisation :

  Cycle:      0 Energy:       -38.212200  Gnorm:      0.095699  CPU:    0.006
  ** Hessian calculated **
  Cycle:      1 Energy:       -38.212222  Gnorm:      0.000105  CPU:    0.007


  **** Optimisation achieved ****


  Final energy =     -38.21222207 eV
  Final Gnorm  =       0.00000016

  Components of energy : 

--------------------------------------------------------------------------------
  Interatomic potentials     =           7.24743141 eV    
  Monopole - monopole (real) =         -11.52945423 eV    
  Monopole - monopole (recip)=         -33.93019924 eV    
  Monopole - monopole (total)=         -45.45965348 eV    
--------------------------------------------------------------------------------
  Total lattice energy       =         -38.21222207 eV    
--------------------------------------------------------------------------------
  Total lattice energy       =           -3686.8953 kJ/(mole unit cells)
--------------------------------------------------------------------------------

  Final asymmetric unit coordinates :

--------------------------------------------------------------------------------
   No.  Atomic        x           y           z         Radius
        Label       (Frac)      (Frac)      (Frac)       (Angs) 
--------------------------------------------------------------------------------
     1  Cl    c     0.000000    0.000000    0.000000    0.000000
     2  O     c     0.500000    0.500000    0.500000    0.000000
     3  Li    c     0.500000    0.500000    0.000000    0.000000
     4  Cl    s     0.000000    0.000000    0.000000    0.000000
     5  O     s     0.500000    0.500000    0.500000    0.000000
--------------------------------------------------------------------------------

  Final Cartesian lattice vectors (Angstroms) :

        3.920675    0.000000    0.000000
        0.000000    3.920675    0.000000
        0.000000    0.000000    3.920675


  Final cell parameters and derivatives :

--------------------------------------------------------------------------------
       a            3.920675 Angstrom     dE/de1(xx)    -0.000000 eV/strain
       b            3.920675 Angstrom     dE/de2(yy)     0.000000 eV/strain
       c            3.920675 Angstrom     dE/de3(zz)     0.000000 eV/strain
       alpha       90.000000 Degrees      dE/de4(yz)     0.000000 eV/strain
       beta        90.000000 Degrees      dE/de5(xz)     0.000000 eV/strain
       gamma       90.000000 Degrees      dE/de6(xy)     0.000000 eV/strain
--------------------------------------------------------------------------------

  Primitive cell volume =            60.267433 Angs**3

  Density of cell =      1.991276 g/cm**3

  Non-primitive cell volume =            60.267433 Angs**3


  Final internal derivatives :

--------------------------------------------------------------------------------
   No.  Atomic          a             b             c           Radius
        Label          (eV)          (eV)          (eV)        (eV/Angs)
--------------------------------------------------------------------------------
      1 Cl    c       0.000000      0.000000      0.000000      0.000000
      2 O     c       0.000000      0.000000      0.000000      0.000000
      3 Li    c       0.000000      0.000000      0.000000      0.000000
      4 Cl    s       0.000000      0.000000      0.000000      0.000000
      5 O     s       0.000000      0.000000      0.000000      0.000000
--------------------------------------------------------------------------------
  Maximum abs         0.000000      0.000000      0.000000      0.000000
--------------------------------------------------------------------------------

  Comparison of initial and final structures : 

--------------------------------------------------------------------------------
  Parameter   Initial value   Final value   Difference    Units      Percent
--------------------------------------------------------------------------------
    Volume        60.184349     60.267433     0.083084    Angs**3      0.14
    a              3.918873      3.920675     0.001802    Angstroms    0.05
    b              3.918873      3.920675     0.001802    Angstroms    0.05
    c              3.918873      3.920675     0.001802    Angstroms    0.05
    alpha         90.000000     90.000000     0.000000    Degrees      0.00
    beta          90.000000     90.000000     0.000000    Degrees      0.00
    gamma         90.000000     90.000000     0.000000    Degrees      0.00
      1 x          0.000000      0.000000     0.000000    Fractional   0.00
      1 y          0.000000      0.000000     0.000000    Fractional   0.00
      1 z          0.000000      0.000000     0.000000    Fractional   0.00
      2 x          0.500000      0.500000     0.000000    Fractional   0.00
      2 y          0.500000      0.500000     0.000000    Fractional   0.00
      2 z          0.500000      0.500000     0.000000    Fractional   0.00
      3 x          0.500000      0.500000     0.000000    Fractional   0.00
      3 y          0.500000      0.500000     0.000000    Fractional   0.00
      3 z          0.000000      0.000000     0.000000    Fractional   0.00
      4 x          0.000000      0.000000     0.000000    Fractional   0.00
      4 y          0.000000      0.000000     0.000000    Fractional   0.00
      4 z          0.000000      0.000000     0.000000    Fractional   0.00
      5 x          0.500000      0.500000     0.000000    Fractional   0.00
      5 y          0.500000      0.500000     0.000000    Fractional   0.00
      5 z          0.500000      0.500000     0.000000    Fractional   0.00
--------------------------------------------------------------------------------


  Born effective charge tensors : 

-------------------------------------------------------------------------------
  Atom             x           y             z
-------------------------------------------------------------------------------
    1 Cl    x      -0.9489     -0.0000     -0.0000
            y      -0.0000     -0.9489     -0.0000
            z      -0.0000     -0.0000     -0.9489
-------------------------------------------------------------------------------
    2 O     x      -2.4688      0.0000      0.0000
            y       0.0000     -2.4688      0.0000
            z       0.0000      0.0000     -2.4688
-------------------------------------------------------------------------------
    3 Li    x       1.3129      0.0000     -0.0000
            y       0.0000      1.3129      0.0000
            z      -0.0000      0.0000      0.7919
-------------------------------------------------------------------------------




  Elastic Constant Matrix: (Units=GPa)

-------------------------------------------------------------------------------
  Indices      1         2         3         4         5         6    
-------------------------------------------------------------------------------
       1     94.3368   44.9178   44.9178    0.0000   -0.0000    0.0000
       2     44.9178   94.3368   44.9178   -0.0000    0.0000   -0.0000
       3     44.9178   44.9178   94.3368    0.0000   -0.0000    0.0000
       4      0.0000   -0.0000    0.0000   44.9178   -0.0000    0.0000
       5     -0.0000    0.0000   -0.0000   -0.0000   44.9178    0.0000
       6      0.0000   -0.0000    0.0000    0.0000    0.0000   44.9178
-------------------------------------------------------------------------------


  Elastic Compliance Matrix: (Units=1/GPa)

-------------------------------------------------------------------------------
  Indices      1         2         3         4         5         6    
-------------------------------------------------------------------------------
       1    0.015300 -0.004935 -0.004935 -0.000000  0.000000 -0.000000
       2   -0.004935  0.015300 -0.004935  0.000000 -0.000000  0.000000
       3   -0.004935 -0.004935  0.015300 -0.000000  0.000000 -0.000000
       4   -0.000000  0.000000 -0.000000  0.022263  0.000000 -0.000000
       5    0.000000 -0.000000  0.000000  0.000000  0.022263 -0.000000
       6   -0.000000  0.000000 -0.000000 -0.000000 -0.000000  0.022263
-------------------------------------------------------------------------------

  Mechanical properties :

-------------------------------------------------------------------------------
  Convention :                    Reuss         Voigt         Hill
-------------------------------------------------------------------------------
  Bulk  Modulus (GPa)     =      61.39080      61.39080      61.39080
  Shear Modulus (GPa)     =      33.84570      36.83448      35.34009
-------------------------------------------------------------------------------
  Velocity S-wave (km/s)  =       4.12274       4.30092       4.21277
  Velocity P-wave (km/s)  =       7.31386       7.44942       7.38195
-------------------------------------------------------------------------------
  Compressibility (1/GPa) =    0.01628909
-------------------------------------------------------------------------------
  Stress axis :                     x             y             z
-------------------------------------------------------------------------------
  Youngs Moduli (GPa)     =      65.35947      65.35947      65.35947
-------------------------------------------------------------------------------
  Poissons Ratio (x)      =                     0.32256       0.32256
  Poissons Ratio (y)      =       0.32256                     0.32256
  Poissons Ratio (z)      =       0.32256       0.32256
-------------------------------------------------------------------------------


  Piezoelectric Strain Matrix: (Units=C/m**2)

-------------------------------------------------------------------------------
  Indices      1         2         3         4         5         6    
-------------------------------------------------------------------------------
       x    -0.00000   0.00000   0.00000  -0.00000  -0.00000   0.00000
       y    -0.00000   0.00000   0.00000  -0.00000  -0.00000  -0.00000
       z     0.00000   0.00000   0.00000   0.00000  -0.00000  -0.00000
-------------------------------------------------------------------------------


  Piezoelectric Stress Matrix: (Units=10**-11 C/N)

-------------------------------------------------------------------------------
  Indices      1         2         3         4         5         6    
-------------------------------------------------------------------------------
       x    -0.00000   0.00000   0.00000  -0.00000  -0.00000   0.00000
       y    -0.00000   0.00000   0.00000  -0.00000  -0.00000  -0.00000
       z    -0.00000  -0.00000   0.00000   0.00000  -0.00000  -0.00000
-------------------------------------------------------------------------------


  Static dielectric constant tensor : 

-------------------------------------------------------------------------------
              x         y         z
-------------------------------------------------------------------------------
       x    12.11703   0.00000  -0.00000
       y     0.00000  12.11703  -0.00000
       z    -0.00000  -0.00000  12.11703
--------------------------------------------------------------------------------

  High frequency dielectric constant tensor : 

-------------------------------------------------------------------------------
              x         y         z
-------------------------------------------------------------------------------
       x     1.74104   0.00000   0.00000
       y     0.00000   1.74104   0.00000
       z     0.00000   0.00000   1.74104
-------------------------------------------------------------------------------

  Static refractive indices : 

-------------------------------------------------------------------------------
    1 =    3.48095      2 =    3.48095      3 =    3.48095
-------------------------------------------------------------------------------

  High frequency refractive indices : 

-------------------------------------------------------------------------------
    1 =    1.31948      2 =    1.31948      3 =    1.31948
-------------------------------------------------------------------------------


  Time to end of optimisation =       0.0108 seconds

********************************************************************************
*  Defect calculation for configuration   1 :                                  *
********************************************************************************

  Total number of defects =      3

  Total charge on defect  =  -1.00

  Defect centre is at   0.5000   0.2750   0.2250  Frac

  Region 1 radius =  20.0000      Number of ions =   3875

  Number of symmetry inequivalent region 1 ions  =   2103

  Region 2 radius =  24.0000      Number of ions =   2852

  Number of symmetry inequivalent region 2a ions =   1494

  Region 2a mode = 4 : screened electrostatics due to region 1 
                       neglect correction to region 1 forces from 2a
                       region 2a displacements based on defects only

  Region 2a ions will only interact with defects in region 1

  Vacancies:

--------------------------------------------------------------------------------
    Specification type     Symbol/Number         x          y          z
--------------------------------------------------------------------------------
    Fractional                               0.500000   0.500000   0.000000
    Fractional                               0.500000   0.000000   0.500000
--------------------------------------------------------------------------------

  Interstitials:

--------------------------------------------------------------------------------
    Specification type     Symbol/Number         x          y          z
--------------------------------------------------------------------------------
    Atom/Fractional         Li               0.500000   0.275000   0.225000
--------------------------------------------------------------------------------


  Symmetry reduced region 1 (Relative to defect centre) :

--------------------------------------------------------------------------------
   No.   Atomic       x            y             z       Radius  Multiplicity   
         Label      (Angs)       (Angs)        (Angs)    (Angs)     
--------------------------------------------------------------------------------
     1  Li    c      0.0000       0.0000       0.0000    0.0000     1    Defect
     2  O     c      0.0000       0.8822 *     1.0782 *  0.0000     1          
     3  Li    c      1.9603 *     0.8822 *     1.0782 *  0.0000     2          
     4  Cl    c      1.9603 *    -1.0782 *    -0.8822 *  0.0000     2          
     5  O     c      0.0000       0.8822 *    -2.8425 *  0.0000     1          
     6  Li    c      0.0000      -1.0782 *    -2.8425 *  0.0000     1          
     7  Li    c      0.0000       2.8425 *     1.0782 *  0.0000     1          
     8  Li    c      0.0000       0.8822 *     3.0385 *  0.0000     1          
     9  Li    c      0.0000      -3.0385 *    -0.8822 *  0.0000     1          
    10  O     c      0.0000      -3.0385 *     1.0782 *  0.0000     1          
    11  Cl    c      1.9603 *     2.8425 *    -0.8822 *  0.0000     2          
    12  Li    c      1.9603 *     0.8822 *    -2.8425 *  0.0000     2          
    13  Cl    c      1.9603 *    -1.0782 *     3.0385 *  0.0000     2          
    14  Li    c      1.9603 *    -3.0385 *     1.0782 *  0.0000     2          
    15  Li    c      0.0000       2.8425 *    -2.8425 *  0.0000     1          
    16  Li    c     -3.9207 *     0.8822 *    -0.8822 *  0.0000     2          
    17  O     c     -3.9207 *     0.8822 *     1.0782 *  0.0000     2          
    18  O     c      0.0000      -3.0385 *    -2.8425 *  0.0000     1          
    19  Li    c     -3.9207 *    -1.0782 *     1.0782 *  0.0000     2          
    20  Li    c      0.0000      -3.0385 *     3.0385 *  0.0000     1          
    21  Cl    c      1.9603 *     2.8425 *     3.0385 *  0.0000     2          
    22  Li    c      1.9603 *    -3.0385 *    -2.8425 *  0.0000     2          
    23  Li    c      0.0000       4.8028 *    -0.8822 *  0.0000     1          
    24  Li    c      0.0000       0.8822 *    -4.8028 *  0.0000     1          
    25  O     c      0.0000       4.8028 *     1.0782 *  0.0000     1          
    26  O     c      3.9207 *     0.8822 *    -2.8425 *  0.0000     2          
    27  Li    c     -3.9207 *     2.8425 *     1.0782 *  0.0000     2          
    28  Li    c      3.9207 *    -1.0782 *    -2.8425 *  0.0000     2          
    29  Li    c     -3.9207 *     0.8822 *     3.0385 *  0.0000     2          
    30  Li    c     -3.9207 *    -3.0385 *    -0.8822 *  0.0000     2          
    31  O     c     -3.9207 *    -3.0385 *     1.0782 *  0.0000     2          
    32  O     c      0.0000       0.8822 *     4.9989 *  0.0000     1          
    33  Li    c      0.0000      -1.0782 *     4.9989 *  0.0000     1          
    34  Li    c      0.0000      -4.9989 *     1.0782 *  0.0000     1          
    35  Li    c      1.9603 *     4.8028 *     1.0782 *  0.0000     2          
    36  Cl    c      1.9603 *    -1.0782 *    -4.8028 *  0.0000     2          
    37  Cl    c      1.9603 *    -4.9989 *    -0.8822 *  0.0000     2          
    38  Li    c      1.9603 *     0.8822 *     4.9989 *  0.0000     2          
    39  O     c      0.0000       4.8028 *    -2.8425 *  0.0000     1          
    40  Li    c      3.9207 *     2.8425 *    -2.8425 *  0.0000     2          
    41  Li    c      0.0000       4.8028 *     3.0385 *  0.0000     1          
    42  Li    c      0.0000      -3.0385 *    -4.8028 *  0.0000     1          
    43  O     c     -3.9207 *    -3.0385 *    -2.8425 *  0.0000     2          
    44  Li    c      0.0000       2.8425 *     4.9989 *  0.0000     1          
    45  Li    c      0.0000      -4.9989 *    -2.8425 *  0.0000     1          
    46  Li    c     -3.9207 *    -3.0385 *     3.0385 *  0.0000     2          
    47  O     c      0.0000      -3.0385 *     4.9989 *  0.0000     1          
    48  Li    c      1.9603 *     4.8028 *    -2.8425 *  0.0000     2          
    49  Cl    c      1.9603 *     2.8425 *    -4.8028 *  0.0000     2          
    50  Cl    c      5.8810 *    -1.0782 *    -0.8822 *  0.0000     2          
    51  Li    c      5.8810 *     0.8822 *     1.0782 *  0.0000     2          
    52  Cl    c      1.9603 *    -4.9989 *     3.0385 *  0.0000     2          
    53  Li    c      1.9603 *    -3.0385 *     4.9989 *  0.0000     2          
    54  Li    c      3.9207 *     4.8028 *    -0.8822 *  0.0000     2          
    55  Li    c     -3.9207 *     0.8822 *    -4.8028 *  0.0000     2          
    56  O     c      3.9207 *     4.8028 *     1.0782 *  0.0000     2          
    57  O     c      3.9207 *     0.8822 *     4.9989 *  0.0000     2          
    58  Li    c     -3.9207 *    -4.9989 *     1.0782 *  0.0000     2          
    59  Li    c      3.9207 *    -1.0782 *     4.9989 *  0.0000     2          
    60  Cl    c      5.8810 *     2.8425 *    -0.8822 *  0.0000     2          
    61  Li    c      5.8810 *     0.8822 *    -2.8425 *  0.0000     2          
    62  Cl    c      5.8810 *    -1.0782 *     3.0385 *  0.0000     2          
    63  Li    c      5.8810 *    -3.0385 *     1.0782 *  0.0000     2          
    64  Li    c      0.0000       4.8028 *    -4.8028 *  0.0000     1          
    65  O     c      3.9207 *     4.8028 *    -2.8425 *  0.0000     2          
    66  O     c      0.0000       0.8822 *    -6.7632 *  0.0000     1          
    67  Li    c      0.0000      -1.0782 *    -6.7632 *  0.0000     1          
    68  Li    c      0.0000       6.7632 *     1.0782 *  0.0000     1          
    69  Li    c      3.9207 *     4.8028 *     3.0385 *  0.0000     2          
    70  Li    c      3.9207 *    -3.0385 *    -4.8028 *  0.0000     2          
    71  O     c      0.0000       4.8028 *     4.9989 *  0.0000     1          
    72  Li    c     -3.9207 *     2.8425 *     4.9989 *  0.0000     2          
    73  Li    c     -3.9207 *    -4.9989 *    -2.8425 *  0.0000     2          
    74  Li    c      0.0000       0.8822 *     6.9592 *  0.0000     1          
    75  Li    c      0.0000      -6.9592 *    -0.8822 *  0.0000     1          
    76  O     c      0.0000      -6.9592 *     1.0782 *  0.0000     1          
    77  O     c      3.9207 *    -3.0385 *     4.9989 *  0.0000     2          
    78  Li    c      0.0000      -4.9989 *     4.9989 *  0.0000     1          
    79  Cl    c      1.9603 *     6.7632 *    -0.8822 *  0.0000     2          
    80  Li    c      1.9603 *     0.8822 *    -6.7632 *  0.0000     2          
    81  Li    c      1.9603 *     4.8028 *     4.9989 *  0.0000     2          
    82  Cl    c      5.8810 *     2.8425 *     3.0385 *  0.0000     2          
    83  Li    c      5.8810 *    -3.0385 *    -2.8425 *  0.0000     2          
    84  Cl    c      1.9603 *    -4.9989 *    -4.8028 *  0.0000     2          
    85  Cl    c      1.9603 *    -1.0782 *     6.9592 *  0.0000     2          
    86  Li    c      1.9603 *    -6.9592 *     1.0782 *  0.0000     2          
    87  Li    c      0.0000       2.8425 *    -6.7632 *  0.0000     1          
    88  Li    c      0.0000       6.7632 *    -2.8425 *  0.0000     1          
    89  O     c      0.0000      -3.0385 *    -6.7632 *  0.0000     1          
    90  O     c      0.0000      -6.9592 *    -2.8425 *  0.0000     1          
    91  Li    c      0.0000      -3.0385 *     6.9592 *  0.0000     1          
    92  Li    c      0.0000      -6.9592 *     3.0385 *  0.0000     1          
    93  Li    c      5.8810 *     4.8028 *     1.0782 *  0.0000     2          
    94  Cl    c      1.9603 *     6.7632 *     3.0385 *  0.0000     2          
    95  Cl    c      5.8810 *    -1.0782 *    -4.8028 *  0.0000     2          
    96  Li    c      1.9603 *    -3.0385 *    -6.7632 *  0.0000     2          
    97  Li    c      1.9603 *    -6.9592 *    -2.8425 *  0.0000     2          
    98  Cl    c      1.9603 *     2.8425 *     6.9592 *  0.0000     2          
    99  Cl    c      5.8810 *    -4.9989 *    -0.8822 *  0.0000     2          
   100  Li    c      5.8810 *     0.8822 *     4.9989 *  0.0000     2          
   101  Li    c      3.9207 *     4.8028 *    -4.8028 *  0.0000     2          
   102  O     c      3.9207 *     0.8822 *    -6.7632 *  0.0000     2          
   103  Li    c     -3.9207 *     6.7632 *     1.0782 *  0.0000     2          
   104  Li    c      3.9207 *    -1.0782 *    -6.7632 *  0.0000     2          
   105  Li    c     -7.8414 *     0.8822 *    -0.8822 *  0.0000     2          
   106  O     c      3.9207 *     4.8028 *     4.9989 *  0.0000     2          
   107  O     c     -7.8414 *     0.8822 *     1.0782 *  0.0000     2          
   108  Li    c     -7.8414 *    -1.0782 *     1.0782 *  0.0000     2          
   109  Li    c     -3.9207 *     0.8822 *     6.9592 *  0.0000     2          
   110  Li    c     -3.9207 *    -6.9592 *    -0.8822 *  0.0000     2          
   111  O     c     -3.9207 *    -6.9592 *     1.0782 *  0.0000     2          
   112  Li    c      3.9207 *    -4.9989 *     4.9989 *  0.0000     2          
   113  Li    c      5.8810 *     4.8028 *    -2.8425 *  0.0000     2          
   114  Cl    c      5.8810 *     2.8425 *    -4.8028 *  0.0000     2          
   115  Cl    c      5.8810 *    -4.9989 *     3.0385 *  0.0000     2          
   116  O     c      0.0000       4.8028 *    -6.7632 *  0.0000     1          
   117  Li    c      5.8810 *    -3.0385 *     4.9989 *  0.0000     2          
   118  Li    c      3.9207 *     2.8425 *    -6.7632 *  0.0000     2          
   119  Li    c     -3.9207 *     6.7632 *    -2.8425 *  0.0000     2          
   120  O     c     -7.8414 *     0.8822 *    -2.8425 *  0.0000     2          
   121  O     c      3.9207 *    -3.0385 *    -6.7632 *  0.0000     2          
   122  Li    c     -7.8414 *    -1.0782 *    -2.8425 *  0.0000     2          
   123  Li    c      0.0000       6.7632 *     4.9989 *  0.0000     1          
   124  Li    c      0.0000      -4.9989 *    -6.7632 *  0.0000     1          
   125  Li    c     -7.8414 *     2.8425 *     1.0782 *  0.0000     2          
   126  Li    c      0.0000       4.8028 *     6.9592 *  0.0000     1          
   127  Li    c      0.0000      -6.9592 *    -4.8028 *  0.0000     1          
   128  Li    c     -7.8414 *     0.8822 *     3.0385 *  0.0000     2          
   129  Li    c     -7.8414 *    -3.0385 *    -0.8822 *  0.0000     2          
   130  O     c      3.9207 *    -6.9592 *    -2.8425 *  0.0000     2          
   131  O     c     -7.8414 *    -3.0385 *     1.0782 *  0.0000     2          
   132  Cl    c      1.9603 *     6.7632 *    -4.8028 *  0.0000     2          
   133  Li    c      1.9603 *     4.8028 *    -6.7632 *  0.0000     2          
   134  Li    c     -3.9207 *    -3.0385 *     6.9592 *  0.0000     2          
   135  Li    c     -3.9207 *    -6.9592 *     3.0385 *  0.0000     2          
   136  O     c      0.0000      -6.9592 *     4.9989 *  0.0000     1          
   137  Li    c      0.0000       0.8822 *    -8.7235 *  0.0000     1          
   138  Li    c      0.0000       8.7235 *    -0.8822 *  0.0000     1          
   139  Cl    c      1.9603 *    -4.9989 *     6.9592 *  0.0000     2          
   140  Li    c      1.9603 *    -6.9592 *     4.9989 *  0.0000     2          
   141  O     c      0.0000       8.7235 *     1.0782 *  0.0000     1          
   142  Li    c     -7.8414 *     2.8425 *    -2.8425 *  0.0000     2          
   143  O     c     -7.8414 *    -3.0385 *    -2.8425 *  0.0000     2          
   144  Li    c     -7.8414 *    -3.0385 *     3.0385 *  0.0000     2          
   145  O     c      0.0000       0.8822 *     8.9195 *  0.0000     1          
   146  Li    c      0.0000      -1.0782 *     8.9195 *  0.0000     1          
   147  Li    c      0.0000      -8.9195 *     1.0782 *  0.0000     1          
   148  Cl    c      1.9603 *    -1.0782 *    -8.7235 *  0.0000     2          
   149  Cl    c      5.8810 *     6.7632 *    -0.8822 *  0.0000     2          
   150  Li    c      5.8810 *     0.8822 *    -6.7632 *  0.0000     2          
   151  Li    c      1.9603 *     8.7235 *     1.0782 *  0.0000     2          
   152  Li    c      5.8810 *     4.8028 *     4.9989 *  0.0000     2          
   153  Cl    c      5.8810 *    -4.9989 *    -4.8028 *  0.0000     2          
   154  Li    c      1.9603 *     0.8822 *     8.9195 *  0.0000     2          
   155  Cl    c      1.9603 *    -8.9195 *    -0.8822 *  0.0000     2          
   156  Cl    c      5.8810 *    -1.0782 *     6.9592 *  0.0000     2          
   157  O     c      0.0000       8.7235 *    -2.8425 *  0.0000     1          
   158  O     c      3.9207 *     4.8028 *    -6.7632 *  0.0000     2          
   159  Li    c      5.8810 *    -6.9592 *     1.0782 *  0.0000     2          
   160  Li    c     -7.8414 *     0.8822 *    -4.8028 *  0.0000     2          
   161  Li    c     -7.8414 *     4.8028 *    -0.8822 *  0.0000     2          
   162  Li    c      0.0000       8.7235 *     3.0385 *  0.0000     1          
   163  Li    c      0.0000      -3.0385 *    -8.7235 *  0.0000     1          
   164  O     c     -7.8414 *     4.8028 *     1.0782 *  0.0000     2          
   165  Li    c     -3.9207 *     6.7632 *     4.9989 *  0.0000     2          
   166  Li    c     -3.9207 *    -4.9989 *    -6.7632 *  0.0000     2          
   167  Li    c      3.9207 *     4.8028 *     6.9592 *  0.0000     2          
   168  Li    c      3.9207 *    -6.9592 *    -4.8028 *  0.0000     2          
   169  O     c     -7.8414 *     0.8822 *     4.9989 *  0.0000     2          
   170  Li    c      0.0000       2.8425 *     8.9195 *  0.0000     1          
   171  Li    c      0.0000      -8.9195 *    -2.8425 *  0.0000     1          
   172  Li    c      7.8414 *    -1.0782 *     4.9989 *  0.0000     2          
   173  Li    c     -7.8414 *    -4.9989 *     1.0782 *  0.0000     2          
   174  Cl    c      1.9603 *     2.8425 *    -8.7235 *  0.0000     2          
   175  Li    c      1.9603 *     8.7235 *    -2.8425 *  0.0000     2          
   176  O     c      0.0000      -3.0385 *     8.9195 *  0.0000     1          
   177  O     c      3.9207 *    -6.9592 *     4.9989 *  0.0000     2          
   178  Cl    c      5.8810 *     6.7632 *     3.0385 *  0.0000     2          
   179  Li    c      5.8810 *    -3.0385 *    -6.7632 *  0.0000     2          
   180  Cl    c      5.8810 *     2.8425 *     6.9592 *  0.0000     2          
   181  Li    c      5.8810 *    -6.9592 *    -2.8425 *  0.0000     2          
   182  Li    c      0.0000       6.7632 *    -6.7632 *  0.0000     1          
   183  Li    c      3.9207 *     0.8822 *    -8.7235 *  0.0000     2          
   184  Li    c      3.9207 *     8.7235 *    -0.8822 *  0.0000     2          
   185  O     c     -7.8414 *     4.8028 *    -2.8425 *  0.0000     2          
   186  Li    c      1.9603 *    -3.0385 *     8.9195 *  0.0000     2          
   187  Cl    c      1.9603 *    -8.9195 *     3.0385 *  0.0000     2          
   188  O     c      3.9207 *     8.7235 *     1.0782 *  0.0000     2          
   189  Li    c     -7.8414 *     4.8028 *     3.0385 *  0.0000     2          
   190  Li    c     -7.8414 *    -3.0385 *    -4.8028 *  0.0000     2          
   191  O     c      0.0000      -6.9592 *    -6.7632 *  0.0000     1          
   192  Li    c     -7.8414 *    -4.9989 *    -2.8425 *  0.0000     2          
   193  Li    c      7.8414 *     2.8425 *     4.9989 *  0.0000     2          
   194  O     c     -3.9207 *     0.8822 *     8.9195 *  0.0000     2          
   195  O     c      7.8414 *    -3.0385 *     4.9989 *  0.0000     2          
   196  Li    c      3.9207 *    -1.0782 *     8.9195 *  0.0000     2          
   197  Li    c      3.9207 *    -8.9195 *     1.0782 *  0.0000     2          
   198  Li    c      0.0000      -6.9592 *     6.9592 *  0.0000     1          
   199  Cl    c      1.9603 *     6.7632 *     6.9592 *  0.0000     2          
   200  Li    c      1.9603 *    -6.9592 *    -6.7632 *  0.0000     2          
   201  Cl    c      9.8017 *    -1.0782 *    -0.8822 *  0.0000     2          
   202  Li    c      9.8017 *     0.8822 *     1.0782 *  0.0000     2          
   203  Li    c      0.0000       4.8028 *    -8.7235 *  0.0000     1          
   204  Li    c      0.0000       8.7235 *    -4.8028 *  0.0000     1          
   205  O     c      3.9207 *     8.7235 *    -2.8425 *  0.0000     2          
   206  Li    c      3.9207 *     8.7235 *     3.0385 *  0.0000     2          
   207  Li    c      3.9207 *    -3.0385 *    -8.7235 *  0.0000     2          
   208  O     c      0.0000       8.7235 *     4.9989 *  0.0000     1          
   209  O     c      0.0000       4.8028 *     8.9195 *  0.0000     1          
   210  Li    c      3.9207 *     2.8425 *     8.9195 *  0.0000     2          
   211  Li    c      3.9207 *    -8.9195 *    -2.8425 *  0.0000     2          
   212  Li    c      5.8810 *     4.8028 *    -6.7632 *  0.0000     2          
   213  Cl    c      5.8810 *     6.7632 *    -4.8028 *  0.0000     2          
   214  O     c     -3.9207 *    -3.0385 *     8.9195 *  0.0000     2          
   215  Li    c      0.0000      -4.9989 *     8.9195 *  0.0000     1          
   216  Li    c      0.0000      -8.9195 *     4.9989 *  0.0000     1          
   217  Cl    c      1.9603 *    -4.9989 *    -8.7235 *  0.0000     2          
   218  Cl    c      9.8017 *     2.8425 *    -0.8822 *  0.0000     2          
   219  Li    c      1.9603 *     8.7235 *     4.9989 *  0.0000     2          
   220  Li    c      9.8017 *     0.8822 *    -2.8425 *  0.0000     2          
   221  Li    c      1.9603 *     4.8028 *     8.9195 *  0.0000     2          
   222  Cl    c      1.9603 *    -8.9195 *    -4.8028 *  0.0000     2          
   223  Cl    c      9.8017 *    -1.0782 *     3.0385 *  0.0000     2          
   224  Li    c      9.8017 *    -3.0385 *     1.0782 *  0.0000     2          
   225  Li    c      3.9207 *     6.7632 *    -6.7632 *  0.0000     2          
   226  Li    c     -7.8414 *     4.8028 *    -4.8028 *  0.0000     2          
   227  Cl    c      5.8810 *    -4.9989 *     6.9592 *  0.0000     2          
   228  O     c      7.8414 *     0.8822 *    -6.7632 *  0.0000     2          
   229  Li    c      5.8810 *    -6.9592 *     4.9989 *  0.0000     2          
   230  Li    c     -7.8414 *    -1.0782 *    -6.7632 *  0.0000     2          
   231  Li    c     -7.8414 *     6.7632 *     1.0782 *  0.0000     2          
   232  O     c     -7.8414 *     4.8028 *     4.9989 *  0.0000     2          
   233  O     c     -3.9207 *    -6.9592 *    -6.7632 *  0.0000     2          
   234  Li    c     -7.8414 *     0.8822 *     6.9592 *  0.0000     2          
   235  Li    c     -7.8414 *    -6.9592 *    -0.8822 *  0.0000     2          
   236  O     c     -7.8414 *    -6.9592 *     1.0782 *  0.0000     2          
   237  Li    c      7.8414 *    -4.9989 *     4.9989 *  0.0000     2          
   238  Cl    c      5.8810 *    -1.0782 *    -8.7235 *  0.0000     2          
   239  Li    c      5.8810 *     8.7235 *     1.0782 *  0.0000     2          
   240  Li    c     -3.9207 *    -6.9592 *     6.9592 *  0.0000     2          
   241  Cl    c      9.8017 *     2.8425 *     3.0385 *  0.0000     2          
   242  Li    c      9.8017 *    -3.0385 *    -2.8425 *  0.0000     2          
   243  Li    c      3.9207 *     4.8028 *    -8.7235 *  0.0000     2          
   244  Li    c      3.9207 *     8.7235 *    -4.8028 *  0.0000     2          
   245  O     c      0.0000       0.8822 *   -10.6838 *  0.0000     1          
   246  Li    c      5.8810 *     0.8822 *     8.9195 *  0.0000     2          
   247  Cl    c      5.8810 *    -8.9195 *    -0.8822 *  0.0000     2          
   248  Li    c      0.0000      -1.0782 *   -10.6838 *  0.0000     1          
   249  Li    c      0.0000      10.6838 *     1.0782 *  0.0000     1          
   250  Li    c     -7.8414 *     2.8425 *    -6.7632 *  0.0000     2          
   251  Li    c     -7.8414 *     6.7632 *    -2.8425 *  0.0000     2          
   252  O     c     -7.8414 *    -3.0385 *    -6.7632 *  0.0000     2          
   253  O     c      3.9207 *     8.7235 *     4.9989 *  0.0000     2          
   254  O     c      3.9207 *     4.8028 *     8.9195 *  0.0000     2          
   255  O     c     -7.8414 *    -6.9592 *    -2.8425 *  0.0000     2          
   256  Li    c      1.9603 *     0.8822 *   -10.6838 *  0.0000     2          
   257  Cl    c      1.9603 *    10.6838 *    -0.8822 *  0.0000     2          
   258  Cl    c      5.8810 *     2.8425 *    -8.7235 *  0.0000     2          
   259  Li    c      5.8810 *     8.7235 *    -2.8425 *  0.0000     2          
   260  Li    c      0.0000       0.8822 *    10.8799 *  0.0000     1          
   261  Li    c      0.0000     -10.8799 *    -0.8822 *  0.0000     1          
   262  Li    c     -7.8414 *    -3.0385 *     6.9592 *  0.0000     2          
   263  Li    c     -7.8414 *    -6.9592 *     3.0385 *  0.0000     2          
   264  O     c      0.0000     -10.8799 *     1.0782 *  0.0000     1          
   265  Li    c      3.9207 *    -4.9989 *     8.9195 *  0.0000     2          
   266  Li    c      3.9207 *    -8.9195 *     4.9989 *  0.0000     2          
   267  Li    c      9.8017 *     4.8028 *     1.0782 *  0.0000     2          
   268  Cl    c      9.8017 *    -1.0782 *    -4.8028 *  0.0000     2          
   269  O     c      0.0000       8.7235 *    -6.7632 *  0.0000     1          
   270  Li    c      9.8017 *     0.8822 *     4.9989 *  0.0000     2          
   271  Cl    c      9.8017 *    -4.9989 *    -0.8822 *  0.0000     2          
   272  Li    c      0.0000       2.8425 *   -10.6838 *  0.0000     1          
   273  Li    c      0.0000      10.6838 *    -2.8425 *  0.0000     1          
   274  O     c      0.0000      -3.0385 *   -10.6838 *  0.0000     1          
   275  Cl    c      1.9603 *    -1.0782 *    10.8799 *  0.0000     2          
   276  Cl    c      5.8810 *    -8.9195 *     3.0385 *  0.0000     2          
   277  Li    c      1.9603 *   -10.8799 *     1.0782 *  0.0000     2          
   278  Li    c      5.8810 *    -3.0385 *     8.9195 *  0.0000     2          
   279  Li    c      0.0000       8.7235 *     6.9592 *  0.0000     1          
   280  Li    c      0.0000      -6.9592 *    -8.7235 *  0.0000     1          
   281  Li    c      0.0000       6.7632 *     8.9195 *  0.0000     1          
   282  Li    c      0.0000      -8.9195 *    -6.7632 *  0.0000     1          
   283  Cl    c      1.9603 *     6.7632 *    -8.7235 *  0.0000     2          
   284  Li    c      1.9603 *     8.7235 *    -6.7632 *  0.0000     2          
   285  O     c      0.0000     -10.8799 *    -2.8425 *  0.0000     1          
   286  Li    c      1.9603 *    -3.0385 *   -10.6838 *  0.0000     2          
   287  Cl    c      1.9603 *    10.6838 *     3.0385 *  0.0000     2          
   288  Li    c      9.8017 *     4.8028 *    -2.8425 *  0.0000     2          
   289  Cl    c      9.8017 *     2.8425 *    -4.8028 *  0.0000     2          
   290  Li    c      0.0000      -3.0385 *    10.8799 *  0.0000     1          
   291  Li    c      0.0000     -10.8799 *     3.0385 *  0.0000     1          
   292  O     c      0.0000      -6.9592 *     8.9195 *  0.0000     1          
   293  Cl    c      5.8810 *     6.7632 *     6.9592 *  0.0000     2          
   294  Li    c      5.8810 *    -6.9592 *    -6.7632 *  0.0000     2          
   295  Cl    c      1.9603 *     2.8425 *    10.8799 *  0.0000     2          
   296  O     c      3.9207 *     0.8822 *   -10.6838 *  0.0000     2          
   297  O     c      7.8414 *     4.8028 *    -6.7632 *  0.0000     2          
   298  Li    c      1.9603 *   -10.8799 *    -2.8425 *  0.0000     2          
   299  Cl    c      9.8017 *    -4.9989 *     3.0385 *  0.0000     2          
   300  Li    c      9.8017 *    -3.0385 *     4.9989 *  0.0000     2          
   301  Li    c      3.9207 *    -1.0782 *   -10.6838 *  0.0000     2          
   302  Li    c      3.9207 *    10.6838 *     1.0782 *  0.0000     2          
   303  Cl    c      1.9603 *    -8.9195 *     6.9592 *  0.0000     2          
   304  Li    c      1.9603 *    -6.9592 *     8.9195 *  0.0000     2          
   305  Li    c     -7.8414 *     6.7632 *     4.9989 *  0.0000     2          
   306  Li    c     -7.8414 *    -4.9989 *    -6.7632 *  0.0000     2          
   307  Li    c     -7.8414 *     4.8028 *     6.9592 *  0.0000     2          
   308  Li    c     -7.8414 *    -6.9592 *    -4.8028 *  0.0000     2          
   309  Li    c      3.9207 *     0.8822 *    10.8799 *  0.0000     2          
   310  Li    c      3.9207 *   -10.8799 *    -0.8822 *  0.0000     2          
   311  O     c      3.9207 *   -10.8799 *     1.0782 *  0.0000     2          
   312  O     c     -7.8414 *    -6.9592 *     4.9989 *  0.0000     2          
   313  Cl    c      5.8810 *    -4.9989 *    -8.7235 *  0.0000     2          
   314  Li    c      5.8810 *     8.7235 *     4.9989 *  0.0000     2          
   315  O     c      0.0000       4.8028 *   -10.6838 *  0.0000     1          
   316  Li    c      5.8810 *     4.8028 *     8.9195 *  0.0000     2          
   317  Cl    c      5.8810 *    -8.9195 *    -4.8028 *  0.0000     2          
   318  O     c      3.9207 *     8.7235 *    -6.7632 *  0.0000     2          
   319  Li    c      3.9207 *     2.8425 *   -10.6838 *  0.0000     2          
   320  Li    c      3.9207 *    10.6838 *    -2.8425 *  0.0000     2          
   321  Li    c      7.8414 *     8.7235 *    -0.8822 *  0.0000     2          
   322  Li    c     -7.8414 *     0.8822 *    -8.7235 *  0.0000     2          
   323  O     c      3.9207 *    -3.0385 *   -10.6838 *  0.0000     2          
   324  O     c      7.8414 *     8.7235 *     1.0782 *  0.0000     2          
   325  Li    c      0.0000      -4.9989 *   -10.6838 *  0.0000     1          
   326  Li    c      0.0000      10.6838 *     4.9989 *  0.0000     1          
   327  Li    c     11.7620 *     0.8822 *    -0.8822 *  0.0000     2          
   328  Li    c      3.9207 *     8.7235 *     6.9592 *  0.0000     2          
   329  Li    c      3.9207 *    -6.9592 *    -8.7235 *  0.0000     2          
   330  O     c     11.7620 *     0.8822 *     1.0782 *  0.0000     2          
   331  Li    c      3.9207 *     6.7632 *     8.9195 *  0.0000     2          
   332  Li    c      3.9207 *    -8.9195 *    -6.7632 *  0.0000     2          
   333  Li    c     11.7620 *    -1.0782 *     1.0782 *  0.0000     2          
   334  Li    c      1.9603 *     4.8028 *   -10.6838 *  0.0000     2          
   335  Cl    c      1.9603 *    10.6838 *    -4.8028 *  0.0000     2          
   336  Li    c      0.0000       4.8028 *    10.8799 *  0.0000     1          
   337  Li    c      0.0000     -10.8799 *    -4.8028 *  0.0000     1          
   338  O     c      3.9207 *   -10.8799 *    -2.8425 *  0.0000     2          
   339  O     c      7.8414 *     0.8822 *     8.9195 *  0.0000     2          
   340  Li    c     -7.8414 *    -1.0782 *     8.9195 *  0.0000     2          
   341  Li    c     -7.8414 *    -8.9195 *     1.0782 *  0.0000     2          
   342  Cl    c      9.8017 *     6.7632 *    -0.8822 *  0.0000     2          
   343  Li    c      9.8017 *     0.8822 *    -6.7632 *  0.0000     2          
   344  Li    c      3.9207 *    -3.0385 *    10.8799 *  0.0000     2          
   345  Li    c      3.9207 *   -10.8799 *     3.0385 *  0.0000     2          
   346  O     c      0.0000     -10.8799 *     4.9989 *  0.0000     1          
   347  O     c     -3.9207 *    -6.9592 *     8.9195 *  0.0000     2          
   348  Li    c      9.8017 *     4.8028 *     4.9989 *  0.0000     2          
   349  Cl    c      9.8017 *    -4.9989 *    -4.8028 *  0.0000     2          
   350  Cl    c      9.8017 *    -1.0782 *     6.9592 *  0.0000     2          
   351  O     c      7.8414 *     8.7235 *    -2.8425 *  0.0000     2          
   352  Li    c      9.8017 *    -6.9592 *     1.0782 *  0.0000     2          
   353  Li    c     -7.8414 *    -3.0385 *    -8.7235 *  0.0000     2          
   354  Li    c      7.8414 *     8.7235 *     3.0385 *  0.0000     2          
   355  Cl    c      1.9603 *    -4.9989 *    10.8799 *  0.0000     2          
   356  O     c     11.7620 *     0.8822 *    -2.8425 *  0.0000     2          
   357  Li    c      1.9603 *   -10.8799 *     4.9989 *  0.0000     2          
   358  Li    c     11.7620 *    -1.0782 *    -2.8425 *  0.0000     2          
   359  Li    c     11.7620 *     2.8425 *     1.0782 *  0.0000     2          
   360  Li    c     11.7620 *     0.8822 *     3.0385 *  0.0000     2          
   361  Li    c     11.7620 *    -3.0385 *    -0.8822 *  0.0000     2          
   362  O     c     11.7620 *    -3.0385 *     1.0782 *  0.0000     2          
   363  Li    c     -7.8414 *     2.8425 *     8.9195 *  0.0000     2          
   364  Li    c     -7.8414 *    -8.9195 *    -2.8425 *  0.0000     2          
   365  Li    c      5.8810 *     0.8822 *   -10.6838 *  0.0000     2          
   366  Cl    c      5.8810 *    10.6838 *    -0.8822 *  0.0000     2          
   367  O     c     -7.8414 *    -3.0385 *     8.9195 *  0.0000     2          
   368  Cl    c      9.8017 *     6.7632 *     3.0385 *  0.0000     2          
   369  Li    c      9.8017 *    -3.0385 *    -6.7632 *  0.0000     2          
   370  Li    c      0.0000       8.7235 *    -8.7235 *  0.0000     1          
   371  O     c      3.9207 *     4.8028 *   -10.6838 *  0.0000     2          
   372  Cl    c      9.8017 *     2.8425 *     6.9592 *  0.0000     2          
   373  Li    c      9.8017 *    -6.9592 *    -2.8425 *  0.0000     2          
   374  Li    c      7.8414 *     6.7632 *    -6.7632 *  0.0000     2          
   375  Cl    c      5.8810 *    -1.0782 *    10.8799 *  0.0000     2          
   376  Li    c      5.8810 *   -10.8799 *     1.0782 *  0.0000     2          
   377  Li    c      3.9207 *    -4.9989 *   -10.6838 *  0.0000     2          
   378  Li    c      3.9207 *    10.6838 *     4.9989 *  0.0000     2          
   379  Li    c     11.7620 *     2.8425 *    -2.8425 *  0.0000     2          
   380  O     c     -7.8414 *    -6.9592 *    -6.7632 *  0.0000     2          
   381  O     c      0.0000       8.7235 *     8.9195 *  0.0000     1          
   382  O     c     11.7620 *    -3.0385 *    -2.8425 *  0.0000     2          
   383  Cl    c      5.8810 *     6.7632 *    -8.7235 *  0.0000     2          
   384  Li    c      5.8810 *     8.7235 *    -6.7632 *  0.0000     2          
   385  Li    c      3.9207 *     4.8028 *    10.8799 *  0.0000     2          
   386  Li    c      3.9207 *   -10.8799 *    -4.8028 *  0.0000     2          
   387  Li    c     11.7620 *    -3.0385 *     3.0385 *  0.0000     2          
   388  Li    c      5.8810 *    -3.0385 *   -10.6838 *  0.0000     2          
   389  Cl    c      5.8810 *    10.6838 *     3.0385 *  0.0000     2          
   390  Li    c     -7.8414 *    -6.9592 *     6.9592 *  0.0000     2          
   391  O     c      3.9207 *   -10.8799 *     4.9989 *  0.0000     2          
   392  Li    c      0.0000      -8.9195 *     8.9195 *  0.0000     1          
   393  Cl    c      1.9603 *    -8.9195 *    -8.7235 *  0.0000     2          
   394  Li    c      1.9603 *     8.7235 *     8.9195 *  0.0000     2          
   395  Li    c      0.0000       6.7632 *   -10.6838 *  0.0000     1          
   396  Li    c      0.0000      10.6838 *    -6.7632 *  0.0000     1          
   397  Li    c      0.0000       0.8822 *   -12.6442 *  0.0000     1          
   398  Li    c      0.0000      12.6442 *    -0.8822 *  0.0000     1          
   399  Li    c      7.8414 *     4.8028 *    -8.7235 *  0.0000     2          
   400  Li    c      7.8414 *     8.7235 *    -4.8028 *  0.0000     2          
   401  Cl    c      5.8810 *     2.8425 *    10.8799 *  0.0000     2          
   402  O     c      0.0000      12.6442 *     1.0782 *  0.0000     1          
   403  Li    c      5.8810 *   -10.8799 *    -2.8425 *  0.0000     2          
   404  Li    c     11.7620 *     4.8028 *    -0.8822 *  0.0000     2          
   405  Li    c     11.7620 *     0.8822 *    -4.8028 *  0.0000     2          
   406  O     c      0.0000      -6.9592 *   -10.6838 *  0.0000     1          
   407  Cl    c      5.8810 *    -8.9195 *     6.9592 *  0.0000     2          
   408  O     c     11.7620 *     4.8028 *     1.0782 *  0.0000     2          
   409  Li    c      5.8810 *    -6.9592 *     8.9195 *  0.0000     2          
   410  O     c      7.8414 *     8.7235 *     4.9989 *  0.0000     2          
   411  O     c     -7.8414 *     4.8028 *     8.9195 *  0.0000     2          
   412  O     c      0.0000     -10.8799 *    -6.7632 *  0.0000     1          
   413  O     c     11.7620 *     0.8822 *     4.9989 *  0.0000     2          
   414  Li    c     11.7620 *    -1.0782 *     4.9989 *  0.0000     2          
   415  Li    c     11.7620 *    -4.9989 *     1.0782 *  0.0000     2          
   416  Cl    c      1.9603 *    -1.0782 *   -12.6442 *  0.0000     2          
   417  Li    c      1.9603 *    12.6442 *     1.0782 *  0.0000     2          
   418  Li    c      9.8017 *     4.8028 *    -6.7632 *  0.0000     2          
   419  Cl    c      9.8017 *     6.7632 *    -4.8028 *  0.0000     2          
   420  O     c      0.0000       0.8822 *    12.8402 *  0.0000     1          
   421  Li    c      0.0000      -1.0782 *    12.8402 *  0.0000     1          
   422  Li    c      0.0000     -12.8402 *     1.0782 *  0.0000     1          
   423  Li    c      7.8414 *    -4.9989 *     8.9195 *  0.0000     2          
   424  Li    c     -7.8414 *    -8.9195 *     4.9989 *  0.0000     2          
   425  Li    c      1.9603 *    -6.9592 *   -10.6838 *  0.0000     2          
   426  Cl    c      1.9603 *    10.6838 *     6.9592 *  0.0000     2          
   427  Li    c      0.0000      -6.9592 *    10.8799 *  0.0000     1          
   428  Li    c      0.0000     -10.8799 *     6.9592 *  0.0000     1          
   429  Li    c      3.9207 *     8.7235 *    -8.7235 *  0.0000     2          
   430  Cl    c      1.9603 *     6.7632 *    10.8799 *  0.0000     2          
   431  O     c      0.0000      12.6442 *    -2.8425 *  0.0000     1          
   432  Li    c      1.9603 *   -10.8799 *    -6.7632 *  0.0000     2          
   433  Li    c      0.0000      -3.0385 *   -12.6442 *  0.0000     1          
   434  Li    c      0.0000      12.6442 *     3.0385 *  0.0000     1          
   435  Cl    c      1.9603 *   -12.8402 *    -0.8822 *  0.0000     2          
   436  O     c     11.7620 *     4.8028 *    -2.8425 *  0.0000     2          
   437  Li    c      1.9603 *     0.8822 *    12.8402 *  0.0000     2          
   438  Cl    c      9.8017 *    -4.9989 *     6.9592 *  0.0000     2          
   439  Li    c      9.8017 *    -6.9592 *     4.9989 *  0.0000     2          
   440  Li    c     11.7620 *     4.8028 *     3.0385 *  0.0000     2          
   441  Li    c     11.7620 *    -3.0385 *    -4.8028 *  0.0000     2          
   442  O     c      3.9207 *     8.7235 *     8.9195 *  0.0000     2          
   443  Li    c     11.7620 *     2.8425 *     4.9989 *  0.0000     2          
   444  Li    c     11.7620 *    -4.9989 *    -2.8425 *  0.0000     2          
   445  Cl    c      1.9603 *     2.8425 *   -12.6442 *  0.0000     2          
   446  Li    c      5.8810 *     4.8028 *   -10.6838 *  0.0000     2          
   447  Li    c      1.9603 *    12.6442 *    -2.8425 *  0.0000     2          
   448  Cl    c      5.8810 *    10.6838 *    -4.8028 *  0.0000     2          
   449  O     c     11.7620 *    -3.0385 *     4.9989 *  0.0000     2          
   450  Li    c      0.0000       2.8425 *    12.8402 *  0.0000     1          
   451  Li    c      0.0000     -12.8402 *    -2.8425 *  0.0000     1          
   452  Cl    c      9.8017 *    -1.0782 *    -8.7235 *  0.0000     2          
   453  Li    c      9.8017 *     8.7235 *     1.0782 *  0.0000     2          
   454  O     c      0.0000      -3.0385 *    12.8402 *  0.0000     1          
   455  Li    c      3.9207 *    -8.9195 *     8.9195 *  0.0000     2          
   456  Li    c      3.9207 *     6.7632 *   -10.6838 *  0.0000     2          
   457  Li    c      3.9207 *    10.6838 *    -6.7632 *  0.0000     2          
   458  Li    c      3.9207 *     0.8822 *   -12.6442 *  0.0000     2          
   459  Li    c      3.9207 *    12.6442 *    -0.8822 *  0.0000     2          
   460  O     c      3.9207 *    12.6442 *     1.0782 *  0.0000     2          
   461  O     c      7.8414 *     0.8822 *   -10.6838 *  0.0000     2          
   462  Cl    c      9.8017 *    -8.9195 *    -0.8822 *  0.0000     2          
   463  Li    c      9.8017 *     0.8822 *     8.9195 *  0.0000     2          
   464  Li    c     -7.8414 *    -1.0782 *   -10.6838 *  0.0000     2          
   465  Li    c     -7.8414 *    10.6838 *     1.0782 *  0.0000     2          
   466  O     c     -3.9207 *    -6.9592 *   -10.6838 *  0.0000     2          
   467  Cl    c      1.9603 *   -12.8402 *     3.0385 *  0.0000     2          
   468  Cl    c      5.8810 *    -4.9989 *    10.8799 *  0.0000     2          
   469  Li    c      1.9603 *    -3.0385 *    12.8402 *  0.0000     2          
   470  Li    c      5.8810 *   -10.8799 *     4.9989 *  0.0000     2          
   471  O     c      3.9207 *   -10.8799 *    -6.7632 *  0.0000     2          
   472  Cl    c      9.8017 *     2.8425 *    -8.7235 *  0.0000     2          
   473  Li    c      9.8017 *     8.7235 *    -2.8425 *  0.0000     2          
   474  Li    c      7.8414 *     0.8822 *    10.8799 *  0.0000     2          
   475  Li    c      7.8414 *   -10.8799 *    -0.8822 *  0.0000     2          
   476  O     c      3.9207 *     0.8822 *    12.8402 *  0.0000     2          
   477  O     c      7.8414 *   -10.8799 *     1.0782 *  0.0000     2          
   478  Li    c      3.9207 *    -1.0782 *    12.8402 *  0.0000     2          
   479  Li    c      3.9207 *   -12.8402 *     1.0782 *  0.0000     2          
   480  Li    c      3.9207 *    -6.9592 *    10.8799 *  0.0000     2          
   481  Li    c      3.9207 *   -10.8799 *     6.9592 *  0.0000     2          
   482  Li    c      0.0000       4.8028 *   -12.6442 *  0.0000     1          
   483  Li    c      0.0000      12.6442 *    -4.8028 *  0.0000     1          
   484  O     c      3.9207 *    12.6442 *    -2.8425 *  0.0000     2          
   485  O     c      7.8414 *     8.7235 *    -6.7632 *  0.0000     2          
   486  Li    c     -7.8414 *     2.8425 *   -10.6838 *  0.0000     2          
   487  Li    c     -7.8414 *    10.6838 *    -2.8425 *  0.0000     2          
   488  Li    c      3.9207 *    -3.0385 *   -12.6442 *  0.0000     2          
   489  Li    c      3.9207 *    12.6442 *     3.0385 *  0.0000     2          
   490  Li    c     11.7620 *     4.8028 *    -4.8028 *  0.0000     2          
   491  O     c     -7.8414 *    -3.0385 *   -10.6838 *  0.0000     2          
   492  O     c      0.0000      12.6442 *     4.9989 *  0.0000     1          
   493  O     c     11.7620 *     0.8822 *    -6.7632 *  0.0000     2          
   494  Cl    c      9.8017 *    -8.9195 *     3.0385 *  0.0000     2          
   495  Li    c      9.8017 *    -3.0385 *     8.9195 *  0.0000     2          
   496  Li    c     11.7620 *    -1.0782 *    -6.7632 *  0.0000     2          
   497  Li    c     11.7620 *     6.7632 *     1.0782 *  0.0000     2          
   498  Li    c     -7.8414 *    -6.9592 *    -8.7235 *  0.0000     2          
   499  Li    c      7.8414 *     8.7235 *     6.9592 *  0.0000     2          
   500  O     c     11.7620 *     4.8028 *     4.9989 *  0.0000     2          
   501  Li    c     -7.8414 *    -8.9195 *    -6.7632 *  0.0000     2          
   502  Li    c      7.8414 *     6.7632 *     8.9195 *  0.0000     2          
   503  Li    c     11.7620 *     0.8822 *     6.9592 *  0.0000     2          
   504  Li    c     11.7620 *    -6.9592 *    -0.8822 *  0.0000     2          
   505  O     c      0.0000       4.8028 *    12.8402 *  0.0000     1          
   506  O     c      7.8414 *   -10.8799 *    -2.8425 *  0.0000     2          
   507  O     c     11.7620 *    -6.9592 *     1.0782 *  0.0000     2          
   508  Li    c      3.9207 *     2.8425 *    12.8402 *  0.0000     2          
   509  Li    c      3.9207 *   -12.8402 *    -2.8425 *  0.0000     2          
   510  Li    c     11.7620 *    -4.9989 *     4.9989 *  0.0000     2          
   511  Cl    c      1.9603 *    -4.9989 *   -12.6442 *  0.0000     2          
   512  Li    c      1.9603 *    12.6442 *     4.9989 *  0.0000     2          
   513  Li    c      7.8414 *    -3.0385 *    10.8799 *  0.0000     2          
   514  Li    c      7.8414 *   -10.8799 *     3.0385 *  0.0000     2          
   515  O     c      3.9207 *    -3.0385 *    12.8402 *  0.0000     2          
   516  O     c     -7.8414 *    -6.9592 *     8.9195 *  0.0000     2          
   517  Li    c      0.0000      -4.9989 *    12.8402 *  0.0000     1          
   518  Li    c      0.0000     -12.8402 *     4.9989 *  0.0000     1          
   519  Cl    c      5.8810 *    -8.9195 *    -8.7235 *  0.0000     2          
   520  O     c      0.0000       8.7235 *   -10.6838 *  0.0000     1          
   521  Li    c      5.8810 *     8.7235 *     8.9195 *  0.0000     2          
   522  Cl    c      9.8017 *     6.7632 *     6.9592 *  0.0000     2          
   523  Cl    c     13.7224 *    -1.0782 *    -0.8822 *  0.0000     2          
   524  Li    c      9.8017 *    -6.9592 *    -6.7632 *  0.0000     2          
   525  Li    c     13.7224 *     0.8822 *     1.0782 *  0.0000     2          
   526  Cl    c      1.9603 *   -12.8402 *    -4.8028 *  0.0000     2          
   527  Li    c      1.9603 *     4.8028 *    12.8402 *  0.0000     2          
   528  Li    c     11.7620 *     2.8425 *    -6.7632 *  0.0000     2          
   529  Li    c     11.7620 *     6.7632 *    -2.8425 *  0.0000     2          
   530  O     c     11.7620 *    -3.0385 *    -6.7632 *  0.0000     2          
   531  Li    c      0.0000      -8.9195 *   -10.6838 *  0.0000     1          
   532  Li    c      0.0000      10.6838 *     8.9195 *  0.0000     1          
   533  Li    c      1.9603 *     8.7235 *   -10.6838 *  0.0000     2          
   534  Cl    c      1.9603 *    10.6838 *    -8.7235 *  0.0000     2          
   535  Li    c      0.0000       8.7235 *    10.8799 *  0.0000     1          
   536  Li    c      0.0000     -10.8799 *    -8.7235 *  0.0000     1          
   537  O     c     11.7620 *    -6.9592 *    -2.8425 *  0.0000     2          
   538  Cl    c      5.8810 *    -1.0782 *   -12.6442 *  0.0000     2          
   539  Li    c      5.8810 *    12.6442 *     1.0782 *  0.0000     2          
   540  Li    c     11.7620 *    -3.0385 *     6.9592 *  0.0000     2          
   541  Li    c     11.7620 *    -6.9592 *     3.0385 *  0.0000     2          
   542  Li    c      5.8810 *    -6.9592 *   -10.6838 *  0.0000     2          
   543  Cl    c      5.8810 *    10.6838 *     6.9592 *  0.0000     2          
   544  Cl    c     13.7224 *     2.8425 *    -0.8822 *  0.0000     2          
   545  Li    c     13.7224 *     0.8822 *    -2.8425 *  0.0000     2          
   546  Cl    c      9.8017 *    -4.9989 *    -8.7235 *  0.0000     2          
   547  Li    c      9.8017 *     8.7235 *     4.9989 *  0.0000     2          
   548  O     c      0.0000     -10.8799 *     8.9195 *  0.0000     1          
   549  Li    c      3.9207 *     4.8028 *   -12.6442 *  0.0000     2          
   550  Li    c      3.9207 *    12.6442 *    -4.8028 *  0.0000     2          
   551  O     c     -7.8414 *     4.8028 *   -10.6838 *  0.0000     2          
   552  Li    c      5.8810 *   -10.8799 *    -6.7632 *  0.0000     2          
   553  Cl    c      5.8810 *     6.7632 *    10.8799 *  0.0000     2          
   554  Li    c      9.8017 *     4.8028 *     8.9195 *  0.0000     2          
   555  Cl    c      9.8017 *    -8.9195 *    -4.8028 *  0.0000     2          
   556  Cl    c     13.7224 *    -1.0782 *     3.0385 *  0.0000     2          
   557  Li    c     13.7224 *    -3.0385 *     1.0782 *  0.0000     2          
   558  Cl    c      5.8810 *   -12.8402 *    -0.8822 *  0.0000     2          
   559  O     c      3.9207 *    12.6442 *     4.9989 *  0.0000     2          
   560  Li    c      5.8810 *     0.8822 *    12.8402 *  0.0000     2          
   561  Li    c      7.8414 *    -4.9989 *   -10.6838 *  0.0000     2          
   562  Li    c     -7.8414 *    10.6838 *     4.9989 *  0.0000     2          
   563  Cl    c      1.9603 *    -8.9195 *    10.8799 *  0.0000     2          
   564  Li    c      1.9603 *   -10.8799 *     8.9195 *  0.0000     2          
   565  Cl    c      5.8810 *     2.8425 *   -12.6442 *  0.0000     2          
   566  Li    c      5.8810 *    12.6442 *    -2.8425 *  0.0000     2          
   567  Li    c     -7.8414 *     4.8028 *    10.8799 *  0.0000     2          
   568  Li    c      7.8414 *   -10.8799 *    -4.8028 *  0.0000     2          
   569  O     c      3.9207 *     4.8028 *    12.8402 *  0.0000     2          
   570  O     c      7.8414 *   -10.8799 *     4.9989 *  0.0000     2          
   571  Li    c      3.9207 *    -4.9989 *    12.8402 *  0.0000     2          
   572  Li    c      3.9207 *   -12.8402 *     4.9989 *  0.0000     2          
   573  O     c      0.0000      12.6442 *    -6.7632 *  0.0000     1          
   574  O     c      3.9207 *     8.7235 *   -10.6838 *  0.0000     2          
   575  Cl    c     13.7224 *     2.8425 *     3.0385 *  0.0000     2          
   576  Li    c     13.7224 *    -3.0385 *    -2.8425 *  0.0000     2          
   577  O     c     11.7620 *     4.8028 *    -6.7632 *  0.0000     2          
   578  Li    c      0.0000      -6.9592 *   -12.6442 *  0.0000     1          
   579  Li    c      0.0000      12.6442 *     6.9592 *  0.0000     1          
   580  Cl    c      5.8810 *   -12.8402 *     3.0385 *  0.0000     2          
   581  Li    c      5.8810 *    -3.0385 *    12.8402 *  0.0000     2          
   582  Li    c      3.9207 *    10.6838 *     8.9195 *  0.0000     2          
   583  Li    c      3.9207 *    -8.9195 *   -10.6838 *  0.0000     2          
   584  Li    c     11.7620 *     6.7632 *     4.9989 *  0.0000     2          
   585  Li    c     11.7620 *    -4.9989 *    -6.7632 *  0.0000     2          
   586  Cl    c      1.9603 *     6.7632 *   -12.6442 *  0.0000     2          
   587  Li    c      1.9603 *    12.6442 *    -6.7632 *  0.0000     2          
   588  Li    c     11.7620 *     4.8028 *     6.9592 *  0.0000     2          
   589  Li    c      3.9207 *     8.7235 *    10.8799 *  0.0000     2          
   590  Li    c      3.9207 *   -10.8799 *    -8.7235 *  0.0000     2          
   591  Li    c     11.7620 *    -6.9592 *    -4.8028 *  0.0000     2          
   592  Li    c      0.0000       6.7632 *    12.8402 *  0.0000     1          
   593  Li    c      0.0000     -12.8402 *    -6.7632 *  0.0000     1          
   594  Cl    c      9.8017 *    10.6838 *    -0.8822 *  0.0000     2          
   595  Li    c      9.8017 *     0.8822 *   -10.6838 *  0.0000     2          
   596  O     c     11.7620 *    -6.9592 *     4.9989 *  0.0000     2          
   597  Li    c     13.7224 *     4.8028 *     1.0782 *  0.0000     2          
   598  Cl    c     13.7224 *    -1.0782 *    -4.8028 *  0.0000     2          
   599  O     c      0.0000      -6.9592 *    12.8402 *  0.0000     1          
   600  O     c      3.9207 *   -10.8799 *     8.9195 *  0.0000     2          
   601  Li    c      7.8414 *     8.7235 *    -8.7235 *  0.0000     2          
   602  O     c      0.0000       0.8822 *   -14.6045 *  0.0000     1          
   603  Cl    c     13.7224 *    -4.9989 *    -0.8822 *  0.0000     2          
   604  Li    c     13.7224 *     0.8822 *     4.9989 *  0.0000     2          
   605  Li    c      0.0000      -1.0782 *   -14.6045 *  0.0000     1          
   606  Li    c      0.0000      14.6045 *     1.0782 *  0.0000     1          
   607  Li    c     11.7620 *     8.7235 *    -0.8822 *  0.0000     2          
   608  Li    c     11.7620 *     0.8822 *    -8.7235 *  0.0000     2          
   609  O     c     11.7620 *     8.7235 *     1.0782 *  0.0000     2          
   610  Li    c      9.8017 *   -10.8799 *     1.0782 *  0.0000     2          
   611  Cl    c      9.8017 *    -1.0782 *    10.8799 *  0.0000     2          
   612  Cl    c      1.9603 *   -12.8402 *     6.9592 *  0.0000     2          
   613  Li    c      1.9603 *    -6.9592 *    12.8402 *  0.0000     2          
   614  O     c      7.8414 *     8.7235 *     8.9195 *  0.0000     2          
   615  Cl    c      1.9603 *    14.6045 *    -0.8822 *  0.0000     2          
   616  Li    c      1.9603 *     0.8822 *   -14.6045 *  0.0000     2          
   617  Cl    c      9.8017 *     6.7632 *    -8.7235 *  0.0000     2          
   618  Li    c      9.8017 *     8.7235 *    -6.7632 *  0.0000     2          
   619  O     c     11.7620 *     0.8822 *     8.9195 *  0.0000     2          
   620  Li    c     11.7620 *    -1.0782 *     8.9195 *  0.0000     2          
   621  Li    c     11.7620 *    -8.9195 *     1.0782 *  0.0000     2          
   622  Cl    c      5.8810 *    -4.9989 *   -12.6442 *  0.0000     2          
   623  Li    c      5.8810 *    12.6442 *     4.9989 *  0.0000     2          
   624  Li    c      9.8017 *    -3.0385 *   -10.6838 *  0.0000     2          
   625  Cl    c      9.8017 *    10.6838 *     3.0385 *  0.0000     2          
   626  Li    c     13.7224 *     4.8028 *    -2.8425 *  0.0000     2          
   627  Cl    c     13.7224 *     2.8425 *    -4.8028 *  0.0000     2          
   628  Li    c      0.0000       0.8822 *    14.8005 *  0.0000     1          
   629  Li    c      0.0000     -14.8005 *    -0.8822 *  0.0000     1          
   630  O     c      0.0000     -14.8005 *     1.0782 *  0.0000     1          
   631  Li    c     -7.8414 *    -8.9195 *     8.9195 *  0.0000     2          
   632  O     c      3.9207 *    12.6442 *    -6.7632 *  0.0000     2          
   633  Li    c      0.0000       2.8425 *   -14.6045 *  0.0000     1          
   634  Li    c      0.0000      14.6045 *    -2.8425 *  0.0000     1          
   635  Li    c      7.8414 *     6.7632 *   -10.6838 *  0.0000     2          
   636  Li    c     -7.8414 *    10.6838 *    -6.7632 *  0.0000     2          
   637  Li    c      7.8414 *     0.8822 *   -12.6442 *  0.0000     2          
   638  Li    c     -7.8414 *    12.6442 *    -0.8822 *  0.0000     2          
   639  O     c      0.0000      -3.0385 *   -14.6045 *  0.0000     1          
   640  O     c     -7.8414 *    12.6442 *     1.0782 *  0.0000     2          
   641  Li    c      5.8810 *     4.8028 *    12.8402 *  0.0000     2          
   642  Cl    c      5.8810 *   -12.8402 *    -4.8028 *  0.0000     2          
   643  Cl    c      9.8017 *     2.8425 *    10.8799 *  0.0000     2          
   644  O     c     11.7620 *     8.7235 *    -2.8425 *  0.0000     2          
   645  Li    c      9.8017 *   -10.8799 *    -2.8425 *  0.0000     2          
   646  Cl    c     13.7224 *    -4.9989 *     3.0385 *  0.0000     2          
   647  Li    c     13.7224 *    -3.0385 *     4.9989 *  0.0000     2          
   648  Li    c     -3.9207 *    -6.9592 *   -12.6442 *  0.0000     2          
   649  Li    c      3.9207 *    12.6442 *     6.9592 *  0.0000     2          
   650  Li    c     11.7620 *     8.7235 *     3.0385 *  0.0000     2          
   651  Li    c     11.7620 *    -3.0385 *    -8.7235 *  0.0000     2          
   652  O     c     -7.8414 *    -6.9592 *   -10.6838 *  0.0000     2          
   653  Cl    c      1.9603 *    -1.0782 *    14.8005 *  0.0000     2          
   654  Li    c      1.9603 *   -14.8005 *     1.0782 *  0.0000     2          
   655  Cl    c      9.8017 *    -8.9195 *     6.9592 *  0.0000     2          
   656  Li    c      9.8017 *    -6.9592 *     8.9195 *  0.0000     2          
   657  Li    c      5.8810 *     8.7235 *   -10.6838 *  0.0000     2          
   658  Cl    c      5.8810 *    10.6838 *    -8.7235 *  0.0000     2          
   659  O     c      7.8414 *   -10.8799 *    -6.7632 *  0.0000     2          
   660  Li    c      3.9207 *   -12.8402 *    -6.7632 *  0.0000     2          
   661  Li    c      3.9207 *     6.7632 *    12.8402 *  0.0000     2          
   662  Li    c     11.7620 *     2.8425 *     8.9195 *  0.0000     2          
   663  Li    c     11.7620 *    -8.9195 *    -2.8425 *  0.0000     2          
   664  Li    c      1.9603 *    -3.0385 *   -14.6045 *  0.0000     2          
   665  Cl    c      1.9603 *    14.6045 *     3.0385 *  0.0000     2          
   666  O     c      0.0000     -14.8005 *    -2.8425 *  0.0000     1          
   667  O     c      7.8414 *     0.8822 *    12.8402 *  0.0000     2          
   668  O     c     11.7620 *    -3.0385 *     8.9195 *  0.0000     2          
   669  Li    c     -7.8414 *    -1.0782 *    12.8402 *  0.0000     2          
   670  Li    c     -7.8414 *   -12.8402 *     1.0782 *  0.0000     2          
   671  Li    c      0.0000      10.6838 *   -10.6838 *  0.0000     1          
   672  Li    c      0.0000      -3.0385 *    14.8005 *  0.0000     1          
   673  Li    c      0.0000     -14.8005 *     3.0385 *  0.0000     1          
   674  Li    c      7.8414 *    -6.9592 *    10.8799 *  0.0000     2          
   675  Li    c      7.8414 *   -10.8799 *     6.9592 *  0.0000     2          
   676  O     c     -3.9207 *    -6.9592 *    12.8402 *  0.0000     2          
   677  O     c      3.9207 *     0.8822 *   -14.6045 *  0.0000     2          
   678  O     c     -7.8414 *    12.6442 *    -2.8425 *  0.0000     2          
   679  Li    c      3.9207 *    -1.0782 *   -14.6045 *  0.0000     2          
   680  Li    c      3.9207 *    14.6045 *     1.0782 *  0.0000     2          
   681  Li    c     11.7620 *     6.7632 *    -6.7632 *  0.0000     2          
   682  Li    c     -7.8414 *    -3.0385 *   -12.6442 *  0.0000     2          
   683  Li    c     -7.8414 *    12.6442 *     3.0385 *  0.0000     2          
   684  Cl    c      1.9603 *     2.8425 *    14.8005 *  0.0000     2          
   685  Li    c      1.9603 *   -14.8005 *    -2.8425 *  0.0000     2          
   686  O     c      0.0000     -10.8799 *   -10.6838 *  0.0000     1          
   687  Li    c      5.8810 *   -10.8799 *     8.9195 *  0.0000     2          
   688  Cl    c      5.8810 *    -8.9195 *    10.8799 *  0.0000     2          
   689  O     c     11.7620 *    -6.9592 *    -6.7632 *  0.0000     2          
   690  Li    c      9.8017 *     4.8028 *   -10.6838 *  0.0000     2          
   691  Cl    c      9.8017 *    10.6838 *    -4.8028 *  0.0000     2          
   692  Li    c     -7.8414 *     2.8425 *    12.8402 *  0.0000     2          
   693  Li    c     -7.8414 *   -12.8402 *    -2.8425 *  0.0000     2          
   694  Cl    c     13.7224 *     6.7632 *    -0.8822 *  0.0000     2          
   695  Li    c     13.7224 *     0.8822 *    -6.7632 *  0.0000     2          
   696  Li    c      3.9207 *   -14.8005 *    -0.8822 *  0.0000     2          
   697  Li    c      3.9207 *     0.8822 *    14.8005 *  0.0000     2          
   698  Li    c     11.7620 *    -6.9592 *     6.9592 *  0.0000     2          
   699  O     c      3.9207 *   -14.8005 *     1.0782 *  0.0000     2          
[...]
   2023 y          0.000000      0.000110     0.000110    Cartesian    0.00
   2023 z          7.841351      7.842794     0.001443    Cartesian    0.02
   2024 x         13.722364     13.723366     0.001001    Cartesian    0.01
   2024 y         -1.960338     -1.960382    -0.000044    Cartesian    0.00
   2024 z        -13.722364    -13.723408    -0.001044    Cartesian    0.01
   2025 x         17.643040     17.644396     0.001356    Cartesian    0.01
   2025 y          1.960338      1.960433     0.000095    Cartesian    0.00
   2025 z         -9.801689     -9.802072    -0.000384    Cartesian    0.00
   2026 x          9.801689      9.802006     0.000318    Cartesian    0.00
   2026 y         17.643040     17.644227     0.001188    Cartesian    0.01
   2026 z          5.881013      5.881322     0.000309    Cartesian    0.01
   2027 x          3.920675      3.921235     0.000559    Cartesian    0.01
   2027 y          3.920675      3.921576     0.000901    Cartesian    0.02
   2027 z         19.603377     19.607981     0.004604    Cartesian    0.02
   2028 x         15.682702     15.685949     0.003247    Cartesian    0.02
   2028 y        -11.762026    -11.764201    -0.002175    Cartesian    0.02
   2028 z          3.920675      3.921646     0.000970    Cartesian    0.02
   2029 x          7.841351      7.842834     0.001483    Cartesian    0.02
   2029 y        -15.682702    -15.687028    -0.004326    Cartesian    0.03
   2029 z          7.841351      7.842903     0.001552    Cartesian    0.02
   2030 x          9.801689      9.802698     0.001009    Cartesian    0.01
   2030 y          5.881013      5.881425     0.000412    Cartesian    0.01
   2030 z         17.643040     17.644840     0.001800    Cartesian    0.01
   2031 x        -13.722364    -13.723739    -0.001375    Cartesian    0.01
   2031 y         -9.801689     -9.802392    -0.000703    Cartesian    0.01
   2031 z          1.960338      1.960364     0.000026    Cartesian    0.00
   2032 x         13.722364     13.723621     0.001257    Cartesian    0.01
   2032 y        -13.722364    -13.723461    -0.001096    Cartesian    0.01
   2032 z         -1.960338     -1.960322     0.000016    Cartesian   -0.00
   2033 x          7.841351      7.842986     0.001635    Cartesian    0.02
   2033 y         15.682702     15.686760     0.004058    Cartesian    0.03
   2033 z         11.762026     11.765334     0.003308    Cartesian    0.03
   2034 x         19.603377     19.607901     0.004524    Cartesian    0.02
   2034 y          7.841351      7.842912     0.001561    Cartesian    0.02
   2034 z          3.920675      3.921310     0.000634    Cartesian    0.02
   2035 x          1.960338      1.960338     0.000000    Cartesian    0.00
   2035 y          5.881013      5.881273     0.000260    Cartesian    0.00
   2035 z        -17.643040    -17.644150    -0.001111    Cartesian    0.01
   2036 x          5.881013      5.881156     0.000143    Cartesian    0.00
   2036 y        -17.643040    -17.644207    -0.001167    Cartesian    0.01
   2036 z          1.960338      1.960446     0.000108    Cartesian    0.01
   2037 x          7.841351      7.843003     0.001652    Cartesian    0.02
   2037 y         11.762026     11.765383     0.003356    Cartesian    0.03
   2037 z         15.682702     15.686722     0.004021    Cartesian    0.03
   2038 x         19.603377     19.608013     0.004636    Cartesian    0.02
   2038 y          3.920675      3.921405     0.000729    Cartesian    0.02
   2038 z          7.841351      7.842937     0.001586    Cartesian    0.02
   2039 x          5.881013      5.881074     0.000060    Cartesian    0.00
   2039 y         -1.960338     -1.960443    -0.000105    Cartesian    0.01
   2039 z        -17.643040    -17.643815    -0.000775    Cartesian    0.00
   2040 x        -13.722364    -13.723334    -0.000969    Cartesian    0.01
   2040 y          9.801689      9.802210     0.000522    Cartesian    0.01
   2040 z         -5.881013     -5.881241    -0.000228    Cartesian    0.00
   2041 x         17.643040     17.644155     0.001116    Cartesian    0.01
   2041 y         -1.960338     -1.960206     0.000131    Cartesian   -0.01
   2041 z         -9.801689     -9.802218    -0.000530    Cartesian    0.01
   2042 x          5.881013      5.881287     0.000273    Cartesian    0.00
   2042 y         17.643040     17.644959     0.001920    Cartesian    0.01
   2042 z          9.801689      9.802779     0.001090    Cartesian    0.01
   2043 x         11.762026     11.764322     0.002296    Cartesian    0.02
   2043 y         11.762026     11.764259     0.002233    Cartesian    0.02
   2043 z        -11.762026    -11.764542    -0.002516    Cartesian    0.02
   2044 x          3.920675      3.921228     0.000552    Cartesian    0.01
   2044 y         19.603377     19.608494     0.005116    Cartesian    0.03
   2044 z         -3.920675     -3.921729    -0.001053    Cartesian    0.03
   2045 x         13.722364     13.724310     0.001946    Cartesian    0.01
   2045 y         -9.801689     -9.803125    -0.001436    Cartesian    0.01
   2045 z         -9.801689     -9.803186    -0.001497    Cartesian    0.02
   2046 x         11.762026     11.764648     0.002621    Cartesian    0.02
   2046 y          0.000000     -0.000186    -0.000186    Cartesian    0.00
   2046 z        -15.682702    -15.687193    -0.004492    Cartesian    0.03
   2047 x          5.881013      5.881398     0.000385    Cartesian    0.01
   2047 y          9.801689      9.802820     0.001131    Cartesian    0.01
   2047 z         17.643040     17.645070     0.002030    Cartesian    0.01
   2048 x        -13.722364    -13.723551    -0.001187    Cartesian    0.01
   2048 y         -9.801689     -9.802226    -0.000537    Cartesian    0.01
   2048 z         -1.960338     -1.960215     0.000122    Cartesian   -0.01
   2049 x          1.960338      1.960338     0.000000    Cartesian    0.00
   2049 y         13.722364     13.723276     0.000912    Cartesian    0.01
   2049 z        -13.722364    -13.723874    -0.001510    Cartesian    0.01
   2050 x         15.682702     15.686018     0.003316    Cartesian    0.02
   2050 y         -3.920675     -3.921629    -0.000954    Cartesian    0.02
   2050 z        -11.762026    -11.764662    -0.002636    Cartesian    0.02
   2051 x          5.881013      5.881076     0.000062    Cartesian    0.00
   2051 y        -17.643040    -17.643868    -0.000828    Cartesian    0.00
   2051 z         -1.960338     -1.960428    -0.000090    Cartesian    0.00
   2052 x        -13.722364    -13.724406    -0.002041    Cartesian    0.01
   2052 y         -5.881013     -5.881978    -0.000965    Cartesian    0.02
   2052 z          9.801689      9.802725     0.001036    Cartesian    0.01
   2053 x         13.722364     13.723565     0.001201    Cartesian    0.01
   2053 y          5.881013      5.881207     0.000194    Cartesian    0.00
   2053 z        -13.722364    -13.723422    -0.001058    Cartesian    0.01
   2054 x          1.960338      1.960338     0.000000    Cartesian    0.00
   2054 y        -17.643040    -17.644313    -0.001273    Cartesian    0.01
   2054 z          5.881013      5.881338     0.000325    Cartesian    0.01
   2055 x         15.682702     15.686114     0.003412    Cartesian    0.02
   2055 y        -11.762026    -11.764653    -0.002626    Cartesian    0.02
   2055 z         -3.920675     -3.921756    -0.001081    Cartesian    0.03
   2056 x          3.920675      3.921333     0.000657    Cartesian    0.02
   2056 y         15.682702     15.685972     0.003270    Cartesian    0.02
   2056 z        -11.762026    -11.764843    -0.002817    Cartesian    0.02
   2057 x         11.762026     11.764947     0.002921    Cartesian    0.02
   2057 y        -15.682702    -15.687617    -0.004915    Cartesian    0.03
   2057 z          0.000000     -0.000415    -0.000415    Cartesian    0.00
   2058 x         13.722364     13.724837     0.002473    Cartesian    0.02
   2058 y         13.722364     13.724937     0.002573    Cartesian    0.02
   2058 z          9.801689      9.803670     0.001981    Cartesian    0.02
   2059 x         15.682702     15.685856     0.003154    Cartesian    0.02
   2059 y         11.762026     11.764117     0.002091    Cartesian    0.02
   2059 z         -7.841351     -7.842963    -0.001613    Cartesian    0.02
   2060 x          7.841351      7.842976     0.001625    Cartesian    0.02
   2060 y         19.603377     19.608915     0.005537    Cartesian    0.03
   2060 z          0.000000     -0.000343    -0.000343    Cartesian    0.00
   2061 x         11.762026     11.764765     0.002738    Cartesian    0.02
   2061 y          3.920675      3.921482     0.000806    Cartesian    0.02
   2061 z        -15.682702    -15.687541    -0.004839    Cartesian    0.03
   2062 x          3.920675      3.921266     0.000591    Cartesian    0.02
   2062 y         -3.920675     -3.921739    -0.001064    Cartesian    0.03
   2062 z         19.603377     19.608723     0.005346    Cartesian    0.03
   2063 x         13.722364     13.724882     0.002518    Cartesian    0.02
   2063 y          9.801689      9.803702     0.002014    Cartesian    0.02
   2063 z         13.722364     13.724966     0.002602    Cartesian    0.02
   2064 x         11.762026     11.764589     0.002562    Cartesian    0.02
   2064 y        -11.762026    -11.764876    -0.002849    Cartesian    0.02
   2064 z         11.762026     11.764607     0.002581    Cartesian    0.02
   2065 x         19.603377     19.607890     0.004512    Cartesian    0.02
   2065 y          7.841351      7.842764     0.001413    Cartesian    0.02
   2065 z         -3.920675     -3.921601    -0.000926    Cartesian    0.02
   2066 x          5.881013      5.881855     0.000842    Cartesian    0.01
   2066 y          5.881013      5.881910     0.000897    Cartesian    0.02
   2066 z        -17.643040    -17.645521    -0.002481    Cartesian    0.01
   2067 x          9.801689      9.802808     0.001120    Cartesian    0.01
   2067 y         17.643040     17.645433     0.002393    Cartesian    0.01
   2067 z         -5.881013     -5.882154    -0.001141    Cartesian    0.02
   2068 x         13.722364     13.724256     0.001892    Cartesian    0.01
   2068 y        -13.722364    -13.724408    -0.002044    Cartesian    0.01
   2068 z          5.881013      5.881983     0.000970    Cartesian    0.02
   2069 x         17.643040     17.644923     0.001884    Cartesian    0.01
   2069 y          5.881013      5.881690     0.000676    Cartesian    0.01
   2069 z         -9.801689     -9.802753    -0.001064    Cartesian    0.01
   2070 x          1.960338      1.960338     0.000000    Cartesian    0.00
   2070 y        -13.722364    -13.724207    -0.001842    Cartesian    0.01
   2070 z         13.722364     13.723776     0.001412    Cartesian    0.01
   2071 x         19.603377     19.608679     0.005302    Cartesian    0.03
   2071 y         -3.920675     -3.921898    -0.001222    Cartesian    0.03
   2071 z          7.841351      7.843051     0.001700    Cartesian    0.02
   2072 x         11.762026     11.764347     0.002320    Cartesian    0.02
   2072 y         15.682702     15.686714     0.004012    Cartesian    0.03
   2072 z         -7.841351     -7.843299    -0.001948    Cartesian    0.02
   2073 x         11.762026     11.765047     0.003021    Cartesian    0.03
   2073 y        -15.682702    -15.687811    -0.005109    Cartesian    0.03
   2073 z          3.920675      3.921548     0.000873    Cartesian    0.02
   2074 x          7.841351      7.843048     0.001697    Cartesian    0.02
   2074 y          0.000000     -0.000297    -0.000297    Cartesian    0.00
   2074 z         19.603377     19.609068     0.005690    Cartesian    0.03
   2075 x         -5.881013     -5.882802    -0.001788    Cartesian    0.03
   2075 y         13.722364     13.724941     0.002577    Cartesian    0.02
   2075 z         13.722364     13.724946     0.002582    Cartesian    0.02
   2076 x         15.682702     15.687071     0.004369    Cartesian    0.03
   2076 y         -7.841351     -7.843497    -0.002146    Cartesian    0.03
   2076 z         11.762026     11.764791     0.002764    Cartesian    0.02
   2077 x         21.563715     21.564508     0.000793    Cartesian    0.00
   2077 y          1.960338      1.960273    -0.000065    Cartesian   -0.00
   2077 z          1.960338      1.960284    -0.000054    Cartesian   -0.00
   2078 x          7.841351      7.843091     0.001740    Cartesian    0.02
   2078 y         19.603377     19.609017     0.005639    Cartesian    0.03
   2078 z          3.920675      3.921720     0.001044    Cartesian    0.03
   2079 x          3.920675      3.921371     0.000696    Cartesian    0.02
   2079 y        -11.762026    -11.765216    -0.003190    Cartesian    0.03
   2079 z         15.682702     15.686861     0.004159    Cartesian    0.03
   2080 x          5.881013      5.881978     0.000965    Cartesian    0.02
   2080 y         13.722364     13.724230     0.001866    Cartesian    0.01
   2080 z        -13.722364    -13.724405    -0.002041    Cartesian    0.01
   2081 x         19.603377     19.608293     0.004915    Cartesian    0.03
   2081 y          0.000000     -0.000387    -0.000387    Cartesian    0.00
   2081 z         -7.841351     -7.843136    -0.001785    Cartesian    0.02
   2082 x          1.960338      1.960338     0.000000    Cartesian    0.00
   2082 y         17.643040     17.644390     0.001350    Cartesian    0.01
   2082 z         -9.801689     -9.802737    -0.001048    Cartesian    0.01
   2083 x          7.841351      7.843165     0.001814    Cartesian    0.02
   2083 y         -7.841351     -7.843771    -0.002420    Cartesian    0.03
   2083 z        -15.682702    -15.687435    -0.004733    Cartesian    0.03
   2084 x        -13.722364    -13.724695    -0.002330    Cartesian    0.02
   2084 y         -9.801689     -9.803236    -0.001547    Cartesian    0.02
   2084 z          5.881013      5.882072     0.001059    Cartesian    0.02
   2085 x         -5.881013     -5.882228    -0.001215    Cartesian    0.02
   2085 y         -5.881013     -5.882207    -0.001194    Cartesian    0.02
   2085 z         17.643040     17.645682     0.002642    Cartesian    0.01
   2086 x          5.881013      5.881934     0.000921    Cartesian    0.02
   2086 y        -17.643040    -17.645696    -0.002657    Cartesian    0.02
   2086 z          5.881013      5.881968     0.000955    Cartesian    0.02
   2087 x          7.841351      7.843194     0.001843    Cartesian    0.02
   2087 y        -15.682702    -15.687684    -0.004982    Cartesian    0.03
   2087 z         -7.841351     -7.843989    -0.002638    Cartesian    0.03
   2088 x          1.960338      1.960338     0.000000    Cartesian    0.00
   2088 y         -5.881013     -5.881888    -0.000875    Cartesian    0.01
   2088 z        -17.643040    -17.644586    -0.001546    Cartesian    0.01
   2089 x         19.603377     19.608674     0.005296    Cartesian    0.03
   2089 y         -7.841351     -7.843243    -0.001892    Cartesian    0.02
   2089 z          0.000000     -0.000193    -0.000193    Cartesian    0.00
   2090 x          3.920675      3.921420     0.000744    Cartesian    0.02
   2090 y         11.762026     11.765077     0.003051    Cartesian    0.03
   2090 z        -15.682702    -15.687715    -0.005013    Cartesian    0.03
   2091 x          7.841351      7.843172     0.001821    Cartesian    0.02
   2091 y          3.920675      3.921792     0.001116    Cartesian    0.03
   2091 z         19.603377     19.609269     0.005891    Cartesian    0.03
   2092 x          9.801689      9.803371     0.001682    Cartesian    0.02
   2092 y         -9.801689     -9.803385    -0.001696    Cartesian    0.02
   2092 z        -13.722364    -13.724556    -0.002191    Cartesian    0.02
   2093 x         21.563715     21.565964     0.002248    Cartesian    0.01
   2093 y          1.960338      1.960929     0.000591    Cartesian    0.03
   2093 z         -1.960338     -1.960910    -0.000573    Cartesian    0.03
   2094 x         15.682702     15.686576     0.003874    Cartesian    0.02
   2094 y          7.841351      7.843077     0.001726    Cartesian    0.02
   2094 z        -11.762026    -11.764982    -0.002956    Cartesian    0.03
   2095 x          9.801689      9.803356     0.001668    Cartesian    0.02
   2095 y        -13.722364    -13.724535    -0.002171    Cartesian    0.02
   2095 z         -9.801689     -9.803487    -0.001798    Cartesian    0.02
   2096 x         11.762026     11.764881     0.002855    Cartesian    0.02
   2096 y         -7.841351     -7.843621    -0.002270    Cartesian    0.03
   2096 z         15.682702     15.687458     0.004756    Cartesian    0.03
   2097 x         21.563715     21.566018     0.002302    Cartesian    0.01
   2097 y         -1.960338     -1.960934    -0.000596    Cartesian    0.03
   2097 z          1.960338      1.960947     0.000609    Cartesian    0.03
   2098 x         19.603377     19.608430     0.005052    Cartesian    0.03
   2098 y          3.920675      3.921572     0.000896    Cartesian    0.02
   2098 z         -7.841351     -7.843325    -0.001974    Cartesian    0.03
   2099 x          3.920675      3.921387     0.000711    Cartesian    0.02
   2099 y         19.603377     19.609157     0.005780    Cartesian    0.03
   2099 z          7.841351      7.843479     0.002128    Cartesian    0.03
   2100 x         11.762026     11.765025     0.002998    Cartesian    0.03
   2100 y         -3.920675     -3.922034    -0.001358    Cartesian    0.03
   2100 z        -15.682702    -15.687864    -0.005162    Cartesian    0.03
   2101 x          1.960338      1.960338     0.000000    Cartesian    0.00
   2101 y        -17.643040    -17.646127    -0.003088    Cartesian    0.02
   2101 z         -5.881013     -5.882411    -0.001398    Cartesian    0.02
   2102 x          1.960338      1.960338     0.000000    Cartesian    0.00
   2102 y         -9.801689     -9.803548    -0.001859    Cartesian    0.02
   2102 z         17.643040     17.645951     0.002911    Cartesian    0.02
   2103 x          5.881013      5.882021     0.001008    Cartesian    0.02
   2103 y        -13.722364    -13.724801    -0.002437    Cartesian    0.02
   2103 z         13.722364     13.724502     0.002138    Cartesian    0.02
--------------------------------------------------------------------------------


  Time to end of optimisation  =      436.3815 seconds


  Peak dynamic memory used =    1738.45 MB 


  Timing analysis for GULP :

--------------------------------------------------------------------------------
  Task / Subroutine                                          Time (Seconds)
--------------------------------------------------------------------------------
  Calculation of reciprocal space energy and derivatives          0.0002
  Calculation of reciprocal space energy using symmetry           0.0003
  Calculation of real space energy and derivatives                0.0016
  Calculation of real space energy using symmetry                 0.0033
  Calculation for region 1 energy and derivatives (2-b)         201.8706
  Calculation for region 2a energy                               66.6590
  Calculation for region 2b energy                                0.0039
  Calculation and manipulation of Hessian matrix                  1.5588
  Calculation of matrix inversion                               163.7451
  Symmetry generation of equivalent positions                     0.0018
--------------------------------------------------------------------------------
  Total CPU time                                                436.3815
--------------------------------------------------------------------------------


  Dump file written as Li3OCl.grs


  Job Finished at 14:26.12 23rd October    2020                               

