********************************************************************************
*                       GENERAL UTILITY LATTICE PROGRAM                        *
*                                 Julian Gale                                  *
*                       Curtin Institute for Computation                       *
*                    School of Molecular and Life Sciences                     *
*                    Curtin University, Western Australia                      *
********************************************************************************
* Version = 5.2.0 * Last modified =  10th September 2020                       *
********************************************************************************
*  optimise     - perform optimisation run                                     *
*  conp         - constant pressure calculation                                *
*  property     - calculate properties for final geometry                      *
*  defect       - perform defect calculation after bulk run                    *
*  compare      - compare initial and final structures                         *
********************************************************************************

  Job Started  at 14:26.12 23rd October    2020                               

  Number of CPUs =     1


  Total number of configurations input =      1

********************************************************************************
*  Input for Configuration =   1                                               *
********************************************************************************

  Formula = ClOLi3                                                      

  Number of irreducible atoms/shells =       5


  Total number atoms/shells =       7

  Dimensionality = 3               :  Bulk   


  Symmetry :

  Crystal family                   :  Cubic       
  Crystal class  (Groth - 1921)    :  Cubic Hexakisoctahedral              

  Space group (centrosymmetric)    :  P M 3 M         

  Patterson group                  :  P m -3 m 

  Cartesian lattice vectors (Angstroms) :

        3.918873    0.000000    0.000000
        0.000000    3.918873    0.000000
        0.000000    0.000000    3.918873

  Cell parameters (Angstroms/Degrees):

  a =       3.9189    alpha =  90.0000
  b =       3.9189    beta  =  90.0000
  c =       3.9189    gamma =  90.0000

  Initial cell volume =          60.184349 Angs**3

  Temperature of configuration =   0.00     K 

  Pressure of configuration =         0.000 GPa 

  Fractional coordinates of asymmetric unit :

--------------------------------------------------------------------------------
   No.  Atomic       x           y          z         Charge      Occupancy
        Label      (Frac)      (Frac)     (Frac)        (e)         (Frac)  
--------------------------------------------------------------------------------
      1 Cl    c    0.000000    0.000000    0.000000     1.48500    1.000000    
      2 O     c    0.500000    0.500000    0.500000     0.18300    1.000000    
      3 Li    c    0.500000    0.500000    0.000000     1.00000    1.000000    
      4 Cl    s    0.000000    0.000000    0.000000    -2.48500    1.000000    
      5 O     s    0.500000    0.500000    0.500000    -2.18300    1.000000    
--------------------------------------------------------------------------------


  Constraints : 

--------------------------------------------------------------------------------
  Constraint no.      Unconstrained     Constrained    Coefficient    Offset
                         Variable         Variable
--------------------------------------------------------------------------------
           1              Strain 1        Strain 2       1.00000      0.0000
           2              Strain 1        Strain 3       1.00000      0.0000
--------------------------------------------------------------------------------


********************************************************************************
*  General input information                                                   *
********************************************************************************

  Species output for all configurations : 

--------------------------------------------------------------------------------
  Species    Type    Atomic    Atomic    Charge       Radii (Angs)     Library
                     Number     Mass       (e)     Cova   Ionic  VDW   Symbol
--------------------------------------------------------------------------------
    Li       Core        3       6.94   1.000000   0.680  0.000  1.800          
    O        Core        8      16.00   0.183000   0.730  0.000  1.360          
    O        Shell       8       0.00  -2.183000   0.730  0.000  1.360          
    Cl       Core       17      35.45   1.485000   0.990  0.000  1.650          
    Cl       Shell      17       0.00  -2.485000   0.990  0.000  1.650          
--------------------------------------------------------------------------------


  Lattice summation method               =    Ewald          (3-D)
                                         =    Parry          (2-D)
                                         =    Saunders et al (1-D)
  Accuracy factor for lattice sums       =   12.000


  Analytic derivatives to be used

  Time limit = Infinity

  Maximum range for interatomic potentials =    100000.000000 Angstroms

  General interatomic potentials :

--------------------------------------------------------------------------------
Atom  Types   Potential      Parameter       Value         Units   Cutoffs(Ang)
  1     2                                                            Min /  Max 
--------------------------------------------------------------------------------
O    c O    s Spring (c-s)  Spring k 2       593.72000    eV*Ang^-2 0.000  0.800
                            Spring k 4       0.0000000    eV*Ang^-4 
--------------------------------------------------------------------------------
Cl   c Cl   s Spring (c-s)  Spring k 2       29.380000    eV*Ang^-2 0.000  0.800
                            Spring k 4       0.0000000    eV*Ang^-4 
--------------------------------------------------------------------------------
Li   c Li   c Buckingham    Buckingham A     360.53000    eV        0.000 12.000
                            Buckingham rho  0.16100000    Ang       
                            Buckingham C     0.0000000    eV*Ang^6  
--------------------------------------------------------------------------------
Li   c O    s Buckingham    Buckingham A     292.30000    eV        0.000 12.000
                            Buckingham rho  0.34720000    Ang       
                            Buckingham C     0.0000000    eV*Ang^6  
--------------------------------------------------------------------------------
Li   c Cl   s Buckingham    Buckingham A     421.04000    eV        0.000 12.000
                            Buckingham rho  0.33400000    Ang       
                            Buckingham C     0.0000000    eV*Ang^6  
--------------------------------------------------------------------------------
O    s O    s Buckingham    Buckingham A     22764.300    eV        0.000 12.000
                            Buckingham rho  0.14900000    Ang       
                            Buckingham C     13.190000    eV*Ang^6  
--------------------------------------------------------------------------------
O    s Cl   s Buckingham    Buckingham A     8286.9100    eV        0.000 12.000
                            Buckingham rho  0.25900000    Ang       
                            Buckingham C     62.200000    eV*Ang^6  
--------------------------------------------------------------------------------
Cl   s Cl   s Buckingham    Buckingham A     1227.2000    eV        0.000 12.000
                            Buckingham rho  0.32100000    Ang       
                            Buckingham C     14.530000    eV*Ang^6  
--------------------------------------------------------------------------------

********************************************************************************
*  Output for configuration   1                                                *
********************************************************************************


  Components of energy : 

--------------------------------------------------------------------------------
  Interatomic potentials     =           7.26836263 eV    
  Monopole - monopole (real) =         -11.53475722 eV    
  Monopole - monopole (recip)=         -33.94580548 eV    
  Monopole - monopole (total)=         -45.48056271 eV    
--------------------------------------------------------------------------------
  Total lattice energy       =         -38.21220008 eV    
--------------------------------------------------------------------------------
  Total lattice energy       =           -3686.8932 kJ/(mole unit cells)
--------------------------------------------------------------------------------


  Number of variables =        1

  Maximum number of calculations  =          1000
  Maximum Hessian update interval =            10
  Maximum step size               =   1.000000000
  Maximum parameter tolerance     =   0.000010000
  Maximum function  tolerance     =   0.000010000
  Maximum gradient  tolerance     =   0.001000000
  Maximum gradient  component     =   0.010000000

  Symmetry constrained optimisation

  Symmetry used for second derivatives

  Cell parameters to be optimised using strains

  Newton-Raphson optimiser to be used

  BFGS hessian update to be used

  Lower half triangular hessian to be used

  Start of bulk optimisation :

  Cycle:      0 Energy:       -38.212200  Gnorm:      0.095699  CPU:    0.006
  ** Hessian calculated **
  Cycle:      1 Energy:       -38.212222  Gnorm:      0.000105  CPU:    0.008


  **** Optimisation achieved ****


  Final energy =     -38.21222207 eV
  Final Gnorm  =       0.00000016

  Components of energy : 

--------------------------------------------------------------------------------
  Interatomic potentials     =           7.24743141 eV    
  Monopole - monopole (real) =         -11.52945423 eV    
  Monopole - monopole (recip)=         -33.93019924 eV    
  Monopole - monopole (total)=         -45.45965348 eV    
--------------------------------------------------------------------------------
  Total lattice energy       =         -38.21222207 eV    
--------------------------------------------------------------------------------
  Total lattice energy       =           -3686.8953 kJ/(mole unit cells)
--------------------------------------------------------------------------------

  Final asymmetric unit coordinates :

--------------------------------------------------------------------------------
   No.  Atomic        x           y           z         Radius
        Label       (Frac)      (Frac)      (Frac)       (Angs) 
--------------------------------------------------------------------------------
     1  Cl    c     0.000000    0.000000    0.000000    0.000000
     2  O     c     0.500000    0.500000    0.500000    0.000000
     3  Li    c     0.500000    0.500000    0.000000    0.000000
     4  Cl    s     0.000000    0.000000    0.000000    0.000000
     5  O     s     0.500000    0.500000    0.500000    0.000000
--------------------------------------------------------------------------------

  Final Cartesian lattice vectors (Angstroms) :

        3.920675    0.000000    0.000000
        0.000000    3.920675    0.000000
        0.000000    0.000000    3.920675


  Final cell parameters and derivatives :

--------------------------------------------------------------------------------
       a            3.920675 Angstrom     dE/de1(xx)    -0.000000 eV/strain
       b            3.920675 Angstrom     dE/de2(yy)     0.000000 eV/strain
       c            3.920675 Angstrom     dE/de3(zz)     0.000000 eV/strain
       alpha       90.000000 Degrees      dE/de4(yz)     0.000000 eV/strain
       beta        90.000000 Degrees      dE/de5(xz)     0.000000 eV/strain
       gamma       90.000000 Degrees      dE/de6(xy)     0.000000 eV/strain
--------------------------------------------------------------------------------

  Primitive cell volume =            60.267433 Angs**3

  Density of cell =      1.991276 g/cm**3

  Non-primitive cell volume =            60.267433 Angs**3


  Final internal derivatives :

--------------------------------------------------------------------------------
   No.  Atomic          a             b             c           Radius
        Label          (eV)          (eV)          (eV)        (eV/Angs)
--------------------------------------------------------------------------------
      1 Cl    c       0.000000      0.000000      0.000000      0.000000
      2 O     c       0.000000      0.000000      0.000000      0.000000
      3 Li    c       0.000000      0.000000      0.000000      0.000000
      4 Cl    s       0.000000      0.000000      0.000000      0.000000
      5 O     s       0.000000      0.000000      0.000000      0.000000
--------------------------------------------------------------------------------
  Maximum abs         0.000000      0.000000      0.000000      0.000000
--------------------------------------------------------------------------------

  Comparison of initial and final structures : 

--------------------------------------------------------------------------------
  Parameter   Initial value   Final value   Difference    Units      Percent
--------------------------------------------------------------------------------
    Volume        60.184349     60.267433     0.083084    Angs**3      0.14
    a              3.918873      3.920675     0.001802    Angstroms    0.05
    b              3.918873      3.920675     0.001802    Angstroms    0.05
    c              3.918873      3.920675     0.001802    Angstroms    0.05
    alpha         90.000000     90.000000     0.000000    Degrees      0.00
    beta          90.000000     90.000000     0.000000    Degrees      0.00
    gamma         90.000000     90.000000     0.000000    Degrees      0.00
      1 x          0.000000      0.000000     0.000000    Fractional   0.00
      1 y          0.000000      0.000000     0.000000    Fractional   0.00
      1 z          0.000000      0.000000     0.000000    Fractional   0.00
      2 x          0.500000      0.500000     0.000000    Fractional   0.00
      2 y          0.500000      0.500000     0.000000    Fractional   0.00
      2 z          0.500000      0.500000     0.000000    Fractional   0.00
      3 x          0.500000      0.500000     0.000000    Fractional   0.00
      3 y          0.500000      0.500000     0.000000    Fractional   0.00
      3 z          0.000000      0.000000     0.000000    Fractional   0.00
      4 x          0.000000      0.000000     0.000000    Fractional   0.00
      4 y          0.000000      0.000000     0.000000    Fractional   0.00
      4 z          0.000000      0.000000     0.000000    Fractional   0.00
      5 x          0.500000      0.500000     0.000000    Fractional   0.00
      5 y          0.500000      0.500000     0.000000    Fractional   0.00
      5 z          0.500000      0.500000     0.000000    Fractional   0.00
--------------------------------------------------------------------------------


  Born effective charge tensors : 

-------------------------------------------------------------------------------
  Atom             x           y             z
-------------------------------------------------------------------------------
    1 Cl    x      -0.9489     -0.0000     -0.0000
            y      -0.0000     -0.9489     -0.0000
            z      -0.0000     -0.0000     -0.9489
-------------------------------------------------------------------------------
    2 O     x      -2.4688      0.0000      0.0000
            y       0.0000     -2.4688      0.0000
            z       0.0000      0.0000     -2.4688
-------------------------------------------------------------------------------
    3 Li    x       1.3129      0.0000     -0.0000
            y       0.0000      1.3129      0.0000
            z      -0.0000      0.0000      0.7919
-------------------------------------------------------------------------------




  Elastic Constant Matrix: (Units=GPa)

-------------------------------------------------------------------------------
  Indices      1         2         3         4         5         6    
-------------------------------------------------------------------------------
       1     94.3368   44.9178   44.9178    0.0000   -0.0000    0.0000
       2     44.9178   94.3368   44.9178   -0.0000    0.0000   -0.0000
       3     44.9178   44.9178   94.3368    0.0000   -0.0000    0.0000
       4      0.0000   -0.0000    0.0000   44.9178   -0.0000    0.0000
       5     -0.0000    0.0000   -0.0000   -0.0000   44.9178    0.0000
       6      0.0000   -0.0000    0.0000    0.0000    0.0000   44.9178
-------------------------------------------------------------------------------


  Elastic Compliance Matrix: (Units=1/GPa)

-------------------------------------------------------------------------------
  Indices      1         2         3         4         5         6    
-------------------------------------------------------------------------------
       1    0.015300 -0.004935 -0.004935 -0.000000  0.000000 -0.000000
       2   -0.004935  0.015300 -0.004935  0.000000 -0.000000  0.000000
       3   -0.004935 -0.004935  0.015300 -0.000000  0.000000 -0.000000
       4   -0.000000  0.000000 -0.000000  0.022263  0.000000 -0.000000
       5    0.000000 -0.000000  0.000000  0.000000  0.022263 -0.000000
       6   -0.000000  0.000000 -0.000000 -0.000000 -0.000000  0.022263
-------------------------------------------------------------------------------

  Mechanical properties :

-------------------------------------------------------------------------------
  Convention :                    Reuss         Voigt         Hill
-------------------------------------------------------------------------------
  Bulk  Modulus (GPa)     =      61.39080      61.39080      61.39080
  Shear Modulus (GPa)     =      33.84570      36.83448      35.34009
-------------------------------------------------------------------------------
  Velocity S-wave (km/s)  =       4.12274       4.30092       4.21277
  Velocity P-wave (km/s)  =       7.31386       7.44942       7.38195
-------------------------------------------------------------------------------
  Compressibility (1/GPa) =    0.01628909
-------------------------------------------------------------------------------
  Stress axis :                     x             y             z
-------------------------------------------------------------------------------
  Youngs Moduli (GPa)     =      65.35947      65.35947      65.35947
-------------------------------------------------------------------------------
  Poissons Ratio (x)      =                     0.32256       0.32256
  Poissons Ratio (y)      =       0.32256                     0.32256
  Poissons Ratio (z)      =       0.32256       0.32256
-------------------------------------------------------------------------------


  Piezoelectric Strain Matrix: (Units=C/m**2)

-------------------------------------------------------------------------------
  Indices      1         2         3         4         5         6    
-------------------------------------------------------------------------------
       x    -0.00000   0.00000   0.00000  -0.00000  -0.00000   0.00000
       y    -0.00000   0.00000   0.00000  -0.00000  -0.00000  -0.00000
       z     0.00000   0.00000   0.00000   0.00000  -0.00000  -0.00000
-------------------------------------------------------------------------------


  Piezoelectric Stress Matrix: (Units=10**-11 C/N)

-------------------------------------------------------------------------------
  Indices      1         2         3         4         5         6    
-------------------------------------------------------------------------------
       x    -0.00000   0.00000   0.00000  -0.00000  -0.00000   0.00000
       y    -0.00000   0.00000   0.00000  -0.00000  -0.00000  -0.00000
       z    -0.00000  -0.00000   0.00000   0.00000  -0.00000  -0.00000
-------------------------------------------------------------------------------


  Static dielectric constant tensor : 

-------------------------------------------------------------------------------
              x         y         z
-------------------------------------------------------------------------------
       x    12.11703   0.00000  -0.00000
       y     0.00000  12.11703  -0.00000
       z    -0.00000  -0.00000  12.11703
--------------------------------------------------------------------------------

  High frequency dielectric constant tensor : 

-------------------------------------------------------------------------------
              x         y         z
-------------------------------------------------------------------------------
       x     1.74104   0.00000   0.00000
       y     0.00000   1.74104   0.00000
       z     0.00000   0.00000   1.74104
-------------------------------------------------------------------------------

  Static refractive indices : 

-------------------------------------------------------------------------------
    1 =    3.48095      2 =    3.48095      3 =    3.48095
-------------------------------------------------------------------------------

  High frequency refractive indices : 

-------------------------------------------------------------------------------
    1 =    1.31948      2 =    1.31948      3 =    1.31948
-------------------------------------------------------------------------------


  Time to end of optimisation =       0.0111 seconds

********************************************************************************
*  Defect calculation for configuration   1 :                                  *
********************************************************************************

  Total number of defects =      3

  Total charge on defect  =  -1.00

  Defect centre is at   0.5000   0.3000   0.2000  Frac

  Region 1 radius =  20.0000      Number of ions =   3889

  Number of symmetry inequivalent region 1 ions  =   2108

  Region 2 radius =  24.0000      Number of ions =   2798

  Number of symmetry inequivalent region 2a ions =   1470

  Region 2a mode = 4 : screened electrostatics due to region 1 
                       neglect correction to region 1 forces from 2a
                       region 2a displacements based on defects only

  Region 2a ions will only interact with defects in region 1

  Vacancies:

--------------------------------------------------------------------------------
    Specification type     Symbol/Number         x          y          z
--------------------------------------------------------------------------------
    Fractional                               0.500000   0.500000   0.000000
    Fractional                               0.500000   0.000000   0.500000
--------------------------------------------------------------------------------

  Interstitials:

--------------------------------------------------------------------------------
    Specification type     Symbol/Number         x          y          z
--------------------------------------------------------------------------------
    Atom/Fractional         Li               0.500000   0.300000   0.200000
--------------------------------------------------------------------------------


  Symmetry reduced region 1 (Relative to defect centre) :

--------------------------------------------------------------------------------
   No.   Atomic       x            y             z       Radius  Multiplicity   
         Label      (Angs)       (Angs)        (Angs)    (Angs)     
--------------------------------------------------------------------------------
     1  Li    c      0.0000       0.0000       0.0000    0.0000     1    Defect
     2  O     c      0.0000       0.7841 *     1.1762 *  0.0000     1          
     3  Li    c      1.9603 *     0.7841 *     1.1762 *  0.0000     2          
     4  Cl    c      1.9603 *    -1.1762 *    -0.7841 *  0.0000     2          
     5  O     c      0.0000       0.7841 *    -2.7445 *  0.0000     1          
     6  Li    c      0.0000       2.7445 *     1.1762 *  0.0000     1          
     7  Li    c      0.0000      -1.1762 *    -2.7445 *  0.0000     1          
     8  Li    c      0.0000       0.7841 *     3.1365 *  0.0000     1          
     9  Li    c      0.0000      -3.1365 *    -0.7841 *  0.0000     1          
    10  O     c      0.0000      -3.1365 *     1.1762 *  0.0000     1          
    11  Cl    c      1.9603 *     2.7445 *    -0.7841 *  0.0000     2          
    12  Li    c      1.9603 *     0.7841 *    -2.7445 *  0.0000     2          
    13  Li    c      0.0000       2.7445 *    -2.7445 *  0.0000     1          
    14  Li    c      1.9603 *    -3.1365 *     1.1762 *  0.0000     2          
    15  Cl    c      1.9603 *    -1.1762 *     3.1365 *  0.0000     2          
    16  Li    c     -3.9207 *     0.7841 *    -0.7841 *  0.0000     2          
    17  O     c     -3.9207 *     0.7841 *     1.1762 *  0.0000     2          
    18  O     c      0.0000      -3.1365 *    -2.7445 *  0.0000     1          
    19  Li    c     -3.9207 *    -1.1762 *     1.1762 *  0.0000     2          
    20  Li    c      0.0000      -3.1365 *     3.1365 *  0.0000     1          
    21  Cl    c      1.9603 *     2.7445 *     3.1365 *  0.0000     2          
    22  Li    c      1.9603 *    -3.1365 *    -2.7445 *  0.0000     2          
    23  Li    c      0.0000       0.7841 *    -4.7048 *  0.0000     1          
    24  Li    c      0.0000       4.7048 *    -0.7841 *  0.0000     1          
    25  O     c      0.0000       4.7048 *     1.1762 *  0.0000     1          
    26  O     c     -3.9207 *     0.7841 *    -2.7445 *  0.0000     2          
    27  Li    c     -3.9207 *    -1.1762 *    -2.7445 *  0.0000     2          
    28  Li    c     -3.9207 *     2.7445 *     1.1762 *  0.0000     2          
    29  Li    c      3.9207 *     0.7841 *     3.1365 *  0.0000     2          
    30  Li    c     -3.9207 *    -3.1365 *    -0.7841 *  0.0000     2          
    31  O     c      0.0000       0.7841 *     5.0969 *  0.0000     1          
    32  O     c     -3.9207 *    -3.1365 *     1.1762 *  0.0000     2          
    33  Cl    c      1.9603 *    -1.1762 *    -4.7048 *  0.0000     2          
    34  Li    c      1.9603 *     4.7048 *     1.1762 *  0.0000     2          
    35  Li    c      0.0000      -1.1762 *     5.0969 *  0.0000     1          
    36  Li    c      0.0000      -5.0969 *     1.1762 *  0.0000     1          
    37  O     c      0.0000       4.7048 *    -2.7445 *  0.0000     1          
    38  Li    c      1.9603 *     0.7841 *     5.0969 *  0.0000     2          
    39  Li    c     -3.9207 *     2.7445 *    -2.7445 *  0.0000     2          
    40  Cl    c      1.9603 *    -5.0969 *    -0.7841 *  0.0000     2          
    41  Li    c      0.0000       4.7048 *     3.1365 *  0.0000     1          
    42  Li    c      0.0000      -3.1365 *    -4.7048 *  0.0000     1          
    43  O     c     -3.9207 *    -3.1365 *    -2.7445 *  0.0000     2          
    44  Cl    c      1.9603 *     2.7445 *    -4.7048 *  0.0000     2          
    45  Li    c      1.9603 *     4.7048 *    -2.7445 *  0.0000     2          
    46  Li    c      0.0000       2.7445 *     5.0969 *  0.0000     1          
    47  Li    c      0.0000      -5.0969 *    -2.7445 *  0.0000     1          
    48  Li    c      3.9207 *    -3.1365 *     3.1365 *  0.0000     2          
    49  O     c      0.0000      -3.1365 *     5.0969 *  0.0000     1          
    50  Cl    c      5.8810 *    -1.1762 *    -0.7841 *  0.0000     2          
    51  Li    c      5.8810 *     0.7841 *     1.1762 *  0.0000     2          
    52  Li    c     -3.9207 *     0.7841 *    -4.7048 *  0.0000     2          
    53  Li    c     -3.9207 *     4.7048 *    -0.7841 *  0.0000     2          
    54  O     c     -3.9207 *     4.7048 *     1.1762 *  0.0000     2          
    55  Li    c      1.9603 *    -3.1365 *     5.0969 *  0.0000     2          
    56  Cl    c      1.9603 *    -5.0969 *     3.1365 *  0.0000     2          
    57  O     c      3.9207 *     0.7841 *     5.0969 *  0.0000     2          
    58  Cl    c      5.8810 *     2.7445 *    -0.7841 *  0.0000     2          
    59  Li    c      5.8810 *     0.7841 *    -2.7445 *  0.0000     2          
    60  Li    c      3.9207 *    -1.1762 *     5.0969 *  0.0000     2          
    61  Li    c     -3.9207 *    -5.0969 *     1.1762 *  0.0000     2          
    62  Li    c      0.0000       4.7048 *    -4.7048 *  0.0000     1          
    63  O     c      0.0000       0.7841 *    -6.6651 *  0.0000     1          
    64  O     c     -3.9207 *     4.7048 *    -2.7445 *  0.0000     2          
    65  Li    c      0.0000      -1.1762 *    -6.6651 *  0.0000     1          
    66  Li    c      0.0000       6.6651 *     1.1762 *  0.0000     1          
    67  Cl    c      5.8810 *    -1.1762 *     3.1365 *  0.0000     2          
    68  Li    c      5.8810 *    -3.1365 *     1.1762 *  0.0000     2          
    69  Li    c     -3.9207 *     4.7048 *     3.1365 *  0.0000     2          
    70  Li    c     -3.9207 *    -3.1365 *    -4.7048 *  0.0000     2          
    71  O     c      0.0000       4.7048 *     5.0969 *  0.0000     1          
    72  Cl    c      1.9603 *     6.6651 *    -0.7841 *  0.0000     2          
    73  Li    c      1.9603 *     0.7841 *    -6.6651 *  0.0000     2          
    74  Li    c     -3.9207 *     2.7445 *     5.0969 *  0.0000     2          
    75  Li    c     -3.9207 *    -5.0969 *    -2.7445 *  0.0000     2          
    76  Li    c      0.0000       0.7841 *     7.0572 *  0.0000     1          
    77  Li    c      0.0000      -7.0572 *    -0.7841 *  0.0000     1          
    78  O     c      3.9207 *    -3.1365 *     5.0969 *  0.0000     2          
    79  O     c      0.0000      -7.0572 *     1.1762 *  0.0000     1          
    80  Li    c      0.0000       2.7445 *    -6.6651 *  0.0000     1          
    81  Cl    c      5.8810 *     2.7445 *     3.1365 *  0.0000     2          
    82  Li    c      1.9603 *     4.7048 *     5.0969 *  0.0000     2          
    83  Li    c      0.0000       6.6651 *    -2.7445 *  0.0000     1          
    84  Cl    c      1.9603 *    -5.0969 *    -4.7048 *  0.0000     2          
    85  Li    c      5.8810 *    -3.1365 *    -2.7445 *  0.0000     2          
    86  Li    c      0.0000      -5.0969 *     5.0969 *  0.0000     1          
    87  O     c      0.0000      -3.1365 *    -6.6651 *  0.0000     1          
    88  Cl    c      1.9603 *    -1.1762 *     7.0572 *  0.0000     2          
    89  Li    c      1.9603 *    -7.0572 *     1.1762 *  0.0000     2          
    90  O     c      0.0000      -7.0572 *    -2.7445 *  0.0000     1          
    91  Cl    c      1.9603 *     6.6651 *     3.1365 *  0.0000     2          
    92  Li    c      1.9603 *    -3.1365 *    -6.6651 *  0.0000     2          
    93  Cl    c      5.8810 *    -1.1762 *    -4.7048 *  0.0000     2          
    94  Li    c      5.8810 *     4.7048 *     1.1762 *  0.0000     2          
    95  Li    c     -3.9207 *     4.7048 *    -4.7048 *  0.0000     2          
    96  Li    c      0.0000      -3.1365 *     7.0572 *  0.0000     1          
    97  Li    c      0.0000      -7.0572 *     3.1365 *  0.0000     1          
    98  O     c     -3.9207 *     0.7841 *    -6.6651 *  0.0000     2          
    99  Li    c      5.8810 *     0.7841 *     5.0969 *  0.0000     2          
   100  Li    c      3.9207 *    -1.1762 *    -6.6651 *  0.0000     2          
   101  Li    c     -3.9207 *     6.6651 *     1.1762 *  0.0000     2          
   102  Cl    c      1.9603 *     2.7445 *     7.0572 *  0.0000     2          
   103  Cl    c      5.8810 *    -5.0969 *    -0.7841 *  0.0000     2          
   104  Li    c      1.9603 *    -7.0572 *    -2.7445 *  0.0000     2          
   105  Li    c     -7.8414 *     0.7841 *    -0.7841 *  0.0000     2          
   106  O     c     -3.9207 *     4.7048 *     5.0969 *  0.0000     2          
   107  O     c     -7.8414 *     0.7841 *     1.1762 *  0.0000     2          
   108  Cl    c      5.8810 *     2.7445 *    -4.7048 *  0.0000     2          
   109  Li    c      5.8810 *     4.7048 *    -2.7445 *  0.0000     2          
   110  Li    c     -7.8414 *    -1.1762 *     1.1762 *  0.0000     2          
   111  Li    c      3.9207 *     0.7841 *     7.0572 *  0.0000     2          
   112  Li    c      3.9207 *    -7.0572 *    -0.7841 *  0.0000     2          
   113  O     c      0.0000       4.7048 *    -6.6651 *  0.0000     1          
   114  O     c      3.9207 *    -7.0572 *     1.1762 *  0.0000     2          
   115  Li    c      3.9207 *     2.7445 *    -6.6651 *  0.0000     2          
   116  Li    c      3.9207 *     6.6651 *    -2.7445 *  0.0000     2          
   117  Li    c      3.9207 *    -5.0969 *     5.0969 *  0.0000     2          
   118  O     c      3.9207 *    -3.1365 *    -6.6651 *  0.0000     2          
   119  O     c     -7.8414 *     0.7841 *    -2.7445 *  0.0000     2          
   120  Cl    c      1.9603 *     6.6651 *    -4.7048 *  0.0000     2          
   121  Li    c      1.9603 *     4.7048 *    -6.6651 *  0.0000     2          
   122  Li    c      5.8810 *    -3.1365 *     5.0969 *  0.0000     2          
   123  Li    c      0.0000       6.6651 *     5.0969 *  0.0000     1          
   124  Li    c      0.0000      -5.0969 *    -6.6651 *  0.0000     1          
   125  Li    c     -7.8414 *    -1.1762 *    -2.7445 *  0.0000     2          
   126  Li    c     -7.8414 *     2.7445 *     1.1762 *  0.0000     2          
   127  Cl    c      5.8810 *    -5.0969 *     3.1365 *  0.0000     2          
   128  Li    c      0.0000       4.7048 *     7.0572 *  0.0000     1          
   129  Li    c      0.0000      -7.0572 *    -4.7048 *  0.0000     1          
   130  Li    c     -7.8414 *     0.7841 *     3.1365 *  0.0000     2          
   131  Li    c     -7.8414 *    -3.1365 *    -0.7841 *  0.0000     2          
   132  O     c     -7.8414 *    -3.1365 *     1.1762 *  0.0000     2          
   133  O     c      3.9207 *    -7.0572 *    -2.7445 *  0.0000     2          
   134  Li    c      0.0000       8.6255 *    -0.7841 *  0.0000     1          
   135  Li    c      0.0000       0.7841 *    -8.6255 *  0.0000     1          
   136  Li    c      3.9207 *    -3.1365 *     7.0572 *  0.0000     2          
   137  Li    c      3.9207 *    -7.0572 *     3.1365 *  0.0000     2          
   138  O     c      0.0000       8.6255 *     1.1762 *  0.0000     1          
   139  O     c      0.0000      -7.0572 *     5.0969 *  0.0000     1          
   140  Li    c     -7.8414 *     2.7445 *    -2.7445 *  0.0000     2          
   141  O     c     -7.8414 *    -3.1365 *    -2.7445 *  0.0000     2          
   142  Li    c      1.9603 *     8.6255 *     1.1762 *  0.0000     2          
   143  Cl    c      5.8810 *     6.6651 *    -0.7841 *  0.0000     2          
   144  Li    c      5.8810 *     0.7841 *    -6.6651 *  0.0000     2          
   145  Cl    c      1.9603 *    -1.1762 *    -8.6255 *  0.0000     2          
   146  Li    c      1.9603 *    -7.0572 *     5.0969 *  0.0000     2          
   147  Cl    c      1.9603 *    -5.0969 *     7.0572 *  0.0000     2          
   148  Li    c     -7.8414 *    -3.1365 *     3.1365 *  0.0000     2          
   149  O     c      0.0000       8.6255 *    -2.7445 *  0.0000     1          
   150  O     c      3.9207 *     4.7048 *    -6.6651 *  0.0000     2          
   151  O     c      0.0000       0.7841 *     9.0176 *  0.0000     1          
   152  Cl    c      5.8810 *    -5.0969 *    -4.7048 *  0.0000     2          
   153  Li    c      5.8810 *     4.7048 *     5.0969 *  0.0000     2          
   154  Li    c      0.0000      -1.1762 *     9.0176 *  0.0000     1          
   155  Li    c      0.0000      -9.0176 *     1.1762 *  0.0000     1          
   156  Li    c      0.0000       8.6255 *     3.1365 *  0.0000     1          
   157  Li    c      0.0000      -3.1365 *    -8.6255 *  0.0000     1          
   158  Li    c     -7.8414 *     0.7841 *    -4.7048 *  0.0000     2          
   159  Li    c     -7.8414 *     4.7048 *    -0.7841 *  0.0000     2          
   160  O     c     -7.8414 *     4.7048 *     1.1762 *  0.0000     2          
   161  Li    c      1.9603 *     8.6255 *    -2.7445 *  0.0000     2          
   162  Cl    c      1.9603 *     2.7445 *    -8.6255 *  0.0000     2          
   163  Li    c     -3.9207 *     6.6651 *     5.0969 *  0.0000     2          
   164  Li    c     -3.9207 *    -5.0969 *    -6.6651 *  0.0000     2          
   165  Cl    c      1.9603 *    -9.0176 *    -0.7841 *  0.0000     2          
   166  Cl    c      5.8810 *    -1.1762 *     7.0572 *  0.0000     2          
   167  Li    c      1.9603 *     0.7841 *     9.0176 *  0.0000     2          
   168  Li    c      5.8810 *    -7.0572 *     1.1762 *  0.0000     2          
   169  Li    c     -3.9207 *     4.7048 *     7.0572 *  0.0000     2          
   170  Li    c      3.9207 *    -7.0572 *    -4.7048 *  0.0000     2          
   171  O     c     -7.8414 *     0.7841 *     5.0969 *  0.0000     2          
   172  Cl    c      5.8810 *     6.6651 *     3.1365 *  0.0000     2          
   173  Li    c      0.0000       6.6651 *    -6.6651 *  0.0000     1          
   174  Li    c      5.8810 *    -3.1365 *    -6.6651 *  0.0000     2          
   175  Li    c     -7.8414 *    -1.1762 *     5.0969 *  0.0000     2          
   176  Li    c     -7.8414 *    -5.0969 *     1.1762 *  0.0000     2          
   177  Li    c      0.0000       2.7445 *     9.0176 *  0.0000     1          
   178  Li    c      0.0000      -9.0176 *    -2.7445 *  0.0000     1          
   179  Li    c      3.9207 *     8.6255 *    -0.7841 *  0.0000     2          
   180  Li    c      3.9207 *     0.7841 *    -8.6255 *  0.0000     2          
   181  O     c      3.9207 *     8.6255 *     1.1762 *  0.0000     2          
   182  O     c     -7.8414 *     4.7048 *    -2.7445 *  0.0000     2          
   183  O     c      0.0000      -3.1365 *     9.0176 *  0.0000     1          
   184  O     c      3.9207 *    -7.0572 *     5.0969 *  0.0000     2          
   185  Cl    c      5.8810 *     2.7445 *     7.0572 *  0.0000     2          
   186  Li    c      5.8810 *    -7.0572 *    -2.7445 *  0.0000     2          
   187  Li    c     -7.8414 *     4.7048 *     3.1365 *  0.0000     2          
   188  Li    c     -7.8414 *    -3.1365 *    -4.7048 *  0.0000     2          
   189  O     c      0.0000      -7.0572 *    -6.6651 *  0.0000     1          
   190  Li    c     -7.8414 *     2.7445 *     5.0969 *  0.0000     2          
   191  Li    c     -7.8414 *    -5.0969 *    -2.7445 *  0.0000     2          
   192  Cl    c      1.9603 *    -9.0176 *     3.1365 *  0.0000     2          
   193  Li    c      1.9603 *    -3.1365 *     9.0176 *  0.0000     2          
   194  Li    c      0.0000       8.6255 *    -4.7048 *  0.0000     1          
   195  Li    c      0.0000       4.7048 *    -8.6255 *  0.0000     1          
   196  O     c      3.9207 *     8.6255 *    -2.7445 *  0.0000     2          
   197  O     c     -7.8414 *    -3.1365 *     5.0969 *  0.0000     2          
   198  O     c      3.9207 *     0.7841 *     9.0176 *  0.0000     2          
   199  Cl    c      1.9603 *     6.6651 *     7.0572 *  0.0000     2          
   200  Li    c      1.9603 *    -7.0572 *    -6.6651 *  0.0000     2          
   201  Cl    c      9.8017 *    -1.1762 *    -0.7841 *  0.0000     2          
   202  Li    c      9.8017 *     0.7841 *     1.1762 *  0.0000     2          
   203  Li    c      3.9207 *    -1.1762 *     9.0176 *  0.0000     2          
   204  Li    c      3.9207 *    -9.0176 *     1.1762 *  0.0000     2          
   205  Li    c      3.9207 *     8.6255 *     3.1365 *  0.0000     2          
   206  Li    c      3.9207 *    -3.1365 *    -8.6255 *  0.0000     2          
   207  Li    c      0.0000      -7.0572 *     7.0572 *  0.0000     1          
   208  O     c      0.0000       8.6255 *     5.0969 *  0.0000     1          
   209  Cl    c      5.8810 *     6.6651 *    -4.7048 *  0.0000     2          
   210  Li    c      5.8810 *     4.7048 *    -6.6651 *  0.0000     2          
   211  O     c      0.0000       4.7048 *     9.0176 *  0.0000     1          
   212  Li    c      1.9603 *     8.6255 *     5.0969 *  0.0000     2          
   213  Li    c      3.9207 *     6.6651 *    -6.6651 *  0.0000     2          
   214  Cl    c      1.9603 *    -5.0969 *    -8.6255 *  0.0000     2          
   215  Li    c     -3.9207 *     2.7445 *     9.0176 *  0.0000     2          
   216  Cl    c      9.8017 *     2.7445 *    -0.7841 *  0.0000     2          
   217  Li    c      9.8017 *     0.7841 *    -2.7445 *  0.0000     2          
   218  Li    c      3.9207 *    -9.0176 *    -2.7445 *  0.0000     2          
   219  Li    c      7.8414 *     4.7048 *    -4.7048 *  0.0000     2          
   220  O     c     -7.8414 *     0.7841 *    -6.6651 *  0.0000     2          
   221  O     c      3.9207 *    -3.1365 *     9.0176 *  0.0000     2          
   222  Li    c     -7.8414 *    -1.1762 *    -6.6651 *  0.0000     2          
   223  Li    c     -7.8414 *     6.6651 *     1.1762 *  0.0000     2          
   224  Cl    c      1.9603 *    -9.0176 *    -4.7048 *  0.0000     2          
   225  Li    c      1.9603 *     4.7048 *     9.0176 *  0.0000     2          
   226  Li    c      0.0000      -9.0176 *     5.0969 *  0.0000     1          
   227  Cl    c      9.8017 *    -1.1762 *     3.1365 *  0.0000     2          
   228  Li    c      9.8017 *    -3.1365 *     1.1762 *  0.0000     2          
   229  Li    c      0.0000      -5.0969 *     9.0176 *  0.0000     1          
   230  O     c     -7.8414 *     4.7048 *     5.0969 *  0.0000     2          
   231  O     c      3.9207 *    -7.0572 *    -6.6651 *  0.0000     2          
   232  Li    c      5.8810 *     8.6255 *     1.1762 *  0.0000     2          
   233  Cl    c      5.8810 *    -1.1762 *    -8.6255 *  0.0000     2          
   234  Li    c      5.8810 *    -7.0572 *     5.0969 *  0.0000     2          
   235  Cl    c      5.8810 *    -5.0969 *     7.0572 *  0.0000     2          
   236  Li    c      3.9207 *     8.6255 *    -4.7048 *  0.0000     2          
   237  Li    c     -3.9207 *     4.7048 *    -8.6255 *  0.0000     2          
   238  Li    c     -7.8414 *     0.7841 *     7.0572 *  0.0000     2          
   239  Li    c     -7.8414 *    -7.0572 *    -0.7841 *  0.0000     2          
   240  O     c      0.0000       0.7841 *   -10.5858 *  0.0000     1          
   241  O     c     -7.8414 *    -7.0572 *     1.1762 *  0.0000     2          
   242  Li    c      0.0000      10.5858 *     1.1762 *  0.0000     1          
   243  Li    c      0.0000      -1.1762 *   -10.5858 *  0.0000     1          
   244  Li    c     -7.8414 *     2.7445 *    -6.6651 *  0.0000     2          
   245  Li    c     -7.8414 *     6.6651 *    -2.7445 *  0.0000     2          
   246  Li    c     -7.8414 *    -5.0969 *     5.0969 *  0.0000     2          
   247  Cl    c      9.8017 *     2.7445 *     3.1365 *  0.0000     2          
   248  Li    c      9.8017 *    -3.1365 *    -2.7445 *  0.0000     2          
   249  Li    c      3.9207 *    -7.0572 *     7.0572 *  0.0000     2          
   250  O     c      3.9207 *     8.6255 *     5.0969 *  0.0000     2          
   251  O     c     -7.8414 *    -3.1365 *    -6.6651 *  0.0000     2          
   252  Cl    c      1.9603 *    10.5858 *    -0.7841 *  0.0000     2          
   253  Li    c      5.8810 *     8.6255 *    -2.7445 *  0.0000     2          
   254  Li    c      1.9603 *     0.7841 *   -10.5858 *  0.0000     2          
   255  Cl    c      5.8810 *     2.7445 *    -8.6255 *  0.0000     2          
   256  Cl    c      5.8810 *    -9.0176 *    -0.7841 *  0.0000     2          
   257  Li    c      5.8810 *     0.7841 *     9.0176 *  0.0000     2          
   258  O     c      0.0000       8.6255 *    -6.6651 *  0.0000     1          
   259  O     c      3.9207 *     4.7048 *     9.0176 *  0.0000     2          
   260  O     c     -7.8414 *    -7.0572 *    -2.7445 *  0.0000     2          
   261  Li    c      0.0000      10.5858 *    -2.7445 *  0.0000     1          
   262  Li    c      0.0000       2.7445 *   -10.5858 *  0.0000     1          
   263  Cl    c      9.8017 *    -1.1762 *    -4.7048 *  0.0000     2          
   264  Li    c      9.8017 *     4.7048 *     1.1762 *  0.0000     2          
   265  Li    c      0.0000       0.7841 *    10.9779 *  0.0000     1          
   266  Li    c      0.0000     -10.9779 *    -0.7841 *  0.0000     1          
   267  Li    c     -7.8414 *    -7.0572 *     3.1365 *  0.0000     2          
   268  Li    c     -7.8414 *    -3.1365 *     7.0572 *  0.0000     2          
   269  O     c      0.0000      -3.1365 *   -10.5858 *  0.0000     1          
   270  O     c      0.0000     -10.9779 *     1.1762 *  0.0000     1          
   271  Li    c      1.9603 *     8.6255 *    -6.6651 *  0.0000     2          
   272  Cl    c      1.9603 *     6.6651 *    -8.6255 *  0.0000     2          
   273  Li    c      9.8017 *     0.7841 *     5.0969 *  0.0000     2          
   274  Li    c      3.9207 *    -9.0176 *     5.0969 *  0.0000     2          
   275  Cl    c      9.8017 *    -5.0969 *    -0.7841 *  0.0000     2          
   276  Li    c      3.9207 *    -5.0969 *     9.0176 *  0.0000     2          
   277  Li    c      0.0000       8.6255 *     7.0572 *  0.0000     1          
   278  Li    c      0.0000      -7.0572 *    -8.6255 *  0.0000     1          
   279  Cl    c      1.9603 *    10.5858 *     3.1365 *  0.0000     2          
   280  Li    c      1.9603 *    -3.1365 *   -10.5858 *  0.0000     2          
   281  Cl    c      1.9603 *    -1.1762 *    10.9779 *  0.0000     2          
   282  Cl    c      5.8810 *    -9.0176 *     3.1365 *  0.0000     2          
   283  Cl    c      9.8017 *     2.7445 *    -4.7048 *  0.0000     2          
   284  Li    c      1.9603 *   -10.9779 *     1.1762 *  0.0000     2          
   285  Li    c      5.8810 *    -3.1365 *     9.0176 *  0.0000     2          
   286  Li    c      9.8017 *     4.7048 *    -2.7445 *  0.0000     2          
   287  Li    c      0.0000       6.6651 *     9.0176 *  0.0000     1          
   288  Li    c      0.0000      -9.0176 *    -6.6651 *  0.0000     1          
   289  O     c      3.9207 *     0.7841 *   -10.5858 *  0.0000     2          
   290  O     c      0.0000     -10.9779 *    -2.7445 *  0.0000     1          
   291  O     c      7.8414 *     4.7048 *    -6.6651 *  0.0000     2          
   292  Li    c      3.9207 *    10.5858 *     1.1762 *  0.0000     2          
   293  Li    c      3.9207 *    -1.1762 *   -10.5858 *  0.0000     2          
   294  Cl    c      5.8810 *     6.6651 *     7.0572 *  0.0000     2          
   295  Li    c      5.8810 *    -7.0572 *    -6.6651 *  0.0000     2          
   296  Li    c      0.0000      -3.1365 *    10.9779 *  0.0000     1          
   297  Li    c      0.0000     -10.9779 *     3.1365 *  0.0000     1          
   298  O     c      0.0000      -7.0572 *     9.0176 *  0.0000     1          
   299  Li    c     -7.8414 *     6.6651 *     5.0969 *  0.0000     2          
   300  Li    c     -7.8414 *    -5.0969 *    -6.6651 *  0.0000     2          
   301  Cl    c      1.9603 *     2.7445 *    10.9779 *  0.0000     2          
   302  Li    c      1.9603 *   -10.9779 *    -2.7445 *  0.0000     2          
   303  Li    c      9.8017 *    -3.1365 *     5.0969 *  0.0000     2          
   304  Cl    c      9.8017 *    -5.0969 *     3.1365 *  0.0000     2          
   305  Li    c     -7.8414 *    -7.0572 *    -4.7048 *  0.0000     2          
   306  Li    c      7.8414 *     4.7048 *     7.0572 *  0.0000     2          
   307  O     c      0.0000       4.7048 *   -10.5858 *  0.0000     1          
   308  O     c      3.9207 *     8.6255 *    -6.6651 *  0.0000     2          
   309  Li    c      3.9207 *    10.5858 *    -2.7445 *  0.0000     2          
   310  Li    c      5.8810 *     8.6255 *     5.0969 *  0.0000     2          
   311  Li    c      3.9207 *     2.7445 *   -10.5858 *  0.0000     2          
   312  Cl    c      5.8810 *    -5.0969 *    -8.6255 *  0.0000     2          
   313  Cl    c      1.9603 *    -9.0176 *     7.0572 *  0.0000     2          
   314  Li    c      1.9603 *    -7.0572 *     9.0176 *  0.0000     2          
   315  Li    c     -7.8414 *     8.6255 *    -0.7841 *  0.0000     2          
   316  Li    c     -7.8414 *     0.7841 *    -8.6255 *  0.0000     2          
   317  Li    c      3.9207 *     0.7841 *    10.9779 *  0.0000     2          
   318  Li    c      3.9207 *   -10.9779 *    -0.7841 *  0.0000     2          
   319  O     c     -7.8414 *     8.6255 *     1.1762 *  0.0000     2          
   320  O     c      3.9207 *    -3.1365 *   -10.5858 *  0.0000     2          
   321  O     c      3.9207 *   -10.9779 *     1.1762 *  0.0000     2          
   322  O     c     -7.8414 *    -7.0572 *     5.0969 *  0.0000     2          
   323  Cl    c      1.9603 *    10.5858 *    -4.7048 *  0.0000     2          
   324  Li    c      0.0000      10.5858 *     5.0969 *  0.0000     1          
   325  Li    c      1.9603 *     4.7048 *   -10.5858 *  0.0000     2          
   326  Li    c      0.0000      -5.0969 *   -10.5858 *  0.0000     1          
   327  Cl    c      5.8810 *    -9.0176 *    -4.7048 *  0.0000     2          
   328  Li    c      5.8810 *     4.7048 *     9.0176 *  0.0000     2          
   329  Li    c      3.9207 *     8.6255 *     7.0572 *  0.0000     2          
   330  Li    c      3.9207 *    -7.0572 *    -8.6255 *  0.0000     2          
   331  Li    c     11.7620 *     0.7841 *    -0.7841 *  0.0000     2          
   332  O     c     11.7620 *     0.7841 *     1.1762 *  0.0000     2          
   333  Cl    c      9.8017 *     6.6651 *    -0.7841 *  0.0000     2          
   334  Li    c      9.8017 *     0.7841 *    -6.6651 *  0.0000     2          
   335  Li    c      3.9207 *     6.6651 *     9.0176 *  0.0000     2          
   336  Li    c      3.9207 *    -9.0176 *    -6.6651 *  0.0000     2          
   337  Li    c     11.7620 *    -1.1762 *     1.1762 *  0.0000     2          
   338  Li    c      0.0000       4.7048 *    10.9779 *  0.0000     1          
   339  Li    c      0.0000     -10.9779 *    -4.7048 *  0.0000     1          
   340  O     c     -7.8414 *     8.6255 *    -2.7445 *  0.0000     2          
   341  O     c      3.9207 *   -10.9779 *    -2.7445 *  0.0000     2          
   342  O     c      7.8414 *     0.7841 *     9.0176 *  0.0000     2          
   343  Cl    c      9.8017 *    -5.0969 *    -4.7048 *  0.0000     2          
   344  Li    c      9.8017 *     4.7048 *     5.0969 *  0.0000     2          
   345  Li    c      7.8414 *    -1.1762 *     9.0176 *  0.0000     2          
   346  Li    c      7.8414 *    -9.0176 *     1.1762 *  0.0000     2          
   347  Li    c     -7.8414 *     8.6255 *     3.1365 *  0.0000     2          
   348  Li    c     -3.9207 *    -3.1365 *    10.9779 *  0.0000     2          
   349  Li    c     -7.8414 *    -3.1365 *    -8.6255 *  0.0000     2          
   350  Li    c      3.9207 *   -10.9779 *     3.1365 *  0.0000     2          
   351  O     c      0.0000     -10.9779 *     5.0969 *  0.0000     1          
   352  O     c     11.7620 *     0.7841 *    -2.7445 *  0.0000     2          
   353  O     c      3.9207 *    -7.0572 *     9.0176 *  0.0000     2          
   354  Cl    c      5.8810 *    10.5858 *    -0.7841 *  0.0000     2          
   355  Li    c      5.8810 *     0.7841 *   -10.5858 *  0.0000     2          
   356  Li    c     11.7620 *    -1.1762 *    -2.7445 *  0.0000     2          
   357  Li    c     11.7620 *     2.7445 *     1.1762 *  0.0000     2          
   358  Cl    c      9.8017 *    -1.1762 *     7.0572 *  0.0000     2          
   359  Li    c      9.8017 *    -7.0572 *     1.1762 *  0.0000     2          
   360  Li    c      0.0000       8.6255 *    -8.6255 *  0.0000     1          
   361  Li    c     11.7620 *     0.7841 *     3.1365 *  0.0000     2          
   362  Li    c     11.7620 *    -3.1365 *    -0.7841 *  0.0000     2          
   363  O     c     -3.9207 *     4.7048 *   -10.5858 *  0.0000     2          
   364  O     c     11.7620 *    -3.1365 *     1.1762 *  0.0000     2          
   365  Li    c      7.8414 *     6.6651 *    -6.6651 *  0.0000     2          
   366  Li    c     -7.8414 *     2.7445 *     9.0176 *  0.0000     2          
   367  Cl    c      1.9603 *    -5.0969 *    10.9779 *  0.0000     2          
   368  Cl    c      9.8017 *     6.6651 *     3.1365 *  0.0000     2          
   369  Li    c      1.9603 *   -10.9779 *     5.0969 *  0.0000     2          
   370  Li    c      9.8017 *    -3.1365 *    -6.6651 *  0.0000     2          
   371  Li    c      7.8414 *    -9.0176 *    -2.7445 *  0.0000     2          
   372  O     c      7.8414 *    -3.1365 *     9.0176 *  0.0000     2          
   373  Li    c      5.8810 *     8.6255 *    -6.6651 *  0.0000     2          
   374  Li    c      3.9207 *    10.5858 *     5.0969 *  0.0000     2          
   375  Cl    c      5.8810 *     6.6651 *    -8.6255 *  0.0000     2          
   376  Li    c     -3.9207 *    -5.0969 *   -10.5858 *  0.0000     2          
   377  Li    c     11.7620 *     2.7445 *    -2.7445 *  0.0000     2          
   378  Cl    c      9.8017 *     2.7445 *     7.0572 *  0.0000     2          
   379  Li    c      9.8017 *    -7.0572 *    -2.7445 *  0.0000     2          
   380  O     c      0.0000       8.6255 *     9.0176 *  0.0000     1          
   381  O     c     -7.8414 *    -7.0572 *    -6.6651 *  0.0000     2          
   382  O     c     11.7620 *    -3.1365 *    -2.7445 *  0.0000     2          
   383  Li    c      0.0000      10.5858 *    -6.6651 *  0.0000     1          
   384  Cl    c      5.8810 *    10.5858 *     3.1365 *  0.0000     2          
   385  Li    c      5.8810 *    -3.1365 *   -10.5858 *  0.0000     2          
   386  Li    c      0.0000       6.6651 *   -10.5858 *  0.0000     1          
   387  Cl    c      5.8810 *    -1.1762 *    10.9779 *  0.0000     2          
   388  Li    c      5.8810 *   -10.9779 *     1.1762 *  0.0000     2          
   389  Li    c      0.0000      12.5462 *    -0.7841 *  0.0000     1          
   390  Li    c     -7.8414 *     8.6255 *    -4.7048 *  0.0000     2          
   391  Li    c      0.0000       0.7841 *   -12.5462 *  0.0000     1          
   392  Li    c     -7.8414 *     4.7048 *    -8.6255 *  0.0000     2          
   393  Li    c      3.9207 *     4.7048 *    10.9779 *  0.0000     2          
   394  Li    c      3.9207 *   -10.9779 *    -4.7048 *  0.0000     2          
   395  Li    c     11.7620 *    -3.1365 *     3.1365 *  0.0000     2          
   396  O     c      0.0000      12.5462 *     1.1762 *  0.0000     1          
   397  Li    c      1.9603 *     8.6255 *     9.0176 *  0.0000     2          
   398  Cl    c      1.9603 *    -9.0176 *    -8.6255 *  0.0000     2          
   399  Li    c     11.7620 *     0.7841 *    -4.7048 *  0.0000     2          
   400  Li    c     11.7620 *     4.7048 *    -0.7841 *  0.0000     2          
   401  Li    c     -7.8414 *    -7.0572 *     7.0572 *  0.0000     2          
   402  O     c     -7.8414 *     8.6255 *     5.0969 *  0.0000     2          
   403  O     c      0.0000      -7.0572 *   -10.5858 *  0.0000     1          
   404  O     c     11.7620 *     4.7048 *     1.1762 *  0.0000     2          
   405  O     c      3.9207 *   -10.9779 *     5.0969 *  0.0000     2          
   406  Li    c      1.9603 *    12.5462 *     1.1762 *  0.0000     2          
   407  Cl    c      1.9603 *    -1.1762 *   -12.5462 *  0.0000     2          
   408  Cl    c      5.8810 *     2.7445 *    10.9779 *  0.0000     2          
   409  Cl    c      9.8017 *     6.6651 *    -4.7048 *  0.0000     2          
   410  Li    c      9.8017 *     4.7048 *    -6.6651 *  0.0000     2          
   411  Li    c      5.8810 *   -10.9779 *    -2.7445 *  0.0000     2          
   412  Li    c      0.0000      -9.0176 *     9.0176 *  0.0000     1          
   413  Li    c      3.9207 *     8.6255 *    -8.6255 *  0.0000     2          
   414  O     c      0.0000      12.5462 *    -2.7445 *  0.0000     1          
   415  O     c      0.0000     -10.9779 *    -6.6651 *  0.0000     1          
   416  O     c     11.7620 *     0.7841 *     5.0969 *  0.0000     2          
   417  O     c     -7.8414 *     4.7048 *     9.0176 *  0.0000     2          
   418  Cl    c      1.9603 *    10.5858 *     7.0572 *  0.0000     2          
   419  Li    c      1.9603 *    -7.0572 *   -10.5858 *  0.0000     2          
   420  Cl    c      5.8810 *    -9.0176 *     7.0572 *  0.0000     2          
   421  Li    c      5.8810 *    -7.0572 *     9.0176 *  0.0000     2          
   422  Li    c     11.7620 *    -1.1762 *     5.0969 *  0.0000     2          
   423  Li    c     11.7620 *    -5.0969 *     1.1762 *  0.0000     2          
   424  Li    c      0.0000      12.5462 *     3.1365 *  0.0000     1          
   425  Li    c      0.0000      -3.1365 *   -12.5462 *  0.0000     1          
   426  O     c      0.0000       0.7841 *    12.9382 *  0.0000     1          
   427  O     c     11.7620 *     4.7048 *    -2.7445 *  0.0000     2          
   428  Li    c      1.9603 *    12.5462 *    -2.7445 *  0.0000     2          
   429  Cl    c      5.8810 *    10.5858 *    -4.7048 *  0.0000     2          
   430  Cl    c      1.9603 *     2.7445 *   -12.5462 *  0.0000     2          
   431  Li    c      5.8810 *     4.7048 *   -10.5858 *  0.0000     2          
   432  Cl    c      1.9603 *     6.6651 *    10.9779 *  0.0000     2          
   433  Li    c      1.9603 *   -10.9779 *    -6.6651 *  0.0000     2          
   434  Li    c      0.0000      -1.1762 *    12.9382 *  0.0000     1          
   435  Li    c      0.0000     -12.9382 *     1.1762 *  0.0000     1          
   436  Li    c      7.8414 *    -5.0969 *     9.0176 *  0.0000     2          
   437  Li    c      7.8414 *    -9.0176 *     5.0969 *  0.0000     2          
   438  Li    c     11.7620 *     4.7048 *     3.1365 *  0.0000     2          
   439  Li    c     11.7620 *    -3.1365 *    -4.7048 *  0.0000     2          
   440  Li    c      0.0000      -7.0572 *    10.9779 *  0.0000     1          
   441  Li    c      0.0000     -10.9779 *     7.0572 *  0.0000     1          
   442  O     c      3.9207 *     8.6255 *     9.0176 *  0.0000     2          
   443  Li    c      3.9207 *    10.5858 *    -6.6651 *  0.0000     2          
   444  Cl    c      1.9603 *   -12.9382 *    -0.7841 *  0.0000     2          
   445  Li    c      1.9603 *     0.7841 *    12.9382 *  0.0000     2          
   446  Li    c      9.8017 *     8.6255 *     1.1762 *  0.0000     2          
   447  Li    c      3.9207 *     6.6651 *   -10.5858 *  0.0000     2          
   448  Cl    c      9.8017 *    -1.1762 *    -8.6255 *  0.0000     2          
   449  Li    c     11.7620 *     2.7445 *     5.0969 *  0.0000     2          
   450  Li    c     11.7620 *    -5.0969 *    -2.7445 *  0.0000     2          
   451  Cl    c      9.8017 *    -5.0969 *     7.0572 *  0.0000     2          
   452  Li    c      9.8017 *    -7.0572 *     5.0969 *  0.0000     2          
   453  Li    c      3.9207 *    12.5462 *    -0.7841 *  0.0000     2          
   454  Li    c     -3.9207 *     0.7841 *   -12.5462 *  0.0000     2          
   455  O     c      3.9207 *    12.5462 *     1.1762 *  0.0000     2          
   456  O     c     -7.8414 *     0.7841 *   -10.5858 *  0.0000     2          
   457  O     c     11.7620 *    -3.1365 *     5.0969 *  0.0000     2          
   458  Li    c     -7.8414 *    10.5858 *     1.1762 *  0.0000     2          
   459  Li    c     -7.8414 *    -1.1762 *   -10.5858 *  0.0000     2          
   460  Li    c      0.0000       2.7445 *    12.9382 *  0.0000     1          
   461  Li    c      0.0000     -12.9382 *    -2.7445 *  0.0000     1          
   462  O     c      3.9207 *    -7.0572 *   -10.5858 *  0.0000     2          
   463  O     c      0.0000      -3.1365 *    12.9382 *  0.0000     1          
   464  Li    c      9.8017 *     8.6255 *    -2.7445 *  0.0000     2          
   465  Cl    c      9.8017 *     2.7445 *    -8.6255 *  0.0000     2          
   466  Li    c      9.8017 *     0.7841 *     9.0176 *  0.0000     2          
   467  Li    c      3.9207 *    -9.0176 *     9.0176 *  0.0000     2          
   468  Cl    c      9.8017 *    -9.0176 *    -0.7841 *  0.0000     2          
   469  Li    c      0.0000      12.5462 *    -4.7048 *  0.0000     1          
   470  Li    c      0.0000       4.7048 *   -12.5462 *  0.0000     1          
   471  O     c      3.9207 *    12.5462 *    -2.7445 *  0.0000     2          
   472  O     c     -7.8414 *     8.6255 *    -6.6651 *  0.0000     2          
   473  O     c      3.9207 *   -10.9779 *    -6.6651 *  0.0000     2          
   474  Li    c     -7.8414 *    10.5858 *    -2.7445 *  0.0000     2          
   475  Li    c      7.8414 *     2.7445 *   -10.5858 *  0.0000     2          
   476  Cl    c      1.9603 *   -12.9382 *     3.1365 *  0.0000     2          
   477  Li    c      1.9603 *    -3.1365 *    12.9382 *  0.0000     2          
   478  Cl    c      5.8810 *    -5.0969 *    10.9779 *  0.0000     2          
   479  Li    c      5.8810 *   -10.9779 *     5.0969 *  0.0000     2          
   480  Li    c      3.9207 *    12.5462 *     3.1365 *  0.0000     2          
   481  Li    c      3.9207 *    -3.1365 *   -12.5462 *  0.0000     2          
   482  Li    c     11.7620 *     4.7048 *    -4.7048 *  0.0000     2          
   483  Li    c      7.8414 *     0.7841 *    10.9779 *  0.0000     2          
   484  Li    c      7.8414 *   -10.9779 *    -0.7841 *  0.0000     2          
   485  O     c      0.0000      12.5462 *     5.0969 *  0.0000     1          
   486  O     c     11.7620 *     0.7841 *    -6.6651 *  0.0000     2          
   487  O     c     -3.9207 *     0.7841 *    12.9382 *  0.0000     2          
   488  O     c     -7.8414 *    -3.1365 *   -10.5858 *  0.0000     2          
   489  O     c      7.8414 *   -10.9779 *     1.1762 *  0.0000     2          
   490  Li    c      3.9207 *    -1.1762 *    12.9382 *  0.0000     2          
   491  Li    c      3.9207 *   -12.9382 *     1.1762 *  0.0000     2          
   492  Li    c     11.7620 *    -1.1762 *    -6.6651 *  0.0000     2          
   493  Li    c     11.7620 *     6.6651 *     1.1762 *  0.0000     2          
   494  Li    c     -7.8414 *     8.6255 *     7.0572 *  0.0000     2          
   495  Li    c     -7.8414 *    -7.0572 *    -8.6255 *  0.0000     2          
   496  Li    c      3.9207 *    -7.0572 *    10.9779 *  0.0000     2          
   497  Li    c      3.9207 *   -10.9779 *     7.0572 *  0.0000     2          
   498  O     c      0.0000       8.6255 *   -10.5858 *  0.0000     1          
   499  O     c     11.7620 *     4.7048 *     5.0969 *  0.0000     2          
   500  Li    c      1.9603 *    12.5462 *     5.0969 *  0.0000     2          
   501  Cl    c      1.9603 *    -5.0969 *   -12.5462 *  0.0000     2          
   502  Li    c      7.8414 *     6.6651 *     9.0176 *  0.0000     2          
   503  Li    c      7.8414 *    -9.0176 *    -6.6651 *  0.0000     2          
   504  Li    c      9.8017 *    -3.1365 *     9.0176 *  0.0000     2          
   505  Cl    c      9.8017 *    -9.0176 *     3.1365 *  0.0000     2          
   506  Li    c     11.7620 *     0.7841 *     7.0572 *  0.0000     2          
   507  Li    c     11.7620 *    -7.0572 *    -0.7841 *  0.0000     2          
   508  O     c      0.0000       4.7048 *    12.9382 *  0.0000     1          
   509  O     c      7.8414 *   -10.9779 *    -2.7445 *  0.0000     2          
   510  O     c     11.7620 *    -7.0572 *     1.1762 *  0.0000     2          
   511  Cl    c      1.9603 *    10.5858 *    -8.6255 *  0.0000     2          
   512  Li    c      1.9603 *     8.6255 *   -10.5858 *  0.0000     2          
   513  Li    c      5.8810 *     8.6255 *     9.0176 *  0.0000     2          
   514  Li    c      3.9207 *     2.7445 *    12.9382 *  0.0000     2          
   515  Li    c      3.9207 *   -12.9382 *    -2.7445 *  0.0000     2          
   516  Li    c     11.7620 *     2.7445 *    -6.6651 *  0.0000     2          
   517  Li    c     11.7620 *     6.6651 *    -2.7445 *  0.0000     2          
   518  Cl    c      5.8810 *    -9.0176 *    -8.6255 *  0.0000     2          
   519  Cl    c      9.8017 *     6.6651 *     7.0572 *  0.0000     2          
   520  Cl    c     13.7224 *    -1.1762 *    -0.7841 *  0.0000     2          
   521  Li    c      9.8017 *    -7.0572 *    -6.6651 *  0.0000     2          
   522  Li    c     13.7224 *     0.7841 *     1.1762 *  0.0000     2          
   523  Li    c     11.7620 *    -5.0969 *     5.0969 *  0.0000     2          
   524  Li    c      7.8414 *    -3.1365 *    10.9779 *  0.0000     2          
   525  Li    c      7.8414 *   -10.9779 *     3.1365 *  0.0000     2          
   526  O     c      3.9207 *    -3.1365 *    12.9382 *  0.0000     2          
   527  O     c     11.7620 *    -3.1365 *    -6.6651 *  0.0000     2          
   528  O     c     -7.8414 *    -7.0572 *     9.0176 *  0.0000     2          
   529  Li    c      5.8810 *    12.5462 *     1.1762 *  0.0000     2          
   530  Cl    c      1.9603 *   -12.9382 *    -4.7048 *  0.0000     2          
   531  Cl    c      5.8810 *    -1.1762 *   -12.5462 *  0.0000     2          
   532  Li    c      0.0000      10.5858 *     9.0176 *  0.0000     1          
   533  Li    c      0.0000      -9.0176 *   -10.5858 *  0.0000     1          
   534  Li    c      1.9603 *     4.7048 *    12.9382 *  0.0000     2          
   535  Li    c      0.0000      -5.0969 *    12.9382 *  0.0000     1          
   536  Li    c      0.0000     -12.9382 *     5.0969 *  0.0000     1          
   537  Li    c      3.9207 *    12.5462 *    -4.7048 *  0.0000     2          
   538  Li    c      0.0000       8.6255 *    10.9779 *  0.0000     1          
   539  Li    c      0.0000     -10.9779 *    -8.6255 *  0.0000     1          
   540  Li    c      3.9207 *     4.7048 *   -12.5462 *  0.0000     2          
   541  O     c     -7.8414 *     4.7048 *   -10.5858 *  0.0000     2          
   542  O     c     11.7620 *    -7.0572 *    -2.7445 *  0.0000     2          
   543  Cl    c      5.8810 *    10.5858 *     7.0572 *  0.0000     2          
   544  Li    c      5.8810 *    -7.0572 *   -10.5858 *  0.0000     2          
   545  Li    c      9.8017 *     8.6255 *     5.0969 *  0.0000     2          
   546  Cl    c      9.8017 *    -5.0969 *    -8.6255 *  0.0000     2          
   547  Cl    c     13.7224 *     2.7445 *    -0.7841 *  0.0000     2          
   548  Li    c     13.7224 *     0.7841 *    -2.7445 *  0.0000     2          
   549  Li    c     11.7620 *    -3.1365 *     7.0572 *  0.0000     2          
   550  Li    c     11.7620 *    -7.0572 *     3.1365 *  0.0000     2          
   551  O     c      3.9207 *    12.5462 *     5.0969 *  0.0000     2          
   552  Li    c      5.8810 *    12.5462 *    -2.7445 *  0.0000     2          
   553  Li    c     -7.8414 *    10.5858 *     5.0969 *  0.0000     2          
   554  Cl    c      5.8810 *     2.7445 *   -12.5462 *  0.0000     2          
   555  Li    c     -7.8414 *    -5.0969 *   -10.5858 *  0.0000     2          
   556  Cl    c      5.8810 *     6.6651 *    10.9779 *  0.0000     2          
   557  Li    c      5.8810 *   -10.9779 *    -6.6651 *  0.0000     2          
   558  Li    c      9.8017 *     4.7048 *     9.0176 *  0.0000     2          
   559  Cl    c      9.8017 *    -9.0176 *    -4.7048 *  0.0000     2          
   560  Cl    c     13.7224 *    -1.1762 *     3.1365 *  0.0000     2          
   561  Li    c     13.7224 *    -3.1365 *     1.1762 *  0.0000     2          
   562  O     c      0.0000      12.5462 *    -6.6651 *  0.0000     1          
   563  O     c      3.9207 *     8.6255 *   -10.5858 *  0.0000     2          
   564  O     c      0.0000     -10.9779 *     9.0176 *  0.0000     1          
   565  Cl    c      5.8810 *   -12.9382 *    -0.7841 *  0.0000     2          
   566  Li    c      5.8810 *     0.7841 *    12.9382 *  0.0000     2          
   567  Li    c      7.8414 *   -10.9779 *    -4.7048 *  0.0000     2          
   568  Li    c     -7.8414 *     4.7048 *    10.9779 *  0.0000     2          
   569  O     c     11.7620 *     4.7048 *    -6.6651 *  0.0000     2          
   570  O     c      3.9207 *     4.7048 *    12.9382 *  0.0000     2          
   571  Li    c      1.9603 *    12.5462 *    -6.6651 *  0.0000     2          
   572  Cl    c      1.9603 *     6.6651 *   -12.5462 *  0.0000     2          
   573  Cl    c      1.9603 *    -9.0176 *    10.9779 *  0.0000     2          
   574  Cl    c     13.7224 *     2.7445 *     3.1365 *  0.0000     2          
   575  Li    c      1.9603 *   -10.9779 *     9.0176 *  0.0000     2          
   576  Li    c     13.7224 *    -3.1365 *    -2.7445 *  0.0000     2          
   577  Li    c      0.0000      12.5462 *     7.0572 *  0.0000     1          
   578  Li    c      0.0000      -7.0572 *   -12.5462 *  0.0000     1          
   579  O     c      7.8414 *   -10.9779 *     5.0969 *  0.0000     2          
   580  Cl    c      9.8017 *    10.5858 *    -0.7841 *  0.0000     2          
   581  Li    c      3.9207 *    10.5858 *     9.0176 *  0.0000     2          
   582  Li    c      9.8017 *     0.7841 *   -10.5858 *  0.0000     2          
   583  Li    c      3.9207 *    -5.0969 *    12.9382 *  0.0000     2          
   584  Li    c      3.9207 *    -9.0176 *   -10.5858 *  0.0000     2          
   585  Li    c      3.9207 *   -12.9382 *     5.0969 *  0.0000     2          
   586  Li    c     11.7620 *     6.6651 *     5.0969 *  0.0000     2          
   587  Li    c     11.7620 *    -5.0969 *    -6.6651 *  0.0000     2          
   588  Li    c     -7.8414 *     8.6255 *    -8.6255 *  0.0000     2          
   589  Li    c      3.9207 *     8.6255 *    10.9779 *  0.0000     2          
   590  Li    c      3.9207 *   -10.9779 *    -8.6255 *  0.0000     2          
   591  Li    c     11.7620 *     4.7048 *     7.0572 *  0.0000     2          
   592  Li    c     11.7620 *    -7.0572 *    -4.7048 *  0.0000     2          
   593  O     c      0.0000       0.7841 *   -14.5065 *  0.0000     1          
   594  Li    c      0.0000      14.5065 *     1.1762 *  0.0000     1          
   595  Li    c      0.0000      -1.1762 *   -14.5065 *  0.0000     1          
   596  Li    c      0.0000       6.6651 *    12.9382 *  0.0000     1          
   597  Li    c      0.0000     -12.9382 *    -6.6651 *  0.0000     1          
   598  Cl    c      5.8810 *   -12.9382 *     3.1365 *  0.0000     2          
   599  Cl    c     13.7224 *    -1.1762 *    -4.7048 *  0.0000     2          
   600  Li    c      5.8810 *    -3.1365 *    12.9382 *  0.0000     2          
   601  Li    c     13.7224 *     4.7048 *     1.1762 *  0.0000     2          
   602  Li    c     11.7620 *     8.6255 *    -0.7841 *  0.0000     2          
   603  Li    c     11.7620 *     0.7841 *    -8.6255 *  0.0000     2          
   604  O     c     11.7620 *     8.6255 *     1.1762 *  0.0000     2          
   605  O     c     11.7620 *    -7.0572 *     5.0969 *  0.0000     2          
   606  Cl    c      1.9603 *    14.5065 *    -0.7841 *  0.0000     2          
   607  Li    c      1.9603 *     0.7841 *   -14.5065 *  0.0000     2          
   608  Li    c      9.8017 *     8.6255 *    -6.6651 *  0.0000     2          
   609  Cl    c      9.8017 *     6.6651 *    -8.6255 *  0.0000     2          
   610  Cl    c     13.7224 *    -5.0969 *    -0.7841 *  0.0000     2          
   611  Li    c     13.7224 *     0.7841 *     5.0969 *  0.0000     2          
   612  O     c      3.9207 *    12.5462 *    -6.6651 *  0.0000     2          
   613  O     c     -7.8414 *     8.6255 *     9.0176 *  0.0000     2          
   614  O     c      0.0000      -7.0572 *    12.9382 *  0.0000     1          
   615  O     c      3.9207 *   -10.9779 *     9.0176 *  0.0000     2          
   616  Li    c      5.8810 *    12.5462 *     5.0969 *  0.0000     2          
   617  Li    c      0.0000      14.5065 *    -2.7445 *  0.0000     1          
   618  Li    c     -7.8414 *    10.5858 *    -6.6651 *  0.0000     2          
   619  Li    c      0.0000       2.7445 *   -14.5065 *  0.0000     1          
   620  Cl    c      5.8810 *    -5.0969 *   -12.5462 *  0.0000     2          
   621  Cl    c      9.8017 *    10.5858 *     3.1365 *  0.0000     2          
   622  Li    c      9.8017 *    -3.1365 *   -10.5858 *  0.0000     2          
   623  Li    c      7.8414 *     6.6651 *   -10.5858 *  0.0000     2          
   624  Cl    c     13.7224 *     2.7445 *    -4.7048 *  0.0000     2          
   625  Li    c     13.7224 *     4.7048 *    -2.7445 *  0.0000     2          
   626  Cl    c      9.8017 *    -1.1762 *    10.9779 *  0.0000     2          
   627  Li    c      9.8017 *   -10.9779 *     1.1762 *  0.0000     2          
   628  Li    c     -7.8414 *    12.5462 *    -0.7841 *  0.0000     2          
   629  Li    c     -7.8414 *     0.7841 *   -12.5462 *  0.0000     2          
   630  O     c     -7.8414 *    12.5462 *     1.1762 *  0.0000     2          
   631  O     c      0.0000      -3.1365 *   -14.5065 *  0.0000     1          
   632  O     c     11.7620 *     8.6255 *    -2.7445 *  0.0000     2          
   633  O     c     11.7620 *     0.7841 *     9.0176 *  0.0000     2          
   634  Cl    c      5.8810 *    10.5858 *    -8.6255 *  0.0000     2          
   635  Li    c      5.8810 *     8.6255 *   -10.5858 *  0.0000     2          
   636  Cl    c      1.9603 *   -12.9382 *     7.0572 *  0.0000     2          
   637  Li    c      1.9603 *    -7.0572 *    12.9382 *  0.0000     2          
   638  Li    c     11.7620 *    -1.1762 *     9.0176 *  0.0000     2          
   639  Li    c     11.7620 *    -9.0176 *     1.1762 *  0.0000     2          
   640  Li    c      3.9207 *    12.5462 *     7.0572 *  0.0000     2          
   641  Li    c      0.0000       0.7841 *    14.8986 *  0.0000     1          
   642  Li    c      0.0000     -14.8986 *    -0.7841 *  0.0000     1          
   643  Li    c     11.7620 *     8.6255 *     3.1365 *  0.0000     2          
   644  Li    c      3.9207 *    -7.0572 *   -12.5462 *  0.0000     2          
   645  Li    c     11.7620 *    -3.1365 *    -8.6255 *  0.0000     2          
   646  O     c      0.0000     -14.8986 *     1.1762 *  0.0000     1          
   647  O     c     -7.8414 *    -7.0572 *   -10.5858 *  0.0000     2          
   648  Cl    c      1.9603 *    14.5065 *     3.1365 *  0.0000     2          
   649  Li    c      0.0000      10.5858 *   -10.5858 *  0.0000     1          
   650  Li    c      1.9603 *    -3.1365 *   -14.5065 *  0.0000     2          
   651  Cl    c      5.8810 *   -12.9382 *    -4.7048 *  0.0000     2          
   652  Li    c      5.8810 *     4.7048 *    12.9382 *  0.0000     2          
   653  Cl    c      9.8017 *     2.7445 *    10.9779 *  0.0000     2          
   654  Li    c      7.8414 *    -9.0176 *     9.0176 *  0.0000     2          
   655  Cl    c     13.7224 *    -5.0969 *     3.1365 *  0.0000     2          
   656  Li    c      9.8017 *   -10.9779 *    -2.7445 *  0.0000     2          
   657  Li    c     13.7224 *    -3.1365 *     5.0969 *  0.0000     2          
   658  O     c     -7.8414 *    12.5462 *    -2.7445 *  0.0000     2          
   659  O     c      3.9207 *     0.7841 *   -14.5065 *  0.0000     2          
   660  O     c      7.8414 *   -10.9779 *    -6.6651 *  0.0000     2          
   661  Li    c      3.9207 *    14.5065 *     1.1762 *  0.0000     2          
   662  Li    c      3.9207 *    -1.1762 *   -14.5065 *  0.0000     2          
   663  Cl    c      1.9603 *    -1.1762 *    14.8986 *  0.0000     2          
   664  Li    c      1.9603 *   -14.8986 *     1.1762 *  0.0000     2          
   665  Li    c      3.9207 *   -12.9382 *    -6.6651 *  0.0000     2          
   666  Li    c     11.7620 *     6.6651 *    -6.6651 *  0.0000     2          
   667  Li    c     -3.9207 *     6.6651 *    12.9382 *  0.0000     2          
   668  Li    c     11.7620 *    -9.0176 *    -2.7445 *  0.0000     2          
   669  Li    c      9.8017 *    -7.0572 *     9.0176 *  0.0000     2          
   670  Li    c     11.7620 *     2.7445 *     9.0176 *  0.0000     2          
   671  Cl    c      9.8017 *    -9.0176 *     7.0572 *  0.0000     2          
   672  Li    c     -7.8414 *    12.5462 *     3.1365 *  0.0000     2          
   673  Li    c      7.8414 *    -3.1365 *   -12.5462 *  0.0000     2          
   674  O     c      0.0000     -14.8986 *    -2.7445 *  0.0000     1          
   675  O     c     -7.8414 *     0.7841 *    12.9382 *  0.0000     2          
   676  O     c     11.7620 *    -3.1365 *     9.0176 *  0.0000     2          
   677  Cl    c      9.8017 *    10.5858 *    -4.7048 *  0.0000     2          
   678  Li    c      9.8017 *     4.7048 *   -10.5858 *  0.0000     2          
   679  Li    c     -7.8414 *    -1.1762 *    12.9382 *  0.0000     2          
   680  Li    c     -7.8414 *   -12.9382 *     1.1762 *  0.0000     2          
   681  Li    c      0.0000      12.5462 *    -8.6255 *  0.0000     1          
   682  Li    c      0.0000       8.6255 *   -12.5462 *  0.0000     1          
   683  Li    c      0.0000      -3.1365 *    14.8986 *  0.0000     1          
   684  Li    c      0.0000     -14.8986 *     3.1365 *  0.0000     1          
   685  Li    c     -7.8414 *    -7.0572 *    10.9779 *  0.0000     2          
   686  Li    c      7.8414 *   -10.9779 *     7.0572 *  0.0000     2          
   687  O     c      0.0000       4.7048 *   -14.5065 *  0.0000     1          
   688  O     c      0.0000     -10.9779 *   -10.5858 *  0.0000     1          
   689  O     c     11.7620 *    -7.0572 *    -6.6651 *  0.0000     2          
   690  O     c      3.9207 *    -7.0572 *    12.9382 *  0.0000     2          
   691  Li    c      3.9207 *    14.5065 *    -2.7445 *  0.0000     2          
   692  Li    c      3.9207 *     2.7445 *   -14.5065 *  0.0000     2          
   693  Cl    c      1.9603 *     2.7445 *    14.8986 *  0.0000     2          
   694  Li    c      1.9603 *   -14.8986 *    -2.7445 *  0.0000     2          
   695  Cl    c     13.7224 *     6.6651 *    -0.7841 *  0.0000     2          
   696  Li    c     13.7224 *     0.7841 *    -6.6651 *  0.0000     2          
   697  Li    c     11.7620 *     8.6255 *    -4.7048 *  0.0000     2          
   698  Li    c     11.7620 *     4.7048 *    -8.6255 *  0.0000     2          
   699  O     c      3.9207 *    -3.1365 *   -14.5065 *  0.0000     2          
[...]
   2028 y          7.841351      7.843496     0.002145    Cartesian    0.03
   2028 z         15.682702     15.686781     0.004079    Cartesian    0.03
   2029 x         19.603377     19.607685     0.004307    Cartesian    0.02
   2029 y          0.000000      0.000123     0.000123    Cartesian    0.00
   2029 z          7.841351      7.842798     0.001447    Cartesian    0.02
   2030 x        -13.722364    -13.723238    -0.000874    Cartesian    0.01
   2030 y          9.801689      9.802212     0.000523    Cartesian    0.01
   2030 z         -5.881013     -5.881170    -0.000157    Cartesian    0.00
   2031 x          9.801689      9.802617     0.000929    Cartesian    0.01
   2031 y        -13.722364    -13.723620    -0.001256    Cartesian    0.01
   2031 z          9.801689      9.802917     0.001228    Cartesian    0.01
   2032 x         -1.960338     -1.960389    -0.000051    Cartesian    0.00
   2032 y         -1.960338     -1.960452    -0.000114    Cartesian    0.01
   2032 z        -17.643040    -17.643709    -0.000669    Cartesian    0.00
   2033 x          7.841351      7.842982     0.001631    Cartesian    0.02
   2033 y         15.682702     15.686729     0.004027    Cartesian    0.03
   2033 z         11.762026     11.765268     0.003241    Cartesian    0.03
   2034 x          3.920675      3.921233     0.000558    Cartesian    0.01
   2034 y          3.920675      3.921597     0.000922    Cartesian    0.02
   2034 z         19.603377     19.607980     0.004603    Cartesian    0.02
   2035 x         11.762026     11.764079     0.002053    Cartesian    0.02
   2035 y         11.762026     11.764093     0.002067    Cartesian    0.02
   2035 z        -11.762026    -11.764345    -0.002319    Cartesian    0.02
   2036 x          3.920675      3.921167     0.000492    Cartesian    0.01
   2036 y         19.603377     19.607689     0.004311    Cartesian    0.02
   2036 z         -3.920675     -3.921668    -0.000993    Cartesian    0.03
   2037 x         15.682702     15.686040     0.003338    Cartesian    0.02
   2037 y        -11.762026    -11.764268    -0.002242    Cartesian    0.02
   2037 z          3.920675      3.921656     0.000981    Cartesian    0.03
   2038 x         19.603377     19.607819     0.004442    Cartesian    0.02
   2038 y          7.841351      7.842923     0.001572    Cartesian    0.02
   2038 z          3.920675      3.921246     0.000571    Cartesian    0.01
   2039 x          1.960338      1.960338     0.000000    Cartesian    0.00
   2039 y         13.722364     13.723285     0.000921    Cartesian    0.01
   2039 z        -13.722364    -13.723604    -0.001240    Cartesian    0.01
   2040 x          9.801689      9.802682     0.000994    Cartesian    0.01
   2040 y          5.881013      5.881424     0.000411    Cartesian    0.01
   2040 z         17.643040     17.644825     0.001785    Cartesian    0.01
   2041 x         13.722364     13.723659     0.001295    Cartesian    0.01
   2041 y        -13.722364    -13.723503    -0.001139    Cartesian    0.01
   2041 z         -1.960338     -1.960346    -0.000008    Cartesian    0.00
   2042 x        -13.722364    -13.723347    -0.000983    Cartesian    0.01
   2042 y         -1.960338     -1.960226     0.000111    Cartesian   -0.01
   2042 z         -9.801689     -9.802276    -0.000587    Cartesian    0.01
   2043 x          5.881013      5.881296     0.000282    Cartesian    0.00
   2043 y         17.643040     17.644931     0.001892    Cartesian    0.01
   2043 z          9.801689      9.802768     0.001079    Cartesian    0.01
   2044 x        -13.722364    -13.723781    -0.001417    Cartesian    0.01
   2044 y         -9.801689     -9.802449    -0.000760    Cartesian    0.01
   2044 z          1.960338      1.960368     0.000030    Cartesian    0.00
   2045 x          7.841351      7.842975     0.001624    Cartesian    0.02
   2045 y         11.762026     11.765352     0.003325    Cartesian    0.03
   2045 z         15.682702     15.686649     0.003947    Cartesian    0.03
   2046 x          7.841351      7.842992     0.001641    Cartesian    0.02
   2046 y        -15.682702    -15.687212    -0.004510    Cartesian    0.03
   2046 z          7.841351      7.843050     0.001699    Cartesian    0.02
   2047 x         11.762026     11.764468     0.002442    Cartesian    0.02
   2047 y          0.000000     -0.000182    -0.000182    Cartesian    0.00
   2047 z        -15.682702    -15.686979    -0.004277    Cartesian    0.03
   2048 x         19.603377     19.608009     0.004632    Cartesian    0.02
   2048 y          3.920675      3.921434     0.000758    Cartesian    0.02
   2048 z          7.841351      7.842905     0.001554    Cartesian    0.02
   2049 x          5.881013      5.881171     0.000158    Cartesian    0.00
   2049 y        -17.643040    -17.644298    -0.001258    Cartesian    0.01
   2049 z          1.960338      1.960484     0.000146    Cartesian    0.01
   2050 x         13.722364     13.723373     0.001009    Cartesian    0.01
   2050 y          5.881013      5.881209     0.000196    Cartesian    0.00
   2050 z        -13.722364    -13.723185    -0.000820    Cartesian    0.01
   2051 x         13.722364     13.724255     0.001891    Cartesian    0.01
   2051 y         -9.801689     -9.803119    -0.001430    Cartesian    0.01
   2051 z         -9.801689     -9.803188    -0.001500    Cartesian    0.02
   2052 x          3.920675      3.921466     0.000790    Cartesian    0.02
   2052 y         15.682702     15.685993     0.003291    Cartesian    0.02
   2052 z        -11.762026    -11.764292    -0.002266    Cartesian    0.02
   2053 x         15.682702     15.685619     0.002918    Cartesian    0.02
   2053 y         -3.920675     -3.921653    -0.000977    Cartesian    0.02
   2053 z        -11.762026    -11.764752    -0.002726    Cartesian    0.02
   2054 x          5.881013      5.881381     0.000367    Cartesian    0.01
   2054 y          9.801689      9.802795     0.001106    Cartesian    0.01
   2054 z         17.643040     17.645035     0.001996    Cartesian    0.01
   2055 x        -13.722364    -13.723580    -0.001216    Cartesian    0.01
   2055 y         -9.801689     -9.802262    -0.000574    Cartesian    0.01
   2055 z         -1.960338     -1.960230     0.000108    Cartesian   -0.01
   2056 x         15.682702     15.685686     0.002984    Cartesian    0.02
   2056 y         11.762026     11.764034     0.002008    Cartesian    0.02
   2056 z         -7.841351     -7.842874    -0.001523    Cartesian    0.02
   2057 x          7.841351      7.842873     0.001522    Cartesian    0.02
   2057 y         19.603377     19.608445     0.005067    Cartesian    0.03
   2057 z          0.000000     -0.000178    -0.000178    Cartesian    0.00
   2058 x         11.762026     11.764557     0.002530    Cartesian    0.02
   2058 y          3.920675      3.921549     0.000873    Cartesian    0.02
   2058 z        -15.682702    -15.687211    -0.004509    Cartesian    0.03
   2059 x         13.722364     13.724799     0.002435    Cartesian    0.02
   2059 y         13.722364     13.724890     0.002526    Cartesian    0.02
   2059 z          9.801689      9.803625     0.001936    Cartesian    0.02
   2060 x          5.881013      5.881088     0.000074    Cartesian    0.00
   2060 y        -17.643040    -17.643927    -0.000887    Cartesian    0.01
   2060 z         -1.960338     -1.960434    -0.000096    Cartesian    0.00
   2061 x          5.881013      5.880966    -0.000047    Cartesian   -0.00
   2061 y          5.881013      5.880999    -0.000015    Cartesian   -0.00
   2061 z        -17.643040    -17.643656    -0.000617    Cartesian    0.00
   2062 x          9.801689      9.802699     0.001010    Cartesian    0.01
   2062 y         17.643040     17.645040     0.002000    Cartesian    0.01
   2062 z         -5.881013     -5.881953    -0.000940    Cartesian    0.02
   2063 x        -13.722364    -13.724454    -0.002090    Cartesian    0.02
   2063 y         -5.881013     -5.882002    -0.000989    Cartesian    0.02
   2063 z          9.801689      9.802759     0.001070    Cartesian    0.01
   2064 x         15.682702     15.686154     0.003452    Cartesian    0.02
   2064 y        -11.762026    -11.764664    -0.002638    Cartesian    0.02
   2064 z         -3.920675     -3.921805    -0.001129    Cartesian    0.03
   2065 x         19.603377     19.607686     0.004308    Cartesian    0.02
   2065 y          7.841351      7.842746     0.001395    Cartesian    0.02
   2065 z         -3.920675     -3.921506    -0.000830    Cartesian    0.02
   2066 x          1.960338      1.960338     0.000000    Cartesian    0.00
   2066 y        -17.643040    -17.645165    -0.002125    Cartesian    0.01
   2066 z          5.881013      5.881987     0.000974    Cartesian    0.02
   2067 x         13.722364     13.724856     0.002492    Cartesian    0.02
   2067 y          9.801689      9.803691     0.002002    Cartesian    0.02
   2067 z         13.722364     13.724940     0.002575    Cartesian    0.02
   2068 x        -13.722364    -13.724118    -0.001754    Cartesian    0.01
   2068 y          5.881013      5.881664     0.000650    Cartesian    0.01
   2068 z         -9.801689     -9.802718    -0.001030    Cartesian    0.01
   2069 x         11.762026     11.764205     0.002178    Cartesian    0.02
   2069 y         15.682702     15.686474     0.003772    Cartesian    0.02
   2069 z         -7.841351     -7.843173    -0.001822    Cartesian    0.02
   2070 x         11.762026     11.765010     0.002984    Cartesian    0.03
   2070 y        -15.682702    -15.687686    -0.004984    Cartesian    0.03
   2070 z          0.000000     -0.000450    -0.000450    Cartesian    0.00
   2071 x          5.881013      5.881888     0.000875    Cartesian    0.01
   2071 y         13.722364     13.724134     0.001769    Cartesian    0.01
   2071 z        -13.722364    -13.724207    -0.001843    Cartesian    0.01
   2072 x          1.960338      1.960338     0.000000    Cartesian    0.00
   2072 y         17.643040     17.644663     0.001623    Cartesian    0.01
   2072 z         -9.801689     -9.802908    -0.001219    Cartesian    0.01
   2073 x          3.920675      3.921367     0.000692    Cartesian    0.02
   2073 y         -3.920675     -3.921857    -0.001182    Cartesian    0.03
   2073 z         19.603377     19.609198     0.005820    Cartesian    0.03
   2074 x          7.841351      7.843072     0.001721    Cartesian    0.02
   2074 y         19.603377     19.608917     0.005540    Cartesian    0.03
   2074 z          3.920675      3.921699     0.001023    Cartesian    0.03
   2075 x         11.762026     11.764949     0.002923    Cartesian    0.02
   2075 y        -11.762026    -11.765346    -0.003320    Cartesian    0.03
   2075 z         11.762026     11.765020     0.002993    Cartesian    0.03
   2076 x          9.801689      9.803463     0.001774    Cartesian    0.02
   2076 y         13.722364     13.724904     0.002539    Cartesian    0.02
   2076 z         13.722364     13.724914     0.002550    Cartesian    0.02
   2077 x         13.722364     13.724322     0.001958    Cartesian    0.01
   2077 y        -13.722364    -13.724497    -0.002133    Cartesian    0.02
   2077 z          5.881013      5.882025     0.001011    Cartesian    0.02
   2078 x         21.563715     21.564461     0.000746    Cartesian    0.00
   2078 y          1.960338      1.960218    -0.000119    Cartesian   -0.01
   2078 z          1.960338      1.960249    -0.000089    Cartesian   -0.00
   2079 x          3.920675      3.921388     0.000712    Cartesian    0.02
   2079 y         11.762026     11.764947     0.002921    Cartesian    0.02
   2079 z        -15.682702    -15.687356    -0.004654    Cartesian    0.03
   2080 x          7.841351      7.843106     0.001755    Cartesian    0.02
   2080 y         -7.841351     -7.843702    -0.002351    Cartesian    0.03
   2080 z        -15.682702    -15.687396    -0.004694    Cartesian    0.03
   2081 x         19.603377     19.608159     0.004782    Cartesian    0.02
   2081 y          0.000000     -0.000378    -0.000378    Cartesian    0.00
   2081 z         -7.841351     -7.843167    -0.001816    Cartesian    0.02
   2082 x         19.603377     19.608730     0.005353    Cartesian    0.03
   2082 y         -3.920675     -3.921899    -0.001224    Cartesian    0.03
   2082 z          7.841351      7.843061     0.001710    Cartesian    0.02
   2083 x          1.960338      1.960338     0.000000    Cartesian    0.00
   2083 y        -13.722364    -13.723883    -0.001519    Cartesian    0.01
   2083 z         13.722364     13.723555     0.001190    Cartesian    0.01
   2084 x          1.960338      1.960338     0.000000    Cartesian    0.00
   2084 y         -5.881013     -5.881863    -0.000850    Cartesian    0.01
   2084 z        -17.643040    -17.644530    -0.001490    Cartesian    0.01
   2085 x          7.841351      7.843060     0.001709    Cartesian    0.02
   2085 y          0.000000     -0.000270    -0.000270    Cartesian    0.00
   2085 z         19.603377     19.609107     0.005729    Cartesian    0.03
   2086 x         15.682702     15.686403     0.003701    Cartesian    0.02
   2086 y          7.841351      7.843001     0.001650    Cartesian    0.02
   2086 z        -11.762026    -11.764855    -0.002829    Cartesian    0.02
   2087 x         11.762026     11.765142     0.003115    Cartesian    0.03
   2087 y        -15.682702    -15.687907    -0.005205    Cartesian    0.03
   2087 z          3.920675      3.921552     0.000877    Cartesian    0.02
   2088 x         15.682702     15.687192     0.004491    Cartesian    0.03
   2088 y         -7.841351     -7.843544    -0.002193    Cartesian    0.03
   2088 z         11.762026     11.764877     0.002850    Cartesian    0.02
   2089 x          9.801689      9.803331     0.001642    Cartesian    0.02
   2089 y         -9.801689     -9.803358    -0.001669    Cartesian    0.02
   2089 z        -13.722364    -13.724493    -0.002129    Cartesian    0.02
   2090 x        -13.722364    -13.724744    -0.002380    Cartesian    0.02
   2090 y         -9.801689     -9.803285    -0.001596    Cartesian    0.02
   2090 z          5.881013      5.882094     0.001081    Cartesian    0.02
   2091 x         21.563715     21.565026     0.001310    Cartesian    0.01
   2091 y          1.960338      1.960315    -0.000023    Cartesian   -0.00
   2091 z         -1.960338     -1.960807    -0.000469    Cartesian    0.02
   2092 x          7.841351      7.843204     0.001853    Cartesian    0.02
   2092 y        -15.682702    -15.687682    -0.004980    Cartesian    0.03
   2092 z         -7.841351     -7.844047    -0.002696    Cartesian    0.03
   2093 x          3.920675      3.921383     0.000708    Cartesian    0.02
   2093 y         19.603377     19.609114     0.005737    Cartesian    0.03
   2093 z          7.841351      7.843435     0.002084    Cartesian    0.03
   2094 x          3.920675      3.921466     0.000791    Cartesian    0.02
   2094 y        -11.762026    -11.765572    -0.003545    Cartesian    0.03
   2094 z         15.682702     15.687648     0.004946    Cartesian    0.03
   2095 x         11.762026     11.764948     0.002922    Cartesian    0.02
   2095 y         -3.920675     -3.922045    -0.001370    Cartesian    0.03
   2095 z        -15.682702    -15.687506    -0.004804    Cartesian    0.03
   2096 x         19.603377     19.608264     0.004886    Cartesian    0.02
   2096 y          3.920675      3.921572     0.000896    Cartesian    0.02
   2096 z         -7.841351     -7.843275    -0.001924    Cartesian    0.02
   2097 x         19.603377     19.608710     0.005333    Cartesian    0.03
   2097 y         -7.841351     -7.843256    -0.001905    Cartesian    0.02
   2097 z          0.000000     -0.000211    -0.000211    Cartesian    0.00
   2098 x          5.881013      5.881974     0.000961    Cartesian    0.02
   2098 y        -17.643040    -17.645831    -0.002791    Cartesian    0.02
   2098 z          5.881013      5.882055     0.001042    Cartesian    0.02
   2099 x          9.801689      9.802954     0.001265    Cartesian    0.01
   2099 y         -5.881013     -5.882197    -0.001184    Cartesian    0.02
   2099 z         17.643040     17.645816     0.002776    Cartesian    0.02
   2100 x          9.801689      9.803349     0.001661    Cartesian    0.02
   2100 y        -13.722364    -13.724528    -0.002164    Cartesian    0.02
   2100 z         -9.801689     -9.803505    -0.001816    Cartesian    0.02
   2101 x         21.563715     21.566016     0.002301    Cartesian    0.01
   2101 y         -1.960338     -1.960938    -0.000600    Cartesian    0.03
   2101 z          1.960338      1.960949     0.000611    Cartesian    0.03
   2102 x          7.841351      7.843168     0.001817    Cartesian    0.02
   2102 y          3.920675      3.921817     0.001141    Cartesian    0.03
   2102 z         19.603377     19.609264     0.005887    Cartesian    0.03
   2103 x          7.841351      7.843010     0.001659    Cartesian    0.02
   2103 y         19.603377     19.609023     0.005646    Cartesian    0.03
   2103 z         -3.920675     -3.922009    -0.001334    Cartesian    0.03
   2104 x          1.960338      1.960338     0.000000    Cartesian    0.00
   2104 y        -17.643040    -17.646146    -0.003107    Cartesian    0.02
   2104 z         -5.881013     -5.882430    -0.001417    Cartesian    0.02
   2105 x          5.881013      5.882081     0.001068    Cartesian    0.02
   2105 y         17.643040     17.645478     0.002438    Cartesian    0.01
   2105 z         -9.801689     -9.803316    -0.001627    Cartesian    0.02
   2106 x         13.722364     13.724368     0.002004    Cartesian    0.01
   2106 y         -5.881013     -5.882313    -0.001299    Cartesian    0.02
   2106 z        -13.722364    -13.724491    -0.002126    Cartesian    0.02
   2107 x         15.682702     15.687867     0.005165    Cartesian    0.03
   2107 y         15.682702     15.688081     0.005379    Cartesian    0.03
   2107 z          0.000000     -0.000121    -0.000121    Cartesian    0.00
   2108 x         11.762026     11.765144     0.003118    Cartesian    0.03
   2108 y         -7.841351     -7.843920    -0.002569    Cartesian    0.03
   2108 z         15.682702     15.687946     0.005244    Cartesian    0.03
--------------------------------------------------------------------------------


  Time to end of optimisation  =      438.2201 seconds


  Peak dynamic memory used =    1749.27 MB 


  Timing analysis for GULP :

--------------------------------------------------------------------------------
  Task / Subroutine                                          Time (Seconds)
--------------------------------------------------------------------------------
  Calculation of reciprocal space energy and derivatives          0.0002
  Calculation of reciprocal space energy using symmetry           0.0003
  Calculation of real space energy and derivatives                0.0016
  Calculation of real space energy using symmetry                 0.0033
  Calculation for region 1 energy and derivatives (2-b)         194.1330
  Calculation for region 2a energy                               62.3985
  Calculation for region 2b energy                                0.0037
  Calculation and manipulation of Hessian matrix                  1.6640
  Calculation of matrix inversion                               177.3580
  Symmetry generation of equivalent positions                     0.0018
--------------------------------------------------------------------------------
  Total CPU time                                                438.2201
--------------------------------------------------------------------------------


  Dump file written as Li3OCl.grs


  Job Finished at 14:33.30 23rd October    2020                               

