********************************************************************************
*                       GENERAL UTILITY LATTICE PROGRAM                        *
*                                 Julian Gale                                  *
*                       Curtin Institute for Computation                       *
*                    School of Molecular and Life Sciences                     *
*                    Curtin University, Western Australia                      *
********************************************************************************
* Version = 5.2.0 * Last modified =  10th September 2020                       *
********************************************************************************
*  optimise     - perform optimisation run                                     *
*  conp         - constant pressure calculation                                *
*  property     - calculate properties for final geometry                      *
*  defect       - perform defect calculation after bulk run                    *
*  compare      - compare initial and final structures                         *
********************************************************************************

  Job Started  at 14:33.30 23rd October    2020                               

  Number of CPUs =     1


  Total number of configurations input =      1

********************************************************************************
*  Input for Configuration =   1                                               *
********************************************************************************

  Formula = ClOLi3                                                      

  Number of irreducible atoms/shells =       5


  Total number atoms/shells =       7

  Dimensionality = 3               :  Bulk   


  Symmetry :

  Crystal family                   :  Cubic       
  Crystal class  (Groth - 1921)    :  Cubic Hexakisoctahedral              

  Space group (centrosymmetric)    :  P M 3 M         

  Patterson group                  :  P m -3 m 

  Cartesian lattice vectors (Angstroms) :

        3.918873    0.000000    0.000000
        0.000000    3.918873    0.000000
        0.000000    0.000000    3.918873

  Cell parameters (Angstroms/Degrees):

  a =       3.9189    alpha =  90.0000
  b =       3.9189    beta  =  90.0000
  c =       3.9189    gamma =  90.0000

  Initial cell volume =          60.184349 Angs**3

  Temperature of configuration =   0.00     K 

  Pressure of configuration =         0.000 GPa 

  Fractional coordinates of asymmetric unit :

--------------------------------------------------------------------------------
   No.  Atomic       x           y          z         Charge      Occupancy
        Label      (Frac)      (Frac)     (Frac)        (e)         (Frac)  
--------------------------------------------------------------------------------
      1 Cl    c    0.000000    0.000000    0.000000     1.48500    1.000000    
      2 O     c    0.500000    0.500000    0.500000     0.18300    1.000000    
      3 Li    c    0.500000    0.500000    0.000000     1.00000    1.000000    
      4 Cl    s    0.000000    0.000000    0.000000    -2.48500    1.000000    
      5 O     s    0.500000    0.500000    0.500000    -2.18300    1.000000    
--------------------------------------------------------------------------------


  Constraints : 

--------------------------------------------------------------------------------
  Constraint no.      Unconstrained     Constrained    Coefficient    Offset
                         Variable         Variable
--------------------------------------------------------------------------------
           1              Strain 1        Strain 2       1.00000      0.0000
           2              Strain 1        Strain 3       1.00000      0.0000
--------------------------------------------------------------------------------


********************************************************************************
*  General input information                                                   *
********************************************************************************

  Species output for all configurations : 

--------------------------------------------------------------------------------
  Species    Type    Atomic    Atomic    Charge       Radii (Angs)     Library
                     Number     Mass       (e)     Cova   Ionic  VDW   Symbol
--------------------------------------------------------------------------------
    Li       Core        3       6.94   1.000000   0.680  0.000  1.800          
    O        Core        8      16.00   0.183000   0.730  0.000  1.360          
    O        Shell       8       0.00  -2.183000   0.730  0.000  1.360          
    Cl       Core       17      35.45   1.485000   0.990  0.000  1.650          
    Cl       Shell      17       0.00  -2.485000   0.990  0.000  1.650          
--------------------------------------------------------------------------------


  Lattice summation method               =    Ewald          (3-D)
                                         =    Parry          (2-D)
                                         =    Saunders et al (1-D)
  Accuracy factor for lattice sums       =   12.000


  Analytic derivatives to be used

  Time limit = Infinity

  Maximum range for interatomic potentials =    100000.000000 Angstroms

  General interatomic potentials :

--------------------------------------------------------------------------------
Atom  Types   Potential      Parameter       Value         Units   Cutoffs(Ang)
  1     2                                                            Min /  Max 
--------------------------------------------------------------------------------
O    c O    s Spring (c-s)  Spring k 2       593.72000    eV*Ang^-2 0.000  0.800
                            Spring k 4       0.0000000    eV*Ang^-4 
--------------------------------------------------------------------------------
Cl   c Cl   s Spring (c-s)  Spring k 2       29.380000    eV*Ang^-2 0.000  0.800
                            Spring k 4       0.0000000    eV*Ang^-4 
--------------------------------------------------------------------------------
Li   c Li   c Buckingham    Buckingham A     360.53000    eV        0.000 12.000
                            Buckingham rho  0.16100000    Ang       
                            Buckingham C     0.0000000    eV*Ang^6  
--------------------------------------------------------------------------------
Li   c O    s Buckingham    Buckingham A     292.30000    eV        0.000 12.000
                            Buckingham rho  0.34720000    Ang       
                            Buckingham C     0.0000000    eV*Ang^6  
--------------------------------------------------------------------------------
Li   c Cl   s Buckingham    Buckingham A     421.04000    eV        0.000 12.000
                            Buckingham rho  0.33400000    Ang       
                            Buckingham C     0.0000000    eV*Ang^6  
--------------------------------------------------------------------------------
O    s O    s Buckingham    Buckingham A     22764.300    eV        0.000 12.000
                            Buckingham rho  0.14900000    Ang       
                            Buckingham C     13.190000    eV*Ang^6  
--------------------------------------------------------------------------------
O    s Cl   s Buckingham    Buckingham A     8286.9100    eV        0.000 12.000
                            Buckingham rho  0.25900000    Ang       
                            Buckingham C     62.200000    eV*Ang^6  
--------------------------------------------------------------------------------
Cl   s Cl   s Buckingham    Buckingham A     1227.2000    eV        0.000 12.000
                            Buckingham rho  0.32100000    Ang       
                            Buckingham C     14.530000    eV*Ang^6  
--------------------------------------------------------------------------------

********************************************************************************
*  Output for configuration   1                                                *
********************************************************************************


  Components of energy : 

--------------------------------------------------------------------------------
  Interatomic potentials     =           7.26836263 eV    
  Monopole - monopole (real) =         -11.53475722 eV    
  Monopole - monopole (recip)=         -33.94580548 eV    
  Monopole - monopole (total)=         -45.48056271 eV    
--------------------------------------------------------------------------------
  Total lattice energy       =         -38.21220008 eV    
--------------------------------------------------------------------------------
  Total lattice energy       =           -3686.8932 kJ/(mole unit cells)
--------------------------------------------------------------------------------


  Number of variables =        1

  Maximum number of calculations  =          1000
  Maximum Hessian update interval =            10
  Maximum step size               =   1.000000000
  Maximum parameter tolerance     =   0.000010000
  Maximum function  tolerance     =   0.000010000
  Maximum gradient  tolerance     =   0.001000000
  Maximum gradient  component     =   0.010000000

  Symmetry constrained optimisation

  Symmetry used for second derivatives

  Cell parameters to be optimised using strains

  Newton-Raphson optimiser to be used

  BFGS hessian update to be used

  Lower half triangular hessian to be used

  Start of bulk optimisation :

  Cycle:      0 Energy:       -38.212200  Gnorm:      0.095699  CPU:    0.008
  ** Hessian calculated **
  Cycle:      1 Energy:       -38.212222  Gnorm:      0.000105  CPU:    0.010


  **** Optimisation achieved ****


  Final energy =     -38.21222207 eV
  Final Gnorm  =       0.00000016

  Components of energy : 

--------------------------------------------------------------------------------
  Interatomic potentials     =           7.24743141 eV    
  Monopole - monopole (real) =         -11.52945423 eV    
  Monopole - monopole (recip)=         -33.93019924 eV    
  Monopole - monopole (total)=         -45.45965348 eV    
--------------------------------------------------------------------------------
  Total lattice energy       =         -38.21222207 eV    
--------------------------------------------------------------------------------
  Total lattice energy       =           -3686.8953 kJ/(mole unit cells)
--------------------------------------------------------------------------------

  Final asymmetric unit coordinates :

--------------------------------------------------------------------------------
   No.  Atomic        x           y           z         Radius
        Label       (Frac)      (Frac)      (Frac)       (Angs) 
--------------------------------------------------------------------------------
     1  Cl    c     0.000000    0.000000    0.000000    0.000000
     2  O     c     0.500000    0.500000    0.500000    0.000000
     3  Li    c     0.500000    0.500000    0.000000    0.000000
     4  Cl    s     0.000000    0.000000    0.000000    0.000000
     5  O     s     0.500000    0.500000    0.500000    0.000000
--------------------------------------------------------------------------------

  Final Cartesian lattice vectors (Angstroms) :

        3.920675    0.000000    0.000000
        0.000000    3.920675    0.000000
        0.000000    0.000000    3.920675


  Final cell parameters and derivatives :

--------------------------------------------------------------------------------
       a            3.920675 Angstrom     dE/de1(xx)    -0.000000 eV/strain
       b            3.920675 Angstrom     dE/de2(yy)     0.000000 eV/strain
       c            3.920675 Angstrom     dE/de3(zz)     0.000000 eV/strain
       alpha       90.000000 Degrees      dE/de4(yz)     0.000000 eV/strain
       beta        90.000000 Degrees      dE/de5(xz)     0.000000 eV/strain
       gamma       90.000000 Degrees      dE/de6(xy)     0.000000 eV/strain
--------------------------------------------------------------------------------

  Primitive cell volume =            60.267433 Angs**3

  Density of cell =      1.991276 g/cm**3

  Non-primitive cell volume =            60.267433 Angs**3


  Final internal derivatives :

--------------------------------------------------------------------------------
   No.  Atomic          a             b             c           Radius
        Label          (eV)          (eV)          (eV)        (eV/Angs)
--------------------------------------------------------------------------------
      1 Cl    c       0.000000      0.000000      0.000000      0.000000
      2 O     c       0.000000      0.000000      0.000000      0.000000
      3 Li    c       0.000000      0.000000      0.000000      0.000000
      4 Cl    s       0.000000      0.000000      0.000000      0.000000
      5 O     s       0.000000      0.000000      0.000000      0.000000
--------------------------------------------------------------------------------
  Maximum abs         0.000000      0.000000      0.000000      0.000000
--------------------------------------------------------------------------------

  Comparison of initial and final structures : 

--------------------------------------------------------------------------------
  Parameter   Initial value   Final value   Difference    Units      Percent
--------------------------------------------------------------------------------
    Volume        60.184349     60.267433     0.083084    Angs**3      0.14
    a              3.918873      3.920675     0.001802    Angstroms    0.05
    b              3.918873      3.920675     0.001802    Angstroms    0.05
    c              3.918873      3.920675     0.001802    Angstroms    0.05
    alpha         90.000000     90.000000     0.000000    Degrees      0.00
    beta          90.000000     90.000000     0.000000    Degrees      0.00
    gamma         90.000000     90.000000     0.000000    Degrees      0.00
      1 x          0.000000      0.000000     0.000000    Fractional   0.00
      1 y          0.000000      0.000000     0.000000    Fractional   0.00
      1 z          0.000000      0.000000     0.000000    Fractional   0.00
      2 x          0.500000      0.500000     0.000000    Fractional   0.00
      2 y          0.500000      0.500000     0.000000    Fractional   0.00
      2 z          0.500000      0.500000     0.000000    Fractional   0.00
      3 x          0.500000      0.500000     0.000000    Fractional   0.00
      3 y          0.500000      0.500000     0.000000    Fractional   0.00
      3 z          0.000000      0.000000     0.000000    Fractional   0.00
      4 x          0.000000      0.000000     0.000000    Fractional   0.00
      4 y          0.000000      0.000000     0.000000    Fractional   0.00
      4 z          0.000000      0.000000     0.000000    Fractional   0.00
      5 x          0.500000      0.500000     0.000000    Fractional   0.00
      5 y          0.500000      0.500000     0.000000    Fractional   0.00
      5 z          0.500000      0.500000     0.000000    Fractional   0.00
--------------------------------------------------------------------------------


  Born effective charge tensors : 

-------------------------------------------------------------------------------
  Atom             x           y             z
-------------------------------------------------------------------------------
    1 Cl    x      -0.9489     -0.0000     -0.0000
            y      -0.0000     -0.9489     -0.0000
            z      -0.0000     -0.0000     -0.9489
-------------------------------------------------------------------------------
    2 O     x      -2.4688      0.0000      0.0000
            y       0.0000     -2.4688      0.0000
            z       0.0000      0.0000     -2.4688
-------------------------------------------------------------------------------
    3 Li    x       1.3129      0.0000     -0.0000
            y       0.0000      1.3129      0.0000
            z      -0.0000      0.0000      0.7919
-------------------------------------------------------------------------------




  Elastic Constant Matrix: (Units=GPa)

-------------------------------------------------------------------------------
  Indices      1         2         3         4         5         6    
-------------------------------------------------------------------------------
       1     94.3368   44.9178   44.9178    0.0000   -0.0000    0.0000
       2     44.9178   94.3368   44.9178   -0.0000    0.0000   -0.0000
       3     44.9178   44.9178   94.3368    0.0000   -0.0000    0.0000
       4      0.0000   -0.0000    0.0000   44.9178   -0.0000    0.0000
       5     -0.0000    0.0000   -0.0000   -0.0000   44.9178    0.0000
       6      0.0000   -0.0000    0.0000    0.0000    0.0000   44.9178
-------------------------------------------------------------------------------


  Elastic Compliance Matrix: (Units=1/GPa)

-------------------------------------------------------------------------------
  Indices      1         2         3         4         5         6    
-------------------------------------------------------------------------------
       1    0.015300 -0.004935 -0.004935 -0.000000  0.000000 -0.000000
       2   -0.004935  0.015300 -0.004935  0.000000 -0.000000  0.000000
       3   -0.004935 -0.004935  0.015300 -0.000000  0.000000 -0.000000
       4   -0.000000  0.000000 -0.000000  0.022263  0.000000 -0.000000
       5    0.000000 -0.000000  0.000000  0.000000  0.022263 -0.000000
       6   -0.000000  0.000000 -0.000000 -0.000000 -0.000000  0.022263
-------------------------------------------------------------------------------

  Mechanical properties :

-------------------------------------------------------------------------------
  Convention :                    Reuss         Voigt         Hill
-------------------------------------------------------------------------------
  Bulk  Modulus (GPa)     =      61.39080      61.39080      61.39080
  Shear Modulus (GPa)     =      33.84570      36.83448      35.34009
-------------------------------------------------------------------------------
  Velocity S-wave (km/s)  =       4.12274       4.30092       4.21277
  Velocity P-wave (km/s)  =       7.31386       7.44942       7.38195
-------------------------------------------------------------------------------
  Compressibility (1/GPa) =    0.01628909
-------------------------------------------------------------------------------
  Stress axis :                     x             y             z
-------------------------------------------------------------------------------
  Youngs Moduli (GPa)     =      65.35947      65.35947      65.35947
-------------------------------------------------------------------------------
  Poissons Ratio (x)      =                     0.32256       0.32256
  Poissons Ratio (y)      =       0.32256                     0.32256
  Poissons Ratio (z)      =       0.32256       0.32256
-------------------------------------------------------------------------------


  Piezoelectric Strain Matrix: (Units=C/m**2)

-------------------------------------------------------------------------------
  Indices      1         2         3         4         5         6    
-------------------------------------------------------------------------------
       x    -0.00000   0.00000   0.00000  -0.00000  -0.00000   0.00000
       y    -0.00000   0.00000   0.00000  -0.00000  -0.00000  -0.00000
       z     0.00000   0.00000   0.00000   0.00000  -0.00000  -0.00000
-------------------------------------------------------------------------------


  Piezoelectric Stress Matrix: (Units=10**-11 C/N)

-------------------------------------------------------------------------------
  Indices      1         2         3         4         5         6    
-------------------------------------------------------------------------------
       x    -0.00000   0.00000   0.00000  -0.00000  -0.00000   0.00000
       y    -0.00000   0.00000   0.00000  -0.00000  -0.00000  -0.00000
       z    -0.00000  -0.00000   0.00000   0.00000  -0.00000  -0.00000
-------------------------------------------------------------------------------


  Static dielectric constant tensor : 

-------------------------------------------------------------------------------
              x         y         z
-------------------------------------------------------------------------------
       x    12.11703   0.00000  -0.00000
       y     0.00000  12.11703  -0.00000
       z    -0.00000  -0.00000  12.11703
--------------------------------------------------------------------------------

  High frequency dielectric constant tensor : 

-------------------------------------------------------------------------------
              x         y         z
-------------------------------------------------------------------------------
       x     1.74104   0.00000   0.00000
       y     0.00000   1.74104   0.00000
       z     0.00000   0.00000   1.74104
-------------------------------------------------------------------------------

  Static refractive indices : 

-------------------------------------------------------------------------------
    1 =    3.48095      2 =    3.48095      3 =    3.48095
-------------------------------------------------------------------------------

  High frequency refractive indices : 

-------------------------------------------------------------------------------
    1 =    1.31948      2 =    1.31948      3 =    1.31948
-------------------------------------------------------------------------------


  Time to end of optimisation =       0.0142 seconds

********************************************************************************
*  Defect calculation for configuration   1 :                                  *
********************************************************************************

  Total number of defects =      3

  Total charge on defect  =  -1.00

  Defect centre is at   0.5000   0.3250   0.1750  Frac

  Region 1 radius =  20.0000      Number of ions =   3889

  Number of symmetry inequivalent region 1 ions  =   2107

  Region 2 radius =  24.0000      Number of ions =   2818

  Number of symmetry inequivalent region 2a ions =   1481

  Region 2a mode = 4 : screened electrostatics due to region 1 
                       neglect correction to region 1 forces from 2a
                       region 2a displacements based on defects only

  Region 2a ions will only interact with defects in region 1

  Vacancies:

--------------------------------------------------------------------------------
    Specification type     Symbol/Number         x          y          z
--------------------------------------------------------------------------------
    Fractional                               0.500000   0.500000   0.000000
    Fractional                               0.500000   0.000000   0.500000
--------------------------------------------------------------------------------

  Interstitials:

--------------------------------------------------------------------------------
    Specification type     Symbol/Number         x          y          z
--------------------------------------------------------------------------------
    Atom/Fractional         Li               0.500000   0.325000   0.175000
--------------------------------------------------------------------------------


  Symmetry reduced region 1 (Relative to defect centre) :

--------------------------------------------------------------------------------
   No.   Atomic       x            y             z       Radius  Multiplicity   
         Label      (Angs)       (Angs)        (Angs)    (Angs)     
--------------------------------------------------------------------------------
     1  Li    c      0.0000       0.0000       0.0000    0.0000     1    Defect
     2  O     c      0.0000       0.6861 *     1.2742 *  0.0000     1          
     3  Li    c      1.9603 *     0.6861 *     1.2742 *  0.0000     2          
     4  Cl    c      1.9603 *    -1.2742 *    -0.6861 *  0.0000     2          
     5  O     c      0.0000       0.6861 *    -2.6465 *  0.0000     1          
     6  Li    c      0.0000       2.6465 *     1.2742 *  0.0000     1          
     7  Li    c      0.0000      -1.2742 *    -2.6465 *  0.0000     1          
     8  Li    c      0.0000       0.6861 *     3.2346 *  0.0000     1          
     9  Li    c      0.0000      -3.2346 *    -0.6861 *  0.0000     1          
    10  Cl    c      1.9603 *     2.6465 *    -0.6861 *  0.0000     2          
    11  Li    c      1.9603 *     0.6861 *    -2.6465 *  0.0000     2          
    12  O     c      0.0000      -3.2346 *     1.2742 *  0.0000     1          
    13  Li    c      0.0000       2.6465 *    -2.6465 *  0.0000     1          
    14  Li    c      1.9603 *    -3.2346 *     1.2742 *  0.0000     2          
    15  Cl    c      1.9603 *    -1.2742 *     3.2346 *  0.0000     2          
    16  Li    c     -3.9207 *     0.6861 *    -0.6861 *  0.0000     2          
    17  O     c      0.0000      -3.2346 *    -2.6465 *  0.0000     1          
    18  O     c     -3.9207 *     0.6861 *     1.2742 *  0.0000     2          
    19  Li    c      3.9207 *    -1.2742 *     1.2742 *  0.0000     2          
    20  Li    c      0.0000      -3.2346 *     3.2346 *  0.0000     1          
    21  Cl    c      1.9603 *     2.6465 *     3.2346 *  0.0000     2          
    22  Li    c      1.9603 *    -3.2346 *    -2.6465 *  0.0000     2          
    23  Li    c      0.0000       0.6861 *    -4.6068 *  0.0000     1          
    24  Li    c      0.0000       4.6068 *    -0.6861 *  0.0000     1          
    25  O     c      0.0000       4.6068 *     1.2742 *  0.0000     1          
    26  O     c     -3.9207 *     0.6861 *    -2.6465 *  0.0000     2          
    27  Li    c      3.9207 *     2.6465 *     1.2742 *  0.0000     2          
    28  Li    c      3.9207 *    -1.2742 *    -2.6465 *  0.0000     2          
    29  Li    c     -3.9207 *    -3.2346 *    -0.6861 *  0.0000     2          
    30  Li    c      3.9207 *     0.6861 *     3.2346 *  0.0000     2          
    31  Cl    c      1.9603 *    -1.2742 *    -4.6068 *  0.0000     2          
    32  Li    c      1.9603 *     4.6068 *     1.2742 *  0.0000     2          
    33  O     c      0.0000       0.6861 *     5.1949 *  0.0000     1          
    34  O     c     -3.9207 *    -3.2346 *     1.2742 *  0.0000     2          
    35  O     c      0.0000       4.6068 *    -2.6465 *  0.0000     1          
    36  Li    c      0.0000      -1.2742 *     5.1949 *  0.0000     1          
    37  Li    c      0.0000      -5.1949 *     1.2742 *  0.0000     1          
    38  Li    c      3.9207 *     2.6465 *    -2.6465 *  0.0000     2          
    39  Cl    c      1.9603 *    -5.1949 *    -0.6861 *  0.0000     2          
    40  Li    c      1.9603 *     0.6861 *     5.1949 *  0.0000     2          
    41  Li    c      0.0000       4.6068 *     3.2346 *  0.0000     1          
    42  Li    c      0.0000      -3.2346 *    -4.6068 *  0.0000     1          
    43  Cl    c      1.9603 *     2.6465 *    -4.6068 *  0.0000     2          
    44  Li    c      1.9603 *     4.6068 *    -2.6465 *  0.0000     2          
    45  O     c     -3.9207 *    -3.2346 *    -2.6465 *  0.0000     2          
    46  Li    c      0.0000       2.6465 *     5.1949 *  0.0000     1          
    47  Li    c      0.0000      -5.1949 *    -2.6465 *  0.0000     1          
    48  Li    c      3.9207 *    -3.2346 *     3.2346 *  0.0000     2          
    49  Cl    c      5.8810 *    -1.2742 *    -0.6861 *  0.0000     2          
    50  Li    c      5.8810 *     0.6861 *     1.2742 *  0.0000     2          
    51  Li    c     -3.9207 *     4.6068 *    -0.6861 *  0.0000     2          
    52  Li    c      3.9207 *     0.6861 *    -4.6068 *  0.0000     2          
    53  O     c      0.0000      -3.2346 *     5.1949 *  0.0000     1          
    54  O     c     -3.9207 *     4.6068 *     1.2742 *  0.0000     2          
    55  Cl    c      1.9603 *    -5.1949 *     3.2346 *  0.0000     2          
    56  Li    c      1.9603 *    -3.2346 *     5.1949 *  0.0000     2          
    57  Cl    c      5.8810 *     2.6465 *    -0.6861 *  0.0000     2          
    58  Li    c      5.8810 *     0.6861 *    -2.6465 *  0.0000     2          
    59  Li    c      0.0000       4.6068 *    -4.6068 *  0.0000     1          
    60  O     c     -3.9207 *     0.6861 *     5.1949 *  0.0000     2          
    61  O     c     -3.9207 *     4.6068 *    -2.6465 *  0.0000     2          
    62  O     c      0.0000       0.6861 *    -6.5671 *  0.0000     1          
    63  Li    c      3.9207 *    -1.2742 *     5.1949 *  0.0000     2          
    64  Li    c      3.9207 *    -5.1949 *     1.2742 *  0.0000     2          
    65  Li    c      0.0000       6.5671 *     1.2742 *  0.0000     1          
    66  Li    c      0.0000      -1.2742 *    -6.5671 *  0.0000     1          
    67  Cl    c      5.8810 *    -1.2742 *     3.2346 *  0.0000     2          
    68  Li    c      5.8810 *    -3.2346 *     1.2742 *  0.0000     2          
    69  Li    c     -3.9207 *     4.6068 *     3.2346 *  0.0000     2          
    70  Li    c     -3.9207 *    -3.2346 *    -4.6068 *  0.0000     2          
    71  Cl    c      1.9603 *     6.5671 *    -0.6861 *  0.0000     2          
    72  Li    c      1.9603 *     0.6861 *    -6.5671 *  0.0000     2          
    73  O     c      0.0000       4.6068 *     5.1949 *  0.0000     1          
    74  Li    c      3.9207 *     2.6465 *     5.1949 *  0.0000     2          
    75  Li    c      3.9207 *    -5.1949 *    -2.6465 *  0.0000     2          
    76  Li    c      0.0000       6.5671 *    -2.6465 *  0.0000     1          
    77  Li    c      0.0000       2.6465 *    -6.5671 *  0.0000     1          
    78  Li    c      0.0000       0.6861 *     7.1552 *  0.0000     1          
    79  Li    c      0.0000      -7.1552 *    -0.6861 *  0.0000     1          
    80  Cl    c      5.8810 *     2.6465 *     3.2346 *  0.0000     2          
    81  Cl    c      1.9603 *    -5.1949 *    -4.6068 *  0.0000     2          
    82  Li    c      1.9603 *     4.6068 *     5.1949 *  0.0000     2          
    83  Li    c      5.8810 *    -3.2346 *    -2.6465 *  0.0000     2          
    84  O     c      0.0000      -7.1552 *     1.2742 *  0.0000     1          
    85  O     c      3.9207 *    -3.2346 *     5.1949 *  0.0000     2          
    86  O     c      0.0000      -3.2346 *    -6.5671 *  0.0000     1          
    87  Li    c      0.0000      -5.1949 *     5.1949 *  0.0000     1          
    88  Li    c      1.9603 *    -7.1552 *     1.2742 *  0.0000     2          
    89  Cl    c      1.9603 *    -1.2742 *     7.1552 *  0.0000     2          
    90  Cl    c      1.9603 *     6.5671 *     3.2346 *  0.0000     2          
    91  Cl    c      5.8810 *    -1.2742 *    -4.6068 *  0.0000     2          
    92  Li    c      5.8810 *     4.6068 *     1.2742 *  0.0000     2          
    93  Li    c      1.9603 *    -3.2346 *    -6.5671 *  0.0000     2          
    94  Li    c     -3.9207 *     4.6068 *    -4.6068 *  0.0000     2          
    95  O     c      0.0000      -7.1552 *    -2.6465 *  0.0000     1          
    96  O     c      3.9207 *     0.6861 *    -6.5671 *  0.0000     2          
    97  Li    c     -3.9207 *     6.5671 *     1.2742 *  0.0000     2          
    98  Li    c      3.9207 *    -1.2742 *    -6.5671 *  0.0000     2          
    99  Li    c      0.0000      -3.2346 *     7.1552 *  0.0000     1          
   100  Li    c      0.0000      -7.1552 *     3.2346 *  0.0000     1          
   101  Cl    c      1.9603 *     2.6465 *     7.1552 *  0.0000     2          
   102  Cl    c      5.8810 *    -5.1949 *    -0.6861 *  0.0000     2          
   103  Li    c      1.9603 *    -7.1552 *    -2.6465 *  0.0000     2          
   104  Li    c      5.8810 *     0.6861 *     5.1949 *  0.0000     2          
   105  Li    c     -7.8414 *     0.6861 *    -0.6861 *  0.0000     2          
   106  Cl    c      5.8810 *     2.6465 *    -4.6068 *  0.0000     2          
   107  Li    c      5.8810 *     4.6068 *    -2.6465 *  0.0000     2          
   108  O     c     -3.9207 *     4.6068 *     5.1949 *  0.0000     2          
   109  O     c     -7.8414 *     0.6861 *     1.2742 *  0.0000     2          
   110  O     c      0.0000       4.6068 *    -6.5671 *  0.0000     1          
   111  Li    c     -7.8414 *    -1.2742 *     1.2742 *  0.0000     2          
   112  Li    c     -3.9207 *     6.5671 *    -2.6465 *  0.0000     2          
   113  Li    c      3.9207 *     2.6465 *    -6.5671 *  0.0000     2          
   114  Li    c      3.9207 *     0.6861 *     7.1552 *  0.0000     2          
   115  Li    c      3.9207 *    -7.1552 *    -0.6861 *  0.0000     2          
   116  Cl    c      1.9603 *     6.5671 *    -4.6068 *  0.0000     2          
   117  O     c      3.9207 *    -7.1552 *     1.2742 *  0.0000     2          
   118  Li    c      1.9603 *     4.6068 *    -6.5671 *  0.0000     2          
   119  O     c     -7.8414 *     0.6861 *    -2.6465 *  0.0000     2          
   120  O     c     -3.9207 *    -3.2346 *    -6.5671 *  0.0000     2          
   121  Li    c      3.9207 *    -5.1949 *     5.1949 *  0.0000     2          
   122  Li    c      0.0000       6.5671 *     5.1949 *  0.0000     1          
   123  Li    c     -7.8414 *    -1.2742 *    -2.6465 *  0.0000     2          
   124  Li    c     -7.8414 *     2.6465 *     1.2742 *  0.0000     2          
   125  Li    c      0.0000      -5.1949 *    -6.5671 *  0.0000     1          
   126  Cl    c      5.8810 *    -5.1949 *     3.2346 *  0.0000     2          
   127  Li    c      5.8810 *    -3.2346 *     5.1949 *  0.0000     2          
   128  Li    c      0.0000       4.6068 *     7.1552 *  0.0000     1          
   129  Li    c      0.0000      -7.1552 *    -4.6068 *  0.0000     1          
   130  Li    c     -7.8414 *     0.6861 *     3.2346 *  0.0000     2          
   131  Li    c     -7.8414 *    -3.2346 *    -0.6861 *  0.0000     2          
   132  Li    c      0.0000       0.6861 *    -8.5275 *  0.0000     1          
   133  Li    c      0.0000       8.5275 *    -0.6861 *  0.0000     1          
   134  O     c      3.9207 *    -7.1552 *    -2.6465 *  0.0000     2          
   135  O     c     -7.8414 *    -3.2346 *     1.2742 *  0.0000     2          
   136  O     c      0.0000       8.5275 *     1.2742 *  0.0000     1          
   137  Li    c     -7.8414 *     2.6465 *    -2.6465 *  0.0000     2          
   138  Li    c      3.9207 *    -3.2346 *     7.1552 *  0.0000     2          
   139  Li    c      3.9207 *    -7.1552 *     3.2346 *  0.0000     2          
   140  O     c      0.0000      -7.1552 *     5.1949 *  0.0000     1          
   141  Cl    c      1.9603 *    -1.2742 *    -8.5275 *  0.0000     2          
   142  Cl    c      5.8810 *     6.5671 *    -0.6861 *  0.0000     2          
   143  Li    c      1.9603 *     8.5275 *     1.2742 *  0.0000     2          
   144  Li    c      5.8810 *     0.6861 *    -6.5671 *  0.0000     2          
   145  O     c     -7.8414 *    -3.2346 *    -2.6465 *  0.0000     2          
   146  O     c      0.0000       8.5275 *    -2.6465 *  0.0000     1          
   147  O     c      3.9207 *     4.6068 *    -6.5671 *  0.0000     2          
   148  Li    c      1.9603 *    -7.1552 *     5.1949 *  0.0000     2          
   149  Cl    c      1.9603 *    -5.1949 *     7.1552 *  0.0000     2          
   150  Li    c     -7.8414 *    -3.2346 *     3.2346 *  0.0000     2          
   151  Cl    c      5.8810 *    -5.1949 *    -4.6068 *  0.0000     2          
   152  Li    c      5.8810 *     4.6068 *     5.1949 *  0.0000     2          
   153  Li    c     -7.8414 *     0.6861 *    -4.6068 *  0.0000     2          
   154  Li    c      0.0000       8.5275 *     3.2346 *  0.0000     1          
   155  Li    c      0.0000      -3.2346 *    -8.5275 *  0.0000     1          
   156  Li    c     -7.8414 *     4.6068 *    -0.6861 *  0.0000     2          
   157  O     c      0.0000       0.6861 *     9.1156 *  0.0000     1          
   158  Cl    c      1.9603 *     2.6465 *    -8.5275 *  0.0000     2          
   159  Li    c      1.9603 *     8.5275 *    -2.6465 *  0.0000     2          
   160  O     c     -7.8414 *     4.6068 *     1.2742 *  0.0000     2          
   161  Li    c      0.0000      -1.2742 *     9.1156 *  0.0000     1          
   162  Li    c      0.0000      -9.1156 *     1.2742 *  0.0000     1          
   163  Li    c     -3.9207 *     6.5671 *     5.1949 *  0.0000     2          
   164  Li    c      3.9207 *    -5.1949 *    -6.5671 *  0.0000     2          
   165  Li    c      0.0000       6.5671 *    -6.5671 *  0.0000     1          
   166  Li    c      1.9603 *     0.6861 *     9.1156 *  0.0000     2          
   167  Cl    c      1.9603 *    -9.1156 *    -0.6861 *  0.0000     2          
   168  Cl    c      5.8810 *    -1.2742 *     7.1552 *  0.0000     2          
   169  Li    c      5.8810 *    -7.1552 *     1.2742 *  0.0000     2          
   170  Li    c      3.9207 *    -7.1552 *    -4.6068 *  0.0000     2          
   171  Li    c     -3.9207 *     4.6068 *     7.1552 *  0.0000     2          
   172  Cl    c      5.8810 *     6.5671 *     3.2346 *  0.0000     2          
   173  Li    c      5.8810 *    -3.2346 *    -6.5671 *  0.0000     2          
   174  Li    c     -3.9207 *     0.6861 *    -8.5275 *  0.0000     2          
   175  Li    c      3.9207 *     8.5275 *    -0.6861 *  0.0000     2          
   176  O     c     -7.8414 *     0.6861 *     5.1949 *  0.0000     2          
   177  O     c     -7.8414 *     4.6068 *    -2.6465 *  0.0000     2          
   178  O     c      3.9207 *     8.5275 *     1.2742 *  0.0000     2          
   179  Li    c      0.0000       2.6465 *     9.1156 *  0.0000     1          
   180  Li    c      0.0000      -9.1156 *    -2.6465 *  0.0000     1          
   181  Li    c     -7.8414 *    -1.2742 *     5.1949 *  0.0000     2          
   182  Li    c     -7.8414 *    -5.1949 *     1.2742 *  0.0000     2          
   183  Cl    c      5.8810 *     2.6465 *     7.1552 *  0.0000     2          
   184  Li    c      5.8810 *    -7.1552 *    -2.6465 *  0.0000     2          
   185  Li    c     -7.8414 *     4.6068 *     3.2346 *  0.0000     2          
   186  Li    c      7.8414 *    -3.2346 *    -4.6068 *  0.0000     2          
   187  O     c      0.0000      -3.2346 *     9.1156 *  0.0000     1          
   188  O     c      3.9207 *    -7.1552 *     5.1949 *  0.0000     2          
   189  Li    c      0.0000       4.6068 *    -8.5275 *  0.0000     1          
   190  Li    c      0.0000       8.5275 *    -4.6068 *  0.0000     1          
   191  O     c      0.0000      -7.1552 *    -6.5671 *  0.0000     1          
   192  O     c      3.9207 *     8.5275 *    -2.6465 *  0.0000     2          
   193  Li    c     -7.8414 *     2.6465 *     5.1949 *  0.0000     2          
   194  Li    c     -7.8414 *    -5.1949 *    -2.6465 *  0.0000     2          
   195  Cl    c      1.9603 *    -9.1156 *     3.2346 *  0.0000     2          
   196  Li    c      1.9603 *    -3.2346 *     9.1156 *  0.0000     2          
   197  Cl    c      1.9603 *     6.5671 *     7.1552 *  0.0000     2          
   198  Li    c      1.9603 *    -7.1552 *    -6.5671 *  0.0000     2          
   199  Cl    c      9.8017 *    -1.2742 *    -0.6861 *  0.0000     2          
   200  Li    c      9.8017 *     0.6861 *     1.2742 *  0.0000     2          
   201  Li    c      3.9207 *     8.5275 *     3.2346 *  0.0000     2          
   202  Li    c      3.9207 *    -3.2346 *    -8.5275 *  0.0000     2          
   203  O     c     -3.9207 *     0.6861 *     9.1156 *  0.0000     2          
   204  Cl    c      5.8810 *     6.5671 *    -4.6068 *  0.0000     2          
   205  O     c     -7.8414 *    -3.2346 *     5.1949 *  0.0000     2          
   206  Li    c      5.8810 *     4.6068 *    -6.5671 *  0.0000     2          
   207  O     c      0.0000       8.5275 *     5.1949 *  0.0000     1          
   208  Li    c      3.9207 *    -1.2742 *     9.1156 *  0.0000     2          
   209  Li    c      3.9207 *    -9.1156 *     1.2742 *  0.0000     2          
   210  Li    c     -3.9207 *     6.5671 *    -6.5671 *  0.0000     2          
   211  Li    c      0.0000      -7.1552 *     7.1552 *  0.0000     1          
   212  Cl    c      1.9603 *    -5.1949 *    -8.5275 *  0.0000     2          
   213  Li    c      1.9603 *     8.5275 *     5.1949 *  0.0000     2          
   214  Cl    c      9.8017 *     2.6465 *    -0.6861 *  0.0000     2          
   215  Li    c      9.8017 *     0.6861 *    -2.6465 *  0.0000     2          
   216  Li    c      7.8414 *     4.6068 *    -4.6068 *  0.0000     2          
   217  O     c      0.0000       4.6068 *     9.1156 *  0.0000     1          
   218  O     c     -7.8414 *     0.6861 *    -6.5671 *  0.0000     2          
   219  Li    c      3.9207 *     2.6465 *     9.1156 *  0.0000     2          
   220  Li    c      3.9207 *    -9.1156 *    -2.6465 *  0.0000     2          
   221  Li    c     -7.8414 *     6.5671 *     1.2742 *  0.0000     2          
   222  Li    c      7.8414 *    -1.2742 *    -6.5671 *  0.0000     2          
   223  Cl    c      1.9603 *    -9.1156 *    -4.6068 *  0.0000     2          
   224  Li    c      1.9603 *     4.6068 *     9.1156 *  0.0000     2          
   225  Cl    c      9.8017 *    -1.2742 *     3.2346 *  0.0000     2          
   226  Li    c      9.8017 *    -3.2346 *     1.2742 *  0.0000     2          
   227  O     c      3.9207 *    -3.2346 *     9.1156 *  0.0000     2          
   228  Cl    c      5.8810 *    -1.2742 *    -8.5275 *  0.0000     2          
   229  Li    c      5.8810 *     8.5275 *     1.2742 *  0.0000     2          
   230  Li    c      3.9207 *     4.6068 *    -8.5275 *  0.0000     2          
   231  Li    c      3.9207 *     8.5275 *    -4.6068 *  0.0000     2          
   232  O     c      3.9207 *    -7.1552 *    -6.5671 *  0.0000     2          
   233  O     c     -7.8414 *     4.6068 *     5.1949 *  0.0000     2          
   234  Li    c      0.0000      -5.1949 *     9.1156 *  0.0000     1          
   235  Li    c      0.0000      -9.1156 *     5.1949 *  0.0000     1          
   236  O     c      0.0000       0.6861 *   -10.4878 *  0.0000     1          
   237  Li    c     -7.8414 *     6.5671 *    -2.6465 *  0.0000     2          
   238  Li    c      0.0000      -1.2742 *   -10.4878 *  0.0000     1          
   239  Li    c      0.0000      10.4878 *     1.2742 *  0.0000     1          
   240  Li    c      7.8414 *     2.6465 *    -6.5671 *  0.0000     2          
   241  Cl    c      5.8810 *    -5.1949 *     7.1552 *  0.0000     2          
   242  Li    c      5.8810 *    -7.1552 *     5.1949 *  0.0000     2          
   243  Li    c      7.8414 *     0.6861 *     7.1552 *  0.0000     2          
   244  Li    c     -7.8414 *    -7.1552 *    -0.6861 *  0.0000     2          
   245  Cl    c      9.8017 *     2.6465 *     3.2346 *  0.0000     2          
   246  Li    c      9.8017 *    -3.2346 *    -2.6465 *  0.0000     2          
   247  O     c     -7.8414 *    -7.1552 *     1.2742 *  0.0000     2          
   248  Cl    c      5.8810 *     2.6465 *    -8.5275 *  0.0000     2          
   249  Li    c      1.9603 *     0.6861 *   -10.4878 *  0.0000     2          
   250  Li    c      5.8810 *     8.5275 *    -2.6465 *  0.0000     2          
   251  Cl    c      1.9603 *    10.4878 *    -0.6861 *  0.0000     2          
   252  O     c      3.9207 *     8.5275 *     5.1949 *  0.0000     2          
   253  O     c      7.8414 *    -3.2346 *    -6.5671 *  0.0000     2          
   254  Li    c     -7.8414 *    -5.1949 *     5.1949 *  0.0000     2          
   255  O     c      0.0000       8.5275 *    -6.5671 *  0.0000     1          
   256  Li    c      0.0000       2.6465 *   -10.4878 *  0.0000     1          
   257  Li    c      0.0000      10.4878 *    -2.6465 *  0.0000     1          
   258  Li    c      3.9207 *    -7.1552 *     7.1552 *  0.0000     2          
   259  Li    c      5.8810 *     0.6861 *     9.1156 *  0.0000     2          
   260  Cl    c      5.8810 *    -9.1156 *    -0.6861 *  0.0000     2          
   261  Cl    c      9.8017 *    -1.2742 *    -4.6068 *  0.0000     2          
   262  Li    c      9.8017 *     4.6068 *     1.2742 *  0.0000     2          
   263  O     c      3.9207 *     4.6068 *     9.1156 *  0.0000     2          
   264  O     c     -7.8414 *    -7.1552 *    -2.6465 *  0.0000     2          
   265  Cl    c      1.9603 *     6.5671 *    -8.5275 *  0.0000     2          
   266  Li    c      1.9603 *     8.5275 *    -6.5671 *  0.0000     2          
   267  O     c      0.0000      -3.2346 *   -10.4878 *  0.0000     1          
   268  Li    c      0.0000       0.6861 *    11.0759 *  0.0000     1          
   269  Li    c      0.0000     -11.0759 *    -0.6861 *  0.0000     1          
   270  Li    c     -7.8414 *    -3.2346 *     7.1552 *  0.0000     2          
   271  Li    c     -7.8414 *    -7.1552 *     3.2346 *  0.0000     2          
   272  Cl    c      9.8017 *    -5.1949 *    -0.6861 *  0.0000     2          
   273  Li    c      9.8017 *     0.6861 *     5.1949 *  0.0000     2          
   274  Li    c      0.0000       8.5275 *     7.1552 *  0.0000     1          
   275  Li    c      0.0000      -7.1552 *    -8.5275 *  0.0000     1          
   276  O     c      0.0000     -11.0759 *     1.2742 *  0.0000     1          
   277  Cl    c      1.9603 *    10.4878 *     3.2346 *  0.0000     2          
   278  Cl    c      9.8017 *     2.6465 *    -4.6068 *  0.0000     2          
   279  Li    c      1.9603 *    -3.2346 *   -10.4878 *  0.0000     2          
   280  Li    c      9.8017 *     4.6068 *    -2.6465 *  0.0000     2          
   281  Li    c      3.9207 *    -5.1949 *     9.1156 *  0.0000     2          
   282  Li    c      3.9207 *    -9.1156 *     5.1949 *  0.0000     2          
   283  O     c     -3.9207 *     0.6861 *   -10.4878 *  0.0000     2          
   284  O     c      7.8414 *     4.6068 *    -6.5671 *  0.0000     2          
   285  Li    c      0.0000       6.5671 *     9.1156 *  0.0000     1          
   286  Li    c      0.0000      -9.1156 *    -6.5671 *  0.0000     1          
   287  Li    c      3.9207 *    -1.2742 *   -10.4878 *  0.0000     2          
   288  Li    c      3.9207 *    10.4878 *     1.2742 *  0.0000     2          
   289  Cl    c      1.9603 *    -1.2742 *    11.0759 *  0.0000     2          
   290  Cl    c      5.8810 *    -9.1156 *     3.2346 *  0.0000     2          
   291  Li    c      1.9603 *   -11.0759 *     1.2742 *  0.0000     2          
   292  Li    c      5.8810 *    -3.2346 *     9.1156 *  0.0000     2          
   293  Cl    c      5.8810 *     6.5671 *     7.1552 *  0.0000     2          
   294  Li    c      5.8810 *    -7.1552 *    -6.5671 *  0.0000     2          
   295  O     c      0.0000     -11.0759 *    -2.6465 *  0.0000     1          
   296  O     c      0.0000       4.6068 *   -10.4878 *  0.0000     1          
   297  O     c      3.9207 *     8.5275 *    -6.5671 *  0.0000     2          
   298  Li    c      7.8414 *     6.5671 *     5.1949 *  0.0000     2          
   299  Li    c     -7.8414 *    -5.1949 *    -6.5671 *  0.0000     2          
   300  Li    c      3.9207 *     2.6465 *   -10.4878 *  0.0000     2          
   301  Li    c      3.9207 *    10.4878 *    -2.6465 *  0.0000     2          
   302  Li    c      0.0000      -3.2346 *    11.0759 *  0.0000     1          
   303  Li    c      0.0000     -11.0759 *     3.2346 *  0.0000     1          
   304  Cl    c      1.9603 *     2.6465 *    11.0759 *  0.0000     2          
   305  Li    c      1.9603 *   -11.0759 *    -2.6465 *  0.0000     2          
   306  Cl    c      9.8017 *    -5.1949 *     3.2346 *  0.0000     2          
   307  Li    c      9.8017 *    -3.2346 *     5.1949 *  0.0000     2          
   308  Li    c     -7.8414 *     4.6068 *     7.1552 *  0.0000     2          
   309  Li    c     -7.8414 *    -7.1552 *    -4.6068 *  0.0000     2          
   310  O     c      0.0000      -7.1552 *     9.1156 *  0.0000     1          
   311  Cl    c      5.8810 *    -5.1949 *    -8.5275 *  0.0000     2          
   312  Li    c      5.8810 *     8.5275 *     5.1949 *  0.0000     2          
   313  Li    c     -7.8414 *     0.6861 *    -8.5275 *  0.0000     2          
   314  Li    c      7.8414 *     8.5275 *    -0.6861 *  0.0000     2          
   315  Cl    c      1.9603 *    10.4878 *    -4.6068 *  0.0000     2          
   316  Li    c      1.9603 *     4.6068 *   -10.4878 *  0.0000     2          
   317  O     c      3.9207 *    -3.2346 *   -10.4878 *  0.0000     2          
   318  O     c      7.8414 *     8.5275 *     1.2742 *  0.0000     2          
   319  Li    c      0.0000      10.4878 *     5.1949 *  0.0000     1          
   320  Li    c      0.0000      -5.1949 *   -10.4878 *  0.0000     1          
   321  Li    c      1.9603 *    -7.1552 *     9.1156 *  0.0000     2          
   322  Cl    c      1.9603 *    -9.1156 *     7.1552 *  0.0000     2          
   323  Li    c      3.9207 *     0.6861 *    11.0759 *  0.0000     2          
   324  Li    c      3.9207 *   -11.0759 *    -0.6861 *  0.0000     2          
   325  Cl    c      5.8810 *    -9.1156 *    -4.6068 *  0.0000     2          
   326  Li    c      5.8810 *     4.6068 *     9.1156 *  0.0000     2          
   327  Li    c      3.9207 *     8.5275 *     7.1552 *  0.0000     2          
   328  Li    c      3.9207 *    -7.1552 *    -8.5275 *  0.0000     2          
   329  Li    c     11.7620 *     0.6861 *    -0.6861 *  0.0000     2          
   330  O     c      3.9207 *   -11.0759 *     1.2742 *  0.0000     2          
   331  O     c      7.8414 *    -7.1552 *     5.1949 *  0.0000     2          
   332  Cl    c      9.8017 *     6.5671 *    -0.6861 *  0.0000     2          
   333  Li    c      9.8017 *     0.6861 *    -6.5671 *  0.0000     2          
   334  O     c     11.7620 *     0.6861 *     1.2742 *  0.0000     2          
   335  O     c      7.8414 *     8.5275 *    -2.6465 *  0.0000     2          
   336  Li    c      3.9207 *     6.5671 *     9.1156 *  0.0000     2          
   337  Li    c      3.9207 *    -9.1156 *    -6.5671 *  0.0000     2          
   338  Li    c     11.7620 *    -1.2742 *     1.2742 *  0.0000     2          
   339  Li    c      0.0000       4.6068 *    11.0759 *  0.0000     1          
   340  Li    c      0.0000     -11.0759 *    -4.6068 *  0.0000     1          
   341  Cl    c      9.8017 *    -5.1949 *    -4.6068 *  0.0000     2          
   342  Li    c      9.8017 *     4.6068 *     5.1949 *  0.0000     2          
   343  Li    c      7.8414 *     8.5275 *     3.2346 *  0.0000     2          
   344  Li    c      7.8414 *    -3.2346 *    -8.5275 *  0.0000     2          
   345  O     c      3.9207 *   -11.0759 *    -2.6465 *  0.0000     2          
   346  O     c     -7.8414 *     0.6861 *     9.1156 *  0.0000     2          
   347  Li    c      5.8810 *     0.6861 *   -10.4878 *  0.0000     2          
   348  Cl    c      5.8810 *    10.4878 *    -0.6861 *  0.0000     2          
   349  Li    c      0.0000       8.5275 *    -8.5275 *  0.0000     1          
   350  O     c     11.7620 *     0.6861 *    -2.6465 *  0.0000     2          
   351  Li    c      7.8414 *    -9.1156 *     1.2742 *  0.0000     2          
   352  Li    c     -7.8414 *    -1.2742 *     9.1156 *  0.0000     2          
   353  O     c      3.9207 *     4.6068 *   -10.4878 *  0.0000     2          
   354  Li    c     11.7620 *    -1.2742 *    -2.6465 *  0.0000     2          
   355  Li    c     11.7620 *     2.6465 *     1.2742 *  0.0000     2          
   356  Li    c     -7.8414 *     6.5671 *    -6.5671 *  0.0000     2          
   357  Li    c      3.9207 *   -11.0759 *     3.2346 *  0.0000     2          
   358  Li    c     -3.9207 *    -3.2346 *    11.0759 *  0.0000     2          
   359  Cl    c      9.8017 *    -1.2742 *     7.1552 *  0.0000     2          
   360  Li    c      9.8017 *    -7.1552 *     1.2742 *  0.0000     2          
   361  Li    c     11.7620 *     0.6861 *     3.2346 *  0.0000     2          
   362  Li    c     11.7620 *    -3.2346 *    -0.6861 *  0.0000     2          
   363  O     c      0.0000     -11.0759 *     5.1949 *  0.0000     1          
   364  O     c      3.9207 *    -7.1552 *     9.1156 *  0.0000     2          
   365  Cl    c      9.8017 *     6.5671 *     3.2346 *  0.0000     2          
   366  Li    c      9.8017 *    -3.2346 *    -6.5671 *  0.0000     2          
   367  O     c     11.7620 *    -3.2346 *     1.2742 *  0.0000     2          
   368  Cl    c      5.8810 *     6.5671 *    -8.5275 *  0.0000     2          
   369  Li    c      5.8810 *     8.5275 *    -6.5671 *  0.0000     2          
   370  Li    c      7.8414 *    -9.1156 *    -2.6465 *  0.0000     2          
   371  Li    c     -7.8414 *     2.6465 *     9.1156 *  0.0000     2          
   372  Li    c      3.9207 *    -5.1949 *   -10.4878 *  0.0000     2          
   373  Li    c     11.7620 *     2.6465 *    -2.6465 *  0.0000     2          
   374  Li    c      3.9207 *    10.4878 *     5.1949 *  0.0000     2          
   375  Li    c      0.0000       6.5671 *   -10.4878 *  0.0000     1          
   376  Li    c      0.0000      10.4878 *    -6.5671 *  0.0000     1          
   377  Cl    c      1.9603 *    -5.1949 *    11.0759 *  0.0000     2          
   378  Li    c      1.9603 *   -11.0759 *     5.1949 *  0.0000     2          
   379  Cl    c      9.8017 *     2.6465 *     7.1552 *  0.0000     2          
   380  Li    c      9.8017 *    -7.1552 *    -2.6465 *  0.0000     2          
   381  O     c      7.8414 *    -3.2346 *     9.1156 *  0.0000     2          
   382  Li    c      5.8810 *    -3.2346 *   -10.4878 *  0.0000     2          
   383  Cl    c      5.8810 *    10.4878 *     3.2346 *  0.0000     2          
   384  Li    c      0.0000       0.6861 *   -12.4481 *  0.0000     1          
   385  Li    c      0.0000      12.4481 *    -0.6861 *  0.0000     1          
   386  Li    c      7.8414 *     4.6068 *    -8.5275 *  0.0000     2          
   387  Li    c      7.8414 *     8.5275 *    -4.6068 *  0.0000     2          
   388  O     c      0.0000       8.5275 *     9.1156 *  0.0000     1          
   389  O     c     11.7620 *    -3.2346 *    -2.6465 *  0.0000     2          
   390  O     c     -7.8414 *    -7.1552 *    -6.5671 *  0.0000     2          
   391  O     c      0.0000      12.4481 *     1.2742 *  0.0000     1          
   392  Cl    c      5.8810 *    -1.2742 *    11.0759 *  0.0000     2          
   393  Li    c      5.8810 *   -11.0759 *     1.2742 *  0.0000     2          
   394  Li    c      3.9207 *   -11.0759 *    -4.6068 *  0.0000     2          
   395  Li    c      3.9207 *     4.6068 *    11.0759 *  0.0000     2          
   396  Li    c     11.7620 *    -3.2346 *     3.2346 *  0.0000     2          
   397  Cl    c      1.9603 *    -9.1156 *    -8.5275 *  0.0000     2          
   398  Li    c      1.9603 *     8.5275 *     9.1156 *  0.0000     2          
   399  Li    c     11.7620 *     0.6861 *    -4.6068 *  0.0000     2          
   400  Li    c     11.7620 *     4.6068 *    -0.6861 *  0.0000     2          
   401  Cl    c      1.9603 *    -1.2742 *   -12.4481 *  0.0000     2          
   402  Li    c      1.9603 *    12.4481 *     1.2742 *  0.0000     2          
   403  Cl    c      9.8017 *     6.5671 *    -4.6068 *  0.0000     2          
   404  Li    c      9.8017 *     4.6068 *    -6.5671 *  0.0000     2          
   405  Li    c      3.9207 *     8.5275 *    -8.5275 *  0.0000     2          
   406  O     c      0.0000      -7.1552 *   -10.4878 *  0.0000     1          
   407  O     c     11.7620 *     4.6068 *     1.2742 *  0.0000     2          
   408  O     c      7.8414 *     8.5275 *     5.1949 *  0.0000     2          
   409  O     c      0.0000      12.4481 *    -2.6465 *  0.0000     1          
   410  Li    c      7.8414 *    -7.1552 *     7.1552 *  0.0000     2          
   411  Cl    c      5.8810 *     2.6465 *    11.0759 *  0.0000     2          
   412  Li    c      5.8810 *   -11.0759 *    -2.6465 *  0.0000     2          
   413  O     c      3.9207 *   -11.0759 *     5.1949 *  0.0000     2          
   414  Cl    c      1.9603 *    10.4878 *     7.1552 *  0.0000     2          
   415  Li    c      1.9603 *    -7.1552 *   -10.4878 *  0.0000     2          
   416  Li    c      0.0000      12.4481 *     3.2346 *  0.0000     1          
   417  Li    c      0.0000      -3.2346 *   -12.4481 *  0.0000     1          
   418  Cl    c      1.9603 *     2.6465 *   -12.4481 *  0.0000     2          
   419  O     c      0.0000     -11.0759 *    -6.5671 *  0.0000     1          
   420  O     c      7.8414 *     4.6068 *     9.1156 *  0.0000     2          
   421  Li    c      1.9603 *    12.4481 *    -2.6465 *  0.0000     2          
   422  Cl    c      5.8810 *    10.4878 *    -4.6068 *  0.0000     2          
   423  O     c     11.7620 *     0.6861 *     5.1949 *  0.0000     2          
   424  Li    c      5.8810 *     4.6068 *   -10.4878 *  0.0000     2          
   425  Li    c      0.0000      -9.1156 *     9.1156 *  0.0000     1          
   426  O     c     11.7620 *     4.6068 *    -2.6465 *  0.0000     2          
   427  Li    c     11.7620 *    -1.2742 *     5.1949 *  0.0000     2          
   428  Li    c     11.7620 *    -5.1949 *     1.2742 *  0.0000     2          
   429  Li    c     -3.9207 *     6.5671 *   -10.4878 *  0.0000     2          
   430  Li    c      3.9207 *    10.4878 *    -6.5671 *  0.0000     2          
   431  Cl    c      5.8810 *    -9.1156 *     7.1552 *  0.0000     2          
   432  Li    c      5.8810 *    -7.1552 *     9.1156 *  0.0000     2          
   433  Cl    c      1.9603 *     6.5671 *    11.0759 *  0.0000     2          
   434  Li    c      1.9603 *   -11.0759 *    -6.5671 *  0.0000     2          
   435  Li    c     11.7620 *     4.6068 *     3.2346 *  0.0000     2          
   436  Li    c     11.7620 *    -3.2346 *    -4.6068 *  0.0000     2          
   437  O     c      0.0000       0.6861 *    13.0362 *  0.0000     1          
   438  Cl    c      9.8017 *    -1.2742 *    -8.5275 *  0.0000     2          
   439  Li    c      9.8017 *     8.5275 *     1.2742 *  0.0000     2          
   440  Li    c      3.9207 *     0.6861 *   -12.4481 *  0.0000     2          
   441  Li    c      3.9207 *    12.4481 *    -0.6861 *  0.0000     2          
   442  O     c      3.9207 *     8.5275 *     9.1156 *  0.0000     2          
   443  Li    c      0.0000      -1.2742 *    13.0362 *  0.0000     1          
   444  Li    c      0.0000     -13.0362 *     1.2742 *  0.0000     1          
   445  Li    c      7.8414 *    -5.1949 *     9.1156 *  0.0000     2          
   446  Li    c      7.8414 *    -9.1156 *     5.1949 *  0.0000     2          
   447  O     c      3.9207 *    12.4481 *     1.2742 *  0.0000     2          
   448  O     c      7.8414 *     0.6861 *   -10.4878 *  0.0000     2          
   449  Li    c     11.7620 *     2.6465 *     5.1949 *  0.0000     2          
   450  Li    c     11.7620 *    -5.1949 *    -2.6465 *  0.0000     2          
   451  Li    c      7.8414 *    -1.2742 *   -10.4878 *  0.0000     2          
   452  Li    c      7.8414 *    10.4878 *     1.2742 *  0.0000     2          
   453  Li    c      0.0000      -7.1552 *    11.0759 *  0.0000     1          
   454  Li    c      0.0000     -11.0759 *     7.1552 *  0.0000     1          
   455  Cl    c      1.9603 *   -13.0362 *    -0.6861 *  0.0000     2          
   456  Li    c      1.9603 *     0.6861 *    13.0362 *  0.0000     2          
   457  Cl    c      9.8017 *    -5.1949 *     7.1552 *  0.0000     2          
   458  Li    c      9.8017 *    -7.1552 *     5.1949 *  0.0000     2          
   459  Cl    c      9.8017 *     2.6465 *    -8.5275 *  0.0000     2          
   460  O     c     11.7620 *    -3.2346 *     5.1949 *  0.0000     2          
   461  Li    c      9.8017 *     8.5275 *    -2.6465 *  0.0000     2          
   462  Li    c      0.0000       4.6068 *   -12.4481 *  0.0000     1          
   463  Li    c      0.0000      12.4481 *    -4.6068 *  0.0000     1          
   464  O     c      3.9207 *    -7.1552 *   -10.4878 *  0.0000     2          
   465  Li    c      0.0000       2.6465 *    13.0362 *  0.0000     1          
   466  Li    c      0.0000     -13.0362 *    -2.6465 *  0.0000     1          
   467  O     c      3.9207 *    12.4481 *    -2.6465 *  0.0000     2          
   468  O     c      7.8414 *     8.5275 *    -6.5671 *  0.0000     2          
   469  Li    c      7.8414 *     2.6465 *   -10.4878 *  0.0000     2          
   470  Li    c      7.8414 *    10.4878 *    -2.6465 *  0.0000     2          
   471  Cl    c      9.8017 *    -9.1156 *    -0.6861 *  0.0000     2          
   472  Li    c      9.8017 *     0.6861 *     9.1156 *  0.0000     2          
   473  O     c      0.0000      -3.2346 *    13.0362 *  0.0000     1          
   474  Li    c      3.9207 *    12.4481 *     3.2346 *  0.0000     2          
   475  Li    c      3.9207 *    -3.2346 *   -12.4481 *  0.0000     2          
   476  Li    c     11.7620 *     4.6068 *    -4.6068 *  0.0000     2          
   477  O     c      3.9207 *   -11.0759 *    -6.5671 *  0.0000     2          
   478  Li    c      3.9207 *    -9.1156 *     9.1156 *  0.0000     2          
   479  O     c      0.0000      12.4481 *     5.1949 *  0.0000     1          
   480  O     c     11.7620 *     0.6861 *    -6.5671 *  0.0000     2          
   481  O     c     -7.8414 *    -3.2346 *   -10.4878 *  0.0000     2          
   482  O     c      0.0000       8.5275 *   -10.4878 *  0.0000     1          
   483  Li    c     11.7620 *    -1.2742 *    -6.5671 *  0.0000     2          
   484  Li    c     11.7620 *     6.5671 *     1.2742 *  0.0000     2          
   485  Cl    c      1.9603 *   -13.0362 *     3.2346 *  0.0000     2          
   486  Cl    c      5.8810 *    -5.1949 *    11.0759 *  0.0000     2          
   487  Li    c      1.9603 *    -3.2346 *    13.0362 *  0.0000     2          
   488  Li    c      5.8810 *   -11.0759 *     5.1949 *  0.0000     2          
   489  Li    c      7.8414 *     0.6861 *    11.0759 *  0.0000     2          
   490  Li    c     -7.8414 *   -11.0759 *    -0.6861 *  0.0000     2          
   491  Li    c      7.8414 *     8.5275 *     7.1552 *  0.0000     2          
   492  Li    c      7.8414 *    -7.1552 *    -8.5275 *  0.0000     2          
   493  O     c      3.9207 *     0.6861 *    13.0362 *  0.0000     2          
   494  O     c     -7.8414 *   -11.0759 *     1.2742 *  0.0000     2          
   495  Cl    c      1.9603 *    -5.1949 *   -12.4481 *  0.0000     2          
   496  Li    c      1.9603 *    12.4481 *     5.1949 *  0.0000     2          
   497  Cl    c      1.9603 *    10.4878 *    -8.5275 *  0.0000     2          
   498  O     c     11.7620 *     4.6068 *     5.1949 *  0.0000     2          
   499  Li    c      1.9603 *     8.5275 *   -10.4878 *  0.0000     2          
   500  Li    c      3.9207 *    -1.2742 *    13.0362 *  0.0000     2          
   501  Li    c      3.9207 *   -13.0362 *     1.2742 *  0.0000     2          
   502  Li    c      7.8414 *     6.5671 *     9.1156 *  0.0000     2          
   503  Li    c      7.8414 *    -9.1156 *    -6.5671 *  0.0000     2          
   504  Li    c     11.7620 *     2.6465 *    -6.5671 *  0.0000     2          
   505  Li    c     11.7620 *     6.5671 *    -2.6465 *  0.0000     2          
   506  Li    c      3.9207 *    -7.1552 *    11.0759 *  0.0000     2          
   507  Li    c      3.9207 *   -11.0759 *     7.1552 *  0.0000     2          
   508  Cl    c      9.8017 *    -9.1156 *     3.2346 *  0.0000     2          
   509  Li    c      9.8017 *    -3.2346 *     9.1156 *  0.0000     2          
   510  Li    c     11.7620 *     0.6861 *     7.1552 *  0.0000     2          
   511  Li    c     11.7620 *    -7.1552 *    -0.6861 *  0.0000     2          
   512  Cl    c      5.8810 *    -9.1156 *    -8.5275 *  0.0000     2          
   513  Li    c      5.8810 *     8.5275 *     9.1156 *  0.0000     2          
   514  Cl    c      9.8017 *     6.5671 *     7.1552 *  0.0000     2          
   515  Cl    c     13.7224 *    -1.2742 *    -0.6861 *  0.0000     2          
   516  Li    c      9.8017 *    -7.1552 *    -6.5671 *  0.0000     2          
   517  Li    c     13.7224 *     0.6861 *     1.2742 *  0.0000     2          
   518  O     c      0.0000       4.6068 *    13.0362 *  0.0000     1          
   519  O     c     -7.8414 *   -11.0759 *    -2.6465 *  0.0000     2          
   520  Cl    c      5.8810 *    -1.2742 *   -12.4481 *  0.0000     2          
   521  O     c     11.7620 *    -7.1552 *     1.2742 *  0.0000     2          
   522  Li    c      5.8810 *    12.4481 *     1.2742 *  0.0000     2          
   523  Li    c      3.9207 *    12.4481 *    -4.6068 *  0.0000     2          
   524  Li    c     -3.9207 *     4.6068 *   -12.4481 *  0.0000     2          
   525  O     c     11.7620 *    -3.2346 *    -6.5671 *  0.0000     2          
   526  Li    c      3.9207 *     2.6465 *    13.0362 *  0.0000     2          
   527  Li    c      3.9207 *   -13.0362 *    -2.6465 *  0.0000     2          
   528  Li    c     11.7620 *    -5.1949 *     5.1949 *  0.0000     2          
   529  O     c     -7.8414 *     4.6068 *   -10.4878 *  0.0000     2          
   530  Li    c      0.0000      10.4878 *     9.1156 *  0.0000     1          
   531  Li    c      0.0000      -9.1156 *   -10.4878 *  0.0000     1          
   532  Li    c     -7.8414 *   -11.0759 *     3.2346 *  0.0000     2          
   533  Li    c      7.8414 *    -3.2346 *    11.0759 *  0.0000     2          
   534  Cl    c      1.9603 *   -13.0362 *    -4.6068 *  0.0000     2          
   535  Li    c      1.9603 *     4.6068 *    13.0362 *  0.0000     2          
   536  Li    c      0.0000       8.5275 *    11.0759 *  0.0000     1          
   537  Li    c      0.0000     -11.0759 *    -8.5275 *  0.0000     1          
   538  O     c     -3.9207 *    -3.2346 *    13.0362 *  0.0000     2          
   539  O     c      7.8414 *    -7.1552 *     9.1156 *  0.0000     2          
   540  Li    c      5.8810 *    -7.1552 *   -10.4878 *  0.0000     2          
   541  Cl    c      5.8810 *    10.4878 *     7.1552 *  0.0000     2          
   542  Cl    c      9.8017 *    -5.1949 *    -8.5275 *  0.0000     2          
   543  Cl    c     13.7224 *     2.6465 *    -0.6861 *  0.0000     2          
   544  Li    c      9.8017 *     8.5275 *     5.1949 *  0.0000     2          
   545  Li    c     13.7224 *     0.6861 *    -2.6465 *  0.0000     2          
   546  Cl    c      5.8810 *     2.6465 *   -12.4481 *  0.0000     2          
   547  O     c     11.7620 *    -7.1552 *    -2.6465 *  0.0000     2          
   548  Li    c      5.8810 *    12.4481 *    -2.6465 *  0.0000     2          
   549  Li    c      0.0000      -5.1949 *    13.0362 *  0.0000     1          
   550  Li    c      0.0000     -13.0362 *     5.1949 *  0.0000     1          
   551  O     c      3.9207 *    12.4481 *     5.1949 *  0.0000     2          
   552  O     c      0.0000      12.4481 *    -6.5671 *  0.0000     1          
   553  O     c      3.9207 *     8.5275 *   -10.4878 *  0.0000     2          
   554  Li    c     -7.8414 *    -5.1949 *   -10.4878 *  0.0000     2          
   555  Li    c      7.8414 *    10.4878 *     5.1949 *  0.0000     2          
   556  Li    c     11.7620 *    -3.2346 *     7.1552 *  0.0000     2          
   557  Li    c     11.7620 *    -7.1552 *     3.2346 *  0.0000     2          
   558  Cl    c      5.8810 *     6.5671 *    11.0759 *  0.0000     2          
   559  Cl    c      9.8017 *    -9.1156 *    -4.6068 *  0.0000     2          
   560  Li    c      5.8810 *   -11.0759 *    -6.5671 *  0.0000     2          
   561  Cl    c     13.7224 *    -1.2742 *     3.2346 *  0.0000     2          
   562  Li    c      9.8017 *     4.6068 *     9.1156 *  0.0000     2          
   563  Li    c     13.7224 *    -3.2346 *     1.2742 *  0.0000     2          
   564  Cl    c      1.9603 *     6.5671 *   -12.4481 *  0.0000     2          
   565  Li    c      1.9603 *    12.4481 *    -6.5671 *  0.0000     2          
   566  O     c     11.7620 *     4.6068 *    -6.5671 *  0.0000     2          
   567  Cl    c      5.8810 *   -13.0362 *    -0.6861 *  0.0000     2          
   568  Li    c      5.8810 *     0.6861 *    13.0362 *  0.0000     2          
   569  Li    c     -7.8414 *   -11.0759 *    -4.6068 *  0.0000     2          
   570  Li    c      7.8414 *     4.6068 *    11.0759 *  0.0000     2          
   571  O     c      0.0000     -11.0759 *     9.1156 *  0.0000     1          
   572  Cl    c     13.7224 *     2.6465 *     3.2346 *  0.0000     2          
   573  Li    c     13.7224 *    -3.2346 *    -2.6465 *  0.0000     2          
   574  Li    c      0.0000      12.4481 *     7.1552 *  0.0000     1          
   575  Li    c      0.0000      -7.1552 *   -12.4481 *  0.0000     1          
   576  O     c      3.9207 *     4.6068 *    13.0362 *  0.0000     2          
   577  Cl    c      9.8017 *    10.4878 *    -0.6861 *  0.0000     2          
   578  Li    c      9.8017 *     0.6861 *   -10.4878 *  0.0000     2          
   579  Li    c      7.8414 *     8.5275 *    -8.5275 *  0.0000     2          
   580  O     c      0.0000       0.6861 *   -14.4085 *  0.0000     1          
   581  Li    c      3.9207 *    10.4878 *     9.1156 *  0.0000     2          
   582  Li    c      3.9207 *    -9.1156 *   -10.4878 *  0.0000     2          
   583  Li    c     11.7620 *     6.5671 *     5.1949 *  0.0000     2          
   584  Li    c     11.7620 *    -5.1949 *    -6.5671 *  0.0000     2          
   585  Li    c      0.0000      -1.2742 *   -14.4085 *  0.0000     1          
   586  Li    c      0.0000      14.4085 *     1.2742 *  0.0000     1          
   587  Cl    c      1.9603 *    -9.1156 *    11.0759 *  0.0000     2          
   588  Li    c      1.9603 *   -11.0759 *     9.1156 *  0.0000     2          
   589  Li    c      3.9207 *     8.5275 *    11.0759 *  0.0000     2          
   590  Li    c      3.9207 *   -11.0759 *    -8.5275 *  0.0000     2          
   591  Li    c     11.7620 *     4.6068 *     7.1552 *  0.0000     2          
   592  Li    c     11.7620 *    -7.1552 *    -4.6068 *  0.0000     2          
   593  O     c     -7.8414 *   -11.0759 *     5.1949 *  0.0000     2          
   594  Cl    c     13.7224 *    -1.2742 *    -4.6068 *  0.0000     2          
   595  Li    c     13.7224 *     4.6068 *     1.2742 *  0.0000     2          
   596  Li    c     11.7620 *     0.6861 *    -8.5275 *  0.0000     2          
   597  Li    c     11.7620 *     8.5275 *    -0.6861 *  0.0000     2          
   598  Cl    c      1.9603 *    14.4085 *    -0.6861 *  0.0000     2          
   599  Li    c      1.9603 *     0.6861 *   -14.4085 *  0.0000     2          
   600  Li    c      9.8017 *     8.5275 *    -6.5671 *  0.0000     2          
   601  Cl    c      9.8017 *     6.5671 *    -8.5275 *  0.0000     2          
   602  Li    c      3.9207 *    -5.1949 *    13.0362 *  0.0000     2          
   603  Li    c      3.9207 *   -13.0362 *     5.1949 *  0.0000     2          
   604  O     c     11.7620 *     8.5275 *     1.2742 *  0.0000     2          
   605  Li    c      0.0000       6.5671 *    13.0362 *  0.0000     1          
   606  Li    c      0.0000     -13.0362 *    -6.5671 *  0.0000     1          
   607  O     c      3.9207 *    12.4481 *    -6.5671 *  0.0000     2          
   608  Li    c      0.0000       2.6465 *   -14.4085 *  0.0000     1          
   609  Li    c      0.0000      14.4085 *    -2.6465 *  0.0000     1          
   610  Li    c     -7.8414 *     6.5671 *   -10.4878 *  0.0000     2          
   611  Li    c      7.8414 *    10.4878 *    -6.5671 *  0.0000     2          
   612  Cl    c      5.8810 *   -13.0362 *     3.2346 *  0.0000     2          
   613  Li    c      5.8810 *    -3.2346 *    13.0362 *  0.0000     2          
   614  Cl    c     13.7224 *    -5.1949 *    -0.6861 *  0.0000     2          
   615  Li    c     13.7224 *     0.6861 *     5.1949 *  0.0000     2          
   616  Cl    c      5.8810 *    -5.1949 *   -12.4481 *  0.0000     2          
   617  Cl    c     13.7224 *     2.6465 *    -4.6068 *  0.0000     2          
   618  O     c     11.7620 *    -7.1552 *     5.1949 *  0.0000     2          
   619  Li    c      5.8810 *    12.4481 *     5.1949 *  0.0000     2          
   620  Li    c      9.8017 *    -3.2346 *   -10.4878 *  0.0000     2          
   621  Li    c     13.7224 *     4.6068 *    -2.6465 *  0.0000     2          
   622  Cl    c      9.8017 *    10.4878 *     3.2346 *  0.0000     2          
   623  Li    c     -7.8414 *     0.6861 *   -12.4481 *  0.0000     2          
   624  Li    c     -7.8414 *    12.4481 *    -0.6861 *  0.0000     2          
   625  O     c      7.8414 *     8.5275 *     9.1156 *  0.0000     2          
   626  Li    c      5.8810 *     8.5275 *   -10.4878 *  0.0000     2          
   627  Cl    c      5.8810 *    10.4878 *    -8.5275 *  0.0000     2          
   628  O     c      0.0000      -3.2346 *   -14.4085 *  0.0000     1          
   629  O     c     -7.8414 *    12.4481 *     1.2742 *  0.0000     2          
   630  O     c     11.7620 *     8.5275 *    -2.6465 *  0.0000     2          
   631  Li    c      0.0000      10.4878 *   -10.4878 *  0.0000     1          
   632  Cl    c      9.8017 *    -1.2742 *    11.0759 *  0.0000     2          
   633  Li    c      9.8017 *   -11.0759 *     1.2742 *  0.0000     2          
   634  O     c      0.0000      -7.1552 *    13.0362 *  0.0000     1          
   635  O     c      3.9207 *   -11.0759 *     9.1156 *  0.0000     2          
   636  Li    c      3.9207 *    12.4481 *     7.1552 *  0.0000     2          
   637  Li    c      3.9207 *    -7.1552 *   -12.4481 *  0.0000     2          
   638  Li    c     11.7620 *    -3.2346 *    -8.5275 *  0.0000     2          
   639  Li    c     11.7620 *     8.5275 *     3.2346 *  0.0000     2          
   640  Cl    c      1.9603 *    14.4085 *     3.2346 *  0.0000     2          
   641  Li    c      1.9603 *    -3.2346 *   -14.4085 *  0.0000     2          
   642  O     c     11.7620 *     0.6861 *     9.1156 *  0.0000     2          
   643  O     c     -7.8414 *    -7.1552 *   -10.4878 *  0.0000     2          
   644  Li    c     11.7620 *    -1.2742 *     9.1156 *  0.0000     2          
   645  Li    c     11.7620 *    -9.1156 *     1.2742 *  0.0000     2          
   646  O     c      3.9207 *     0.6861 *   -14.4085 *  0.0000     2          
   647  O     c     -7.8414 *    12.4481 *    -2.6465 *  0.0000     2          
   648  Li    c      3.9207 *    14.4085 *     1.2742 *  0.0000     2          
   649  Li    c      3.9207 *    -1.2742 *   -14.4085 *  0.0000     2          
   650  Li    c     11.7620 *     6.5671 *    -6.5671 *  0.0000     2          
   651  Cl    c      1.9603 *   -13.0362 *     7.1552 *  0.0000     2          
   652  Li    c      1.9603 *    -7.1552 *    13.0362 *  0.0000     2          
   653  Li    c      0.0000       0.6861 *    14.9966 *  0.0000     1          
   654  Li    c      0.0000     -14.9966 *    -0.6861 *  0.0000     1          
   655  Cl    c      5.8810 *   -13.0362 *    -4.6068 *  0.0000     2          
   656  Li    c      5.8810 *     4.6068 *    13.0362 *  0.0000     2          
   657  Cl    c      9.8017 *     2.6465 *    11.0759 *  0.0000     2          
   658  Li    c      9.8017 *   -11.0759 *    -2.6465 *  0.0000     2          
   659  Cl    c     13.7224 *    -5.1949 *     3.2346 *  0.0000     2          
   660  Li    c     13.7224 *    -3.2346 *     5.1949 *  0.0000     2          
   661  O     c      0.0000     -14.9966 *     1.2742 *  0.0000     1          
   662  Li    c     -7.8414 *    12.4481 *     3.2346 *  0.0000     2          
   663  Li    c     -7.8414 *    -3.2346 *   -12.4481 *  0.0000     2          
   664  O     c     -7.8414 *   -11.0759 *    -6.5671 *  0.0000     2          
   665  Li    c      9.8017 *     4.6068 *   -10.4878 *  0.0000     2          
   666  Cl    c      9.8017 *    10.4878 *    -4.6068 *  0.0000     2          
   667  Li    c      7.8414 *    -9.1156 *     9.1156 *  0.0000     2          
   668  Li    c      0.0000       8.5275 *   -12.4481 *  0.0000     1          
   669  Li    c      0.0000      12.4481 *    -8.5275 *  0.0000     1          
   670  Li    c      3.9207 *     6.5671 *    13.0362 *  0.0000     2          
   671  Li    c      3.9207 *   -13.0362 *    -6.5671 *  0.0000     2          
   672  Li    c     11.7620 *     2.6465 *     9.1156 *  0.0000     2          
   673  Li    c     11.7620 *    -9.1156 *    -2.6465 *  0.0000     2          
   674  O     c      0.0000       4.6068 *   -14.4085 *  0.0000     1          
   675  Li    c      3.9207 *    14.4085 *    -2.6465 *  0.0000     2          
   676  Li    c      3.9207 *     2.6465 *   -14.4085 *  0.0000     2          
   677  Cl    c      1.9603 *    -1.2742 *    14.9966 *  0.0000     2          
   678  Li    c      1.9603 *   -14.9966 *     1.2742 *  0.0000     2          
   679  Cl    c      9.8017 *    -9.1156 *     7.1552 *  0.0000     2          
   680  Li    c      9.8017 *    -7.1552 *     9.1156 *  0.0000     2          
   681  O     c      0.0000     -14.9966 *    -2.6465 *  0.0000     1          
   682  O     c      7.8414 *     0.6861 *    13.0362 *  0.0000     2          
   683  O     c     11.7620 *    -3.2346 *     9.1156 *  0.0000     2          
   684  Cl    c     13.7224 *     6.5671 *    -0.6861 *  0.0000     2          
   685  Li    c     13.7224 *     0.6861 *    -6.5671 *  0.0000     2          
   686  Li    c     11.7620 *     4.6068 *    -8.5275 *  0.0000     2          
   687  Li    c     11.7620 *     8.5275 *    -4.6068 *  0.0000     2          
   688  Cl    c      1.9603 *    14.4085 *    -4.6068 *  0.0000     2          
   689  Cl    c      5.8810 *     6.5671 *   -12.4481 *  0.0000     2          
   690  O     c      0.0000     -11.0759 *   -10.4878 *  0.0000     1          
   691  O     c     11.7620 *    -7.1552 *    -6.5671 *  0.0000     2          
   692  Li    c      1.9603 *     4.6068 *   -14.4085 *  0.0000     2          
   693  Li    c      5.8810 *    12.4481 *    -6.5671 *  0.0000     2          
   694  Li    c     -7.8414 *    -1.2742 *    13.0362 *  0.0000     2          
   695  Li    c     -7.8414 *   -13.0362 *     1.2742 *  0.0000     2          
   696  O     c      3.9207 *    -3.2346 *   -14.4085 *  0.0000     2          
   697  Li    c      0.0000      14.4085 *     5.1949 *  0.0000     1          
   698  Li    c      0.0000      -5.1949 *   -14.4085 *  0.0000     1          
   699  Li    c      0.0000      -3.2346 *    14.9966 *  0.0000     1          
[...]
   2027 y         -1.960338     -1.960404    -0.000066    Cartesian    0.00
   2027 z        -17.643040    -17.643674    -0.000634    Cartesian    0.00
   2028 x        -13.722364    -13.722441    -0.000077    Cartesian    0.00
   2028 y          9.801689      9.801360    -0.000328    Cartesian   -0.00
   2028 z         -5.881013     -5.881037    -0.000024    Cartesian    0.00
   2029 x          1.960338      1.960338     0.000000    Cartesian    0.00
   2029 y         13.722364     13.723114     0.000749    Cartesian    0.01
   2029 z        -13.722364    -13.723481    -0.001117    Cartesian    0.01
   2030 x          3.920675      3.921131     0.000455    Cartesian    0.01
   2030 y          0.000000      0.000104     0.000104    Cartesian    0.00
   2030 z         19.603377     19.607725     0.004348    Cartesian    0.02
   2031 x          3.920675      3.921107     0.000431    Cartesian    0.01
   2031 y        -15.682702    -15.686834    -0.004132    Cartesian    0.03
   2031 z         -7.841351     -7.843749    -0.002398    Cartesian    0.03
   2032 x         11.762026     11.764939     0.002913    Cartesian    0.02
   2032 y          7.841351      7.843487     0.002136    Cartesian    0.03
   2032 z         15.682702     15.686720     0.004018    Cartesian    0.03
   2033 x         19.603377     19.607752     0.004375    Cartesian    0.02
   2033 y          0.000000      0.000150     0.000150    Cartesian    0.00
   2033 z          7.841351      7.842788     0.001437    Cartesian    0.02
   2034 x         13.722364     13.723527     0.001163    Cartesian    0.01
   2034 y        -13.722364    -13.723810    -0.001446    Cartesian    0.01
   2034 z          1.960338      1.960556     0.000219    Cartesian    0.01
   2035 x          7.841351      7.842974     0.001623    Cartesian    0.02
   2035 y         15.682702     15.686691     0.003989    Cartesian    0.03
   2035 z         11.762026     11.765201     0.003174    Cartesian    0.03
   2036 x          1.960338      1.960338     0.000000    Cartesian    0.00
   2036 y        -17.643040    -17.644152    -0.001112    Cartesian    0.01
   2036 z         -1.960338     -1.960420    -0.000082    Cartesian    0.00
   2037 x         19.603377     19.607793     0.004416    Cartesian    0.02
   2037 y          7.841351      7.842927     0.001576    Cartesian    0.02
   2037 z          3.920675      3.921197     0.000522    Cartesian    0.01
   2038 x         11.762026     11.763798     0.001771    Cartesian    0.02
   2038 y          0.000000      0.000122     0.000122    Cartesian    0.00
   2038 z        -15.682702    -15.686431    -0.003729    Cartesian    0.02
   2039 x          5.881013      5.881293     0.000279    Cartesian    0.00
   2039 y         17.643040     17.644892     0.001852    Cartesian    0.01
   2039 z          9.801689      9.802767     0.001079    Cartesian    0.01
   2040 x          3.920675      3.921225     0.000549    Cartesian    0.01
   2040 y         15.682702     15.685724     0.003022    Cartesian    0.02
   2040 z        -11.762026    -11.763931    -0.001904    Cartesian    0.02
   2041 x        -13.722364    -13.723335    -0.000971    Cartesian    0.01
   2041 y         -1.960338     -1.960238     0.000099    Cartesian   -0.01
   2041 z         -9.801689     -9.802290    -0.000601    Cartesian    0.01
   2042 x         13.722364     13.723231     0.000866    Cartesian    0.01
   2042 y          5.881013      5.881169     0.000155    Cartesian    0.00
   2042 z        -13.722364    -13.723161    -0.000797    Cartesian    0.01
   2043 x          3.920675      3.921237     0.000561    Cartesian    0.01
   2043 y          3.920675      3.921623     0.000948    Cartesian    0.02
   2043 z         19.603377     19.607989     0.004611    Cartesian    0.02
   2044 x         15.682702     15.686165     0.003463    Cartesian    0.02
   2044 y        -11.762026    -11.764364    -0.002338    Cartesian    0.02
   2044 z          3.920675      3.921659     0.000983    Cartesian    0.03
   2045 x          9.801689      9.803380     0.001691    Cartesian    0.02
   2045 y        -13.722364    -13.724429    -0.002064    Cartesian    0.02
   2045 z          9.801689      9.803236     0.001548    Cartesian    0.02
   2046 x          7.841351      7.842948     0.001597    Cartesian    0.02
   2046 y         11.762026     11.765310     0.003283    Cartesian    0.03
   2046 z         15.682702     15.686569     0.003867    Cartesian    0.02
   2047 x         19.603377     19.608039     0.004662    Cartesian    0.02
   2047 y          3.920675      3.921467     0.000791    Cartesian    0.02
   2047 z          7.841351      7.842876     0.001525    Cartesian    0.02
   2048 x         13.722364     13.723724     0.001360    Cartesian    0.01
   2048 y        -13.722364    -13.723537    -0.001173    Cartesian    0.01
   2048 z         -1.960338     -1.960394    -0.000056    Cartesian    0.00
   2049 x         -5.881013     -5.881988    -0.000975    Cartesian    0.02
   2049 y          5.881013      5.881413     0.000400    Cartesian    0.01
   2049 z         17.643040     17.644792     0.001753    Cartesian    0.01
   2050 x        -13.722364    -13.723846    -0.001481    Cartesian    0.01
   2050 y         -9.801689     -9.802505    -0.000816    Cartesian    0.01
   2050 z          1.960338      1.960365     0.000027    Cartesian    0.00
   2051 x         15.682702     15.685556     0.002854    Cartesian    0.02
   2051 y         -3.920675     -3.921613    -0.000938    Cartesian    0.02
   2051 z        -11.762026    -11.764807    -0.002780    Cartesian    0.02
   2052 x          7.841351      7.842747     0.001396    Cartesian    0.02
   2052 y         19.603377     19.608048     0.004670    Cartesian    0.02
   2052 z          0.000000     -0.000071    -0.000071    Cartesian    0.00
   2053 x         11.762026     11.764157     0.002131    Cartesian    0.02
   2053 y          3.920675      3.921468     0.000793    Cartesian    0.02
   2053 z        -15.682702    -15.686742    -0.004040    Cartesian    0.03
   2054 x         13.722364     13.724254     0.001890    Cartesian    0.01
   2054 y         -9.801689     -9.803115    -0.001426    Cartesian    0.01
   2054 z         -9.801689     -9.803229    -0.001540    Cartesian    0.02
   2055 x         15.682702     15.685269     0.002567    Cartesian    0.02
   2055 y         11.762026     11.763720     0.001694    Cartesian    0.01
   2055 z         -7.841351     -7.842643    -0.001292    Cartesian    0.02
   2056 x          9.801689      9.802667     0.000979    Cartesian    0.01
   2056 y         17.643040     17.644931     0.001891    Cartesian    0.01
   2056 z         -5.881013     -5.881938    -0.000925    Cartesian    0.02
   2057 x          5.881013      5.880956    -0.000058    Cartesian   -0.00
   2057 y          5.881013      5.880947    -0.000066    Cartesian   -0.00
   2057 z        -17.643040    -17.643558    -0.000518    Cartesian    0.00
   2058 x          7.841351      7.843300     0.001949    Cartesian    0.02
   2058 y        -15.682702    -15.687700    -0.004998    Cartesian    0.03
   2058 z          7.841351      7.843252     0.001901    Cartesian    0.02
   2059 x          5.881013      5.881130     0.000117    Cartesian    0.00
   2059 y        -17.643040    -17.644086    -0.001046    Cartesian    0.01
   2059 z          1.960338      1.960331    -0.000007    Cartesian   -0.00
   2060 x        -13.722364    -13.723633    -0.001268    Cartesian    0.01
   2060 y         -9.801689     -9.802296    -0.000608    Cartesian    0.01
   2060 z         -1.960338     -1.960259     0.000079    Cartesian   -0.00
   2061 x         19.603377     19.607544     0.004167    Cartesian    0.02
   2061 y          7.841351      7.842636     0.001285    Cartesian    0.02
   2061 z         -3.920675     -3.921505    -0.000829    Cartesian    0.02
   2062 x          5.881013      5.881365     0.000352    Cartesian    0.01
   2062 y          9.801689      9.802765     0.001076    Cartesian    0.01
   2062 z         17.643040     17.644993     0.001953    Cartesian    0.01
   2063 x         13.722364     13.724756     0.002392    Cartesian    0.02
   2063 y         13.722364     13.724833     0.002468    Cartesian    0.02
   2063 z          9.801689      9.803592     0.001904    Cartesian    0.02
   2064 x         11.762026     11.764124     0.002097    Cartesian    0.02
   2064 y         15.682702     15.686222     0.003520    Cartesian    0.02
   2064 z         -7.841351     -7.843138    -0.001787    Cartesian    0.02
   2065 x        -13.722364    -13.723379    -0.001015    Cartesian    0.01
   2065 y          5.881013      5.880988    -0.000025    Cartesian   -0.00
   2065 z         -9.801689     -9.802374    -0.000685    Cartesian    0.01
   2066 x          1.960338      1.960338     0.000000    Cartesian    0.00
   2066 y         17.643040     17.644639     0.001599    Cartesian    0.01
   2066 z         -9.801689     -9.802758    -0.001069    Cartesian    0.01
   2067 x          5.881013      5.881136     0.000123    Cartesian    0.00
   2067 y         13.722364     13.723443     0.001078    Cartesian    0.01
   2067 z        -13.722364    -13.723305    -0.000941    Cartesian    0.01
   2068 x         15.682702     15.686224     0.003522    Cartesian    0.02
   2068 y        -11.762026    -11.764686    -0.002660    Cartesian    0.02
   2068 z         -3.920675     -3.921883    -0.001207    Cartesian    0.03
   2069 x          5.881013      5.881149     0.000135    Cartesian    0.00
   2069 y        -17.643040    -17.643976    -0.000936    Cartesian    0.01
   2069 z         -1.960338     -1.960419    -0.000081    Cartesian    0.00
   2070 x        -13.722364    -13.724519    -0.002155    Cartesian    0.02
   2070 y         -5.881013     -5.882031    -0.001017    Cartesian    0.02
   2070 z          9.801689      9.802801     0.001113    Cartesian    0.01
   2071 x          7.841351      7.842886     0.001535    Cartesian    0.02
   2071 y         19.603377     19.608506     0.005128    Cartesian    0.03
   2071 z          3.920675      3.921513     0.000838    Cartesian    0.02
   2072 x         13.722364     13.724823     0.002459    Cartesian    0.02
   2072 y          9.801689      9.803670     0.001981    Cartesian    0.02
   2072 z         13.722364     13.724907     0.002543    Cartesian    0.02
   2073 x          3.920675      3.921263     0.000588    Cartesian    0.01
   2073 y         11.762026     11.764676     0.002650    Cartesian    0.02
   2073 z        -15.682702    -15.687153    -0.004451    Cartesian    0.03
   2074 x         11.762026     11.765123     0.003096    Cartesian    0.03
   2074 y        -15.682702    -15.687770    -0.005068    Cartesian    0.03
   2074 z          0.000000     -0.000518    -0.000518    Cartesian    0.00
   2075 x          1.960338      1.960338     0.000000    Cartesian    0.00
   2075 y        -17.643040    -17.644773    -0.001734    Cartesian    0.01
   2075 z          5.881013      5.881838     0.000825    Cartesian    0.01
   2076 x          7.841351      7.843061     0.001710    Cartesian    0.02
   2076 y         -7.841351     -7.843615    -0.002264    Cartesian    0.03
   2076 z        -15.682702    -15.687353    -0.004651    Cartesian    0.03
   2077 x         19.603377     19.608129     0.004751    Cartesian    0.02
   2077 y          0.000000     -0.000361    -0.000361    Cartesian    0.00
   2077 z         -7.841351     -7.843191    -0.001840    Cartesian    0.02
   2078 x         -5.881013     -5.882776    -0.001763    Cartesian    0.03
   2078 y         13.722364     13.724859     0.002495    Cartesian    0.02
   2078 z         13.722364     13.724881     0.002517    Cartesian    0.02
   2079 x         15.682702     15.685851     0.003149    Cartesian    0.02
   2079 y          7.841351      7.842784     0.001433    Cartesian    0.02
   2079 z        -11.762026    -11.764627    -0.002601    Cartesian    0.02
   2080 x         21.563715     21.564474     0.000759    Cartesian    0.00
   2080 y          1.960338      1.960208    -0.000130    Cartesian   -0.01
   2080 z          1.960338      1.960247    -0.000091    Cartesian   -0.00
   2081 x          1.960338      1.960338     0.000000    Cartesian    0.00
   2081 y         -5.881013     -5.881809    -0.000796    Cartesian    0.01
   2081 z        -17.643040    -17.644483    -0.001443    Cartesian    0.01
   2082 x          3.920675      3.921385     0.000709    Cartesian    0.02
   2082 y         -3.920675     -3.921890    -0.001214    Cartesian    0.03
   2082 z         19.603377     19.609289     0.005912    Cartesian    0.03
   2083 x         11.762026     11.765614     0.003588    Cartesian    0.03
   2083 y        -11.762026    -11.766133    -0.004106    Cartesian    0.03
   2083 z         11.762026     11.765588     0.003562    Cartesian    0.03
   2084 x         19.603377     19.608820     0.005442    Cartesian    0.03
   2084 y         -3.920675     -3.921913    -0.001237    Cartesian    0.03
   2084 z          7.841351      7.843075     0.001724    Cartesian    0.02
   2085 x         13.722364     13.724451     0.002087    Cartesian    0.02
   2085 y        -13.722364    -13.724628    -0.002264    Cartesian    0.02
   2085 z          5.881013      5.882073     0.001060    Cartesian    0.02
   2086 x          3.920675      3.921377     0.000701    Cartesian    0.02
   2086 y         19.603377     19.609100     0.005722    Cartesian    0.03
   2086 z          7.841351      7.843400     0.002049    Cartesian    0.03
   2087 x         11.762026     11.764780     0.002754    Cartesian    0.02
   2087 y         -3.920675     -3.921984    -0.001309    Cartesian    0.03
   2087 z        -15.682702    -15.687359    -0.004657    Cartesian    0.03
   2088 x         19.603377     19.608189     0.004812    Cartesian    0.02
   2088 y          3.920675      3.921500     0.000824    Cartesian    0.02
   2088 z         -7.841351     -7.843242    -0.001891    Cartesian    0.02
   2089 x          7.841351      7.842983     0.001632    Cartesian    0.02
   2089 y         19.603377     19.608917     0.005539    Cartesian    0.03
   2089 z         -3.920675     -3.921971    -0.001295    Cartesian    0.03
   2090 x         -5.881013     -5.882634    -0.001620    Cartesian    0.03
   2090 y         -9.801689     -9.803328    -0.001640    Cartesian    0.02
   2090 z        -13.722364    -13.724487    -0.002123    Cartesian    0.02
   2091 x         21.563715     21.565029     0.001314    Cartesian    0.01
   2091 y          1.960338      1.960313    -0.000024    Cartesian   -0.00
   2091 z         -1.960338     -1.960809    -0.000472    Cartesian    0.02
   2092 x          5.881013      5.881817     0.000804    Cartesian    0.01
   2092 y         17.643040     17.645298     0.002259    Cartesian    0.01
   2092 z         -9.801689     -9.802962    -0.001273    Cartesian    0.01
   2093 x          7.841351      7.843095     0.001744    Cartesian    0.02
   2093 y          0.000000     -0.000271    -0.000271    Cartesian    0.00
   2093 z         19.603377     19.609163     0.005786    Cartesian    0.03
   2094 x         11.762026     11.765320     0.003293    Cartesian    0.03
   2094 y        -15.682702    -15.688061    -0.005359    Cartesian    0.03
   2094 z          3.920675      3.921578     0.000903    Cartesian    0.02
   2095 x         15.682702     15.687296     0.004594    Cartesian    0.03
   2095 y         -7.841351     -7.843695    -0.002344    Cartesian    0.03
   2095 z         11.762026     11.764994     0.002967    Cartesian    0.03
   2096 x          1.960338      1.960338     0.000000    Cartesian    0.00
   2096 y        -13.722364    -13.723991    -0.001627    Cartesian    0.01
   2096 z         13.722364     13.723638     0.001273    Cartesian    0.01
   2097 x          7.841351      7.843231     0.001880    Cartesian    0.02
   2097 y        -15.682702    -15.687733    -0.005031    Cartesian    0.03
   2097 z         -7.841351     -7.844126    -0.002775    Cartesian    0.04
   2098 x         19.603377     19.608783     0.005405    Cartesian    0.03
   2098 y         -7.841351     -7.843282    -0.001931    Cartesian    0.02
   2098 z          0.000000     -0.000239    -0.000239    Cartesian    0.00
   2099 x        -13.722364    -13.724817    -0.002452    Cartesian    0.02
   2099 y         -9.801689     -9.803336    -0.001647    Cartesian    0.02
   2099 z          5.881013      5.882122     0.001108    Cartesian    0.02
   2100 x          9.801689      9.803346     0.001657    Cartesian    0.02
   2100 y        -13.722364    -13.724531    -0.002167    Cartesian    0.02
   2100 z         -9.801689     -9.803540    -0.001852    Cartesian    0.02
   2101 x         15.682702     15.687708     0.005006    Cartesian    0.03
   2101 y         15.682702     15.687930     0.005228    Cartesian    0.03
   2101 z          0.000000     -0.000162    -0.000162    Cartesian    0.00
   2102 x         21.563715     21.566044     0.002328    Cartesian    0.01
   2102 y         -1.960338     -1.960935    -0.000597    Cartesian    0.03
   2102 z          1.960338      1.960941     0.000603    Cartesian    0.03
   2103 x          7.841351      7.842873     0.001522    Cartesian    0.02
   2103 y         15.682702     15.686593     0.003891    Cartesian    0.02
   2103 z        -11.762026    -11.764972    -0.002946    Cartesian    0.03
   2104 x         13.722364     13.724328     0.001964    Cartesian    0.01
   2104 y         -5.881013     -5.882294    -0.001281    Cartesian    0.02
   2104 z        -13.722364    -13.724483    -0.002119    Cartesian    0.02
   2105 x         -5.881013     -5.882076    -0.001063    Cartesian    0.02
   2105 y          1.960338      1.960959     0.000621    Cartesian    0.03
   2105 z        -17.643040    -17.645299    -0.002259    Cartesian    0.01
   2106 x          3.920675      3.921485     0.000810    Cartesian    0.02
   2106 y        -11.762026    -11.765755    -0.003729    Cartesian    0.03
   2106 z         15.682702     15.687851     0.005149    Cartesian    0.03
   2107 x          7.841351      7.843166     0.001815    Cartesian    0.02
   2107 y          3.920675      3.921831     0.001156    Cartesian    0.03
   2107 z         19.603377     19.609277     0.005899    Cartesian    0.03
--------------------------------------------------------------------------------


  Time to end of optimisation  =      416.2622 seconds


  Peak dynamic memory used =    1748.64 MB 


  Timing analysis for GULP :

--------------------------------------------------------------------------------
  Task / Subroutine                                          Time (Seconds)
--------------------------------------------------------------------------------
  Calculation of reciprocal space energy and derivatives          0.0002
  Calculation of reciprocal space energy using symmetry           0.0003
  Calculation of real space energy and derivatives                0.0018
  Calculation of real space energy using symmetry                 0.0039
  Calculation for region 1 energy and derivatives (2-b)         179.0593
  Calculation for region 2a energy                               56.3590
  Calculation for region 2b energy                                0.0033
  Calculation and manipulation of Hessian matrix                  1.6026
  Calculation of matrix inversion                               176.7601
  Symmetry generation of equivalent positions                     0.0020
--------------------------------------------------------------------------------
  Total CPU time                                                416.2622
--------------------------------------------------------------------------------


  Dump file written as Li3OCl.grs


  Job Finished at 14:40.27 23rd October    2020                               

