********************************************************************************
*                       GENERAL UTILITY LATTICE PROGRAM                        *
*                                 Julian Gale                                  *
*                       Curtin Institute for Computation                       *
*                    School of Molecular and Life Sciences                     *
*                    Curtin University, Western Australia                      *
********************************************************************************
* Version = 5.2.0 * Last modified =  10th September 2020                       *
********************************************************************************
*  optimise     - perform optimisation run                                     *
*  conp         - constant pressure calculation                                *
*  property     - calculate properties for final geometry                      *
*  defect       - perform defect calculation after bulk run                    *
*  compare      - compare initial and final structures                         *
********************************************************************************

  Job Started  at 14:40.27 23rd October    2020                               

  Number of CPUs =     1


  Total number of configurations input =      1

********************************************************************************
*  Input for Configuration =   1                                               *
********************************************************************************

  Formula = ClOLi3                                                      

  Number of irreducible atoms/shells =       5


  Total number atoms/shells =       7

  Dimensionality = 3               :  Bulk   


  Symmetry :

  Crystal family                   :  Cubic       
  Crystal class  (Groth - 1921)    :  Cubic Hexakisoctahedral              

  Space group (centrosymmetric)    :  P M 3 M         

  Patterson group                  :  P m -3 m 

  Cartesian lattice vectors (Angstroms) :

        3.918873    0.000000    0.000000
        0.000000    3.918873    0.000000
        0.000000    0.000000    3.918873

  Cell parameters (Angstroms/Degrees):

  a =       3.9189    alpha =  90.0000
  b =       3.9189    beta  =  90.0000
  c =       3.9189    gamma =  90.0000

  Initial cell volume =          60.184349 Angs**3

  Temperature of configuration =   0.00     K 

  Pressure of configuration =         0.000 GPa 

  Fractional coordinates of asymmetric unit :

--------------------------------------------------------------------------------
   No.  Atomic       x           y          z         Charge      Occupancy
        Label      (Frac)      (Frac)     (Frac)        (e)         (Frac)  
--------------------------------------------------------------------------------
      1 Cl    c    0.000000    0.000000    0.000000     1.48500    1.000000    
      2 O     c    0.500000    0.500000    0.500000     0.18300    1.000000    
      3 Li    c    0.500000    0.500000    0.000000     1.00000    1.000000    
      4 Cl    s    0.000000    0.000000    0.000000    -2.48500    1.000000    
      5 O     s    0.500000    0.500000    0.500000    -2.18300    1.000000    
--------------------------------------------------------------------------------


  Constraints : 

--------------------------------------------------------------------------------
  Constraint no.      Unconstrained     Constrained    Coefficient    Offset
                         Variable         Variable
--------------------------------------------------------------------------------
           1              Strain 1        Strain 2       1.00000      0.0000
           2              Strain 1        Strain 3       1.00000      0.0000
--------------------------------------------------------------------------------


********************************************************************************
*  General input information                                                   *
********************************************************************************

  Species output for all configurations : 

--------------------------------------------------------------------------------
  Species    Type    Atomic    Atomic    Charge       Radii (Angs)     Library
                     Number     Mass       (e)     Cova   Ionic  VDW   Symbol
--------------------------------------------------------------------------------
    Li       Core        3       6.94   1.000000   0.680  0.000  1.800          
    O        Core        8      16.00   0.183000   0.730  0.000  1.360          
    O        Shell       8       0.00  -2.183000   0.730  0.000  1.360          
    Cl       Core       17      35.45   1.485000   0.990  0.000  1.650          
    Cl       Shell      17       0.00  -2.485000   0.990  0.000  1.650          
--------------------------------------------------------------------------------


  Lattice summation method               =    Ewald          (3-D)
                                         =    Parry          (2-D)
                                         =    Saunders et al (1-D)
  Accuracy factor for lattice sums       =   12.000


  Analytic derivatives to be used

  Time limit = Infinity

  Maximum range for interatomic potentials =    100000.000000 Angstroms

  General interatomic potentials :

--------------------------------------------------------------------------------
Atom  Types   Potential      Parameter       Value         Units   Cutoffs(Ang)
  1     2                                                            Min /  Max 
--------------------------------------------------------------------------------
O    c O    s Spring (c-s)  Spring k 2       593.72000    eV*Ang^-2 0.000  0.800
                            Spring k 4       0.0000000    eV*Ang^-4 
--------------------------------------------------------------------------------
Cl   c Cl   s Spring (c-s)  Spring k 2       29.380000    eV*Ang^-2 0.000  0.800
                            Spring k 4       0.0000000    eV*Ang^-4 
--------------------------------------------------------------------------------
Li   c Li   c Buckingham    Buckingham A     360.53000    eV        0.000 12.000
                            Buckingham rho  0.16100000    Ang       
                            Buckingham C     0.0000000    eV*Ang^6  
--------------------------------------------------------------------------------
Li   c O    s Buckingham    Buckingham A     292.30000    eV        0.000 12.000
                            Buckingham rho  0.34720000    Ang       
                            Buckingham C     0.0000000    eV*Ang^6  
--------------------------------------------------------------------------------
Li   c Cl   s Buckingham    Buckingham A     421.04000    eV        0.000 12.000
                            Buckingham rho  0.33400000    Ang       
                            Buckingham C     0.0000000    eV*Ang^6  
--------------------------------------------------------------------------------
O    s O    s Buckingham    Buckingham A     22764.300    eV        0.000 12.000
                            Buckingham rho  0.14900000    Ang       
                            Buckingham C     13.190000    eV*Ang^6  
--------------------------------------------------------------------------------
O    s Cl   s Buckingham    Buckingham A     8286.9100    eV        0.000 12.000
                            Buckingham rho  0.25900000    Ang       
                            Buckingham C     62.200000    eV*Ang^6  
--------------------------------------------------------------------------------
Cl   s Cl   s Buckingham    Buckingham A     1227.2000    eV        0.000 12.000
                            Buckingham rho  0.32100000    Ang       
                            Buckingham C     14.530000    eV*Ang^6  
--------------------------------------------------------------------------------

********************************************************************************
*  Output for configuration   1                                                *
********************************************************************************


  Components of energy : 

--------------------------------------------------------------------------------
  Interatomic potentials     =           7.26836263 eV    
  Monopole - monopole (real) =         -11.53475722 eV    
  Monopole - monopole (recip)=         -33.94580548 eV    
  Monopole - monopole (total)=         -45.48056271 eV    
--------------------------------------------------------------------------------
  Total lattice energy       =         -38.21220008 eV    
--------------------------------------------------------------------------------
  Total lattice energy       =           -3686.8932 kJ/(mole unit cells)
--------------------------------------------------------------------------------


  Number of variables =        1

  Maximum number of calculations  =          1000
  Maximum Hessian update interval =            10
  Maximum step size               =   1.000000000
  Maximum parameter tolerance     =   0.000010000
  Maximum function  tolerance     =   0.000010000
  Maximum gradient  tolerance     =   0.001000000
  Maximum gradient  component     =   0.010000000

  Symmetry constrained optimisation

  Symmetry used for second derivatives

  Cell parameters to be optimised using strains

  Newton-Raphson optimiser to be used

  BFGS hessian update to be used

  Lower half triangular hessian to be used

  Start of bulk optimisation :

  Cycle:      0 Energy:       -38.212200  Gnorm:      0.095699  CPU:    0.011
  ** Hessian calculated **
  Cycle:      1 Energy:       -38.212222  Gnorm:      0.000105  CPU:    0.012


  **** Optimisation achieved ****


  Final energy =     -38.21222207 eV
  Final Gnorm  =       0.00000016

  Components of energy : 

--------------------------------------------------------------------------------
  Interatomic potentials     =           7.24743141 eV    
  Monopole - monopole (real) =         -11.52945423 eV    
  Monopole - monopole (recip)=         -33.93019924 eV    
  Monopole - monopole (total)=         -45.45965348 eV    
--------------------------------------------------------------------------------
  Total lattice energy       =         -38.21222207 eV    
--------------------------------------------------------------------------------
  Total lattice energy       =           -3686.8953 kJ/(mole unit cells)
--------------------------------------------------------------------------------

  Final asymmetric unit coordinates :

--------------------------------------------------------------------------------
   No.  Atomic        x           y           z         Radius
        Label       (Frac)      (Frac)      (Frac)       (Angs) 
--------------------------------------------------------------------------------
     1  Cl    c     0.000000    0.000000    0.000000    0.000000
     2  O     c     0.500000    0.500000    0.500000    0.000000
     3  Li    c     0.500000    0.500000    0.000000    0.000000
     4  Cl    s     0.000000    0.000000    0.000000    0.000000
     5  O     s     0.500000    0.500000    0.500000    0.000000
--------------------------------------------------------------------------------

  Final Cartesian lattice vectors (Angstroms) :

        3.920675    0.000000    0.000000
        0.000000    3.920675    0.000000
        0.000000    0.000000    3.920675


  Final cell parameters and derivatives :

--------------------------------------------------------------------------------
       a            3.920675 Angstrom     dE/de1(xx)    -0.000000 eV/strain
       b            3.920675 Angstrom     dE/de2(yy)     0.000000 eV/strain
       c            3.920675 Angstrom     dE/de3(zz)     0.000000 eV/strain
       alpha       90.000000 Degrees      dE/de4(yz)     0.000000 eV/strain
       beta        90.000000 Degrees      dE/de5(xz)     0.000000 eV/strain
       gamma       90.000000 Degrees      dE/de6(xy)     0.000000 eV/strain
--------------------------------------------------------------------------------

  Primitive cell volume =            60.267433 Angs**3

  Density of cell =      1.991276 g/cm**3

  Non-primitive cell volume =            60.267433 Angs**3


  Final internal derivatives :

--------------------------------------------------------------------------------
   No.  Atomic          a             b             c           Radius
        Label          (eV)          (eV)          (eV)        (eV/Angs)
--------------------------------------------------------------------------------
      1 Cl    c       0.000000      0.000000      0.000000      0.000000
      2 O     c       0.000000      0.000000      0.000000      0.000000
      3 Li    c       0.000000      0.000000      0.000000      0.000000
      4 Cl    s       0.000000      0.000000      0.000000      0.000000
      5 O     s       0.000000      0.000000      0.000000      0.000000
--------------------------------------------------------------------------------
  Maximum abs         0.000000      0.000000      0.000000      0.000000
--------------------------------------------------------------------------------

  Comparison of initial and final structures : 

--------------------------------------------------------------------------------
  Parameter   Initial value   Final value   Difference    Units      Percent
--------------------------------------------------------------------------------
    Volume        60.184349     60.267433     0.083084    Angs**3      0.14
    a              3.918873      3.920675     0.001802    Angstroms    0.05
    b              3.918873      3.920675     0.001802    Angstroms    0.05
    c              3.918873      3.920675     0.001802    Angstroms    0.05
    alpha         90.000000     90.000000     0.000000    Degrees      0.00
    beta          90.000000     90.000000     0.000000    Degrees      0.00
    gamma         90.000000     90.000000     0.000000    Degrees      0.00
      1 x          0.000000      0.000000     0.000000    Fractional   0.00
      1 y          0.000000      0.000000     0.000000    Fractional   0.00
      1 z          0.000000      0.000000     0.000000    Fractional   0.00
      2 x          0.500000      0.500000     0.000000    Fractional   0.00
      2 y          0.500000      0.500000     0.000000    Fractional   0.00
      2 z          0.500000      0.500000     0.000000    Fractional   0.00
      3 x          0.500000      0.500000     0.000000    Fractional   0.00
      3 y          0.500000      0.500000     0.000000    Fractional   0.00
      3 z          0.000000      0.000000     0.000000    Fractional   0.00
      4 x          0.000000      0.000000     0.000000    Fractional   0.00
      4 y          0.000000      0.000000     0.000000    Fractional   0.00
      4 z          0.000000      0.000000     0.000000    Fractional   0.00
      5 x          0.500000      0.500000     0.000000    Fractional   0.00
      5 y          0.500000      0.500000     0.000000    Fractional   0.00
      5 z          0.500000      0.500000     0.000000    Fractional   0.00
--------------------------------------------------------------------------------


  Born effective charge tensors : 

-------------------------------------------------------------------------------
  Atom             x           y             z
-------------------------------------------------------------------------------
    1 Cl    x      -0.9489     -0.0000     -0.0000
            y      -0.0000     -0.9489     -0.0000
            z      -0.0000     -0.0000     -0.9489
-------------------------------------------------------------------------------
    2 O     x      -2.4688      0.0000      0.0000
            y       0.0000     -2.4688      0.0000
            z       0.0000      0.0000     -2.4688
-------------------------------------------------------------------------------
    3 Li    x       1.3129      0.0000     -0.0000
            y       0.0000      1.3129      0.0000
            z      -0.0000      0.0000      0.7919
-------------------------------------------------------------------------------




  Elastic Constant Matrix: (Units=GPa)

-------------------------------------------------------------------------------
  Indices      1         2         3         4         5         6    
-------------------------------------------------------------------------------
       1     94.3368   44.9178   44.9178    0.0000   -0.0000    0.0000
       2     44.9178   94.3368   44.9178   -0.0000    0.0000   -0.0000
       3     44.9178   44.9178   94.3368    0.0000   -0.0000    0.0000
       4      0.0000   -0.0000    0.0000   44.9178   -0.0000    0.0000
       5     -0.0000    0.0000   -0.0000   -0.0000   44.9178    0.0000
       6      0.0000   -0.0000    0.0000    0.0000    0.0000   44.9178
-------------------------------------------------------------------------------


  Elastic Compliance Matrix: (Units=1/GPa)

-------------------------------------------------------------------------------
  Indices      1         2         3         4         5         6    
-------------------------------------------------------------------------------
       1    0.015300 -0.004935 -0.004935 -0.000000  0.000000 -0.000000
       2   -0.004935  0.015300 -0.004935  0.000000 -0.000000  0.000000
       3   -0.004935 -0.004935  0.015300 -0.000000  0.000000 -0.000000
       4   -0.000000  0.000000 -0.000000  0.022263  0.000000 -0.000000
       5    0.000000 -0.000000  0.000000  0.000000  0.022263 -0.000000
       6   -0.000000  0.000000 -0.000000 -0.000000 -0.000000  0.022263
-------------------------------------------------------------------------------

  Mechanical properties :

-------------------------------------------------------------------------------
  Convention :                    Reuss         Voigt         Hill
-------------------------------------------------------------------------------
  Bulk  Modulus (GPa)     =      61.39080      61.39080      61.39080
  Shear Modulus (GPa)     =      33.84570      36.83448      35.34009
-------------------------------------------------------------------------------
  Velocity S-wave (km/s)  =       4.12274       4.30092       4.21277
  Velocity P-wave (km/s)  =       7.31386       7.44942       7.38195
-------------------------------------------------------------------------------
  Compressibility (1/GPa) =    0.01628909
-------------------------------------------------------------------------------
  Stress axis :                     x             y             z
-------------------------------------------------------------------------------
  Youngs Moduli (GPa)     =      65.35947      65.35947      65.35947
-------------------------------------------------------------------------------
  Poissons Ratio (x)      =                     0.32256       0.32256
  Poissons Ratio (y)      =       0.32256                     0.32256
  Poissons Ratio (z)      =       0.32256       0.32256
-------------------------------------------------------------------------------


  Piezoelectric Strain Matrix: (Units=C/m**2)

-------------------------------------------------------------------------------
  Indices      1         2         3         4         5         6    
-------------------------------------------------------------------------------
       x    -0.00000   0.00000   0.00000  -0.00000  -0.00000   0.00000
       y    -0.00000   0.00000   0.00000  -0.00000  -0.00000  -0.00000
       z     0.00000   0.00000   0.00000   0.00000  -0.00000  -0.00000
-------------------------------------------------------------------------------


  Piezoelectric Stress Matrix: (Units=10**-11 C/N)

-------------------------------------------------------------------------------
  Indices      1         2         3         4         5         6    
-------------------------------------------------------------------------------
       x    -0.00000   0.00000   0.00000  -0.00000  -0.00000   0.00000
       y    -0.00000   0.00000   0.00000  -0.00000  -0.00000  -0.00000
       z    -0.00000  -0.00000   0.00000   0.00000  -0.00000  -0.00000
-------------------------------------------------------------------------------


  Static dielectric constant tensor : 

-------------------------------------------------------------------------------
              x         y         z
-------------------------------------------------------------------------------
       x    12.11703   0.00000  -0.00000
       y     0.00000  12.11703  -0.00000
       z    -0.00000  -0.00000  12.11703
--------------------------------------------------------------------------------

  High frequency dielectric constant tensor : 

-------------------------------------------------------------------------------
              x         y         z
-------------------------------------------------------------------------------
       x     1.74104   0.00000   0.00000
       y     0.00000   1.74104   0.00000
       z     0.00000   0.00000   1.74104
-------------------------------------------------------------------------------

  Static refractive indices : 

-------------------------------------------------------------------------------
    1 =    3.48095      2 =    3.48095      3 =    3.48095
-------------------------------------------------------------------------------

  High frequency refractive indices : 

-------------------------------------------------------------------------------
    1 =    1.31948      2 =    1.31948      3 =    1.31948
-------------------------------------------------------------------------------


  Time to end of optimisation =       0.0191 seconds

********************************************************************************
*  Defect calculation for configuration   1 :                                  *
********************************************************************************

  Total number of defects =      3

  Total charge on defect  =  -1.00

  Defect centre is at   0.5000   0.3500   0.1500  Frac

  Region 1 radius =  20.0000      Number of ions =   3887

  Number of symmetry inequivalent region 1 ions  =   2105

  Region 2 radius =  24.0000      Number of ions =   2827

  Number of symmetry inequivalent region 2a ions =   1486

  Region 2a mode = 4 : screened electrostatics due to region 1 
                       neglect correction to region 1 forces from 2a
                       region 2a displacements based on defects only

  Region 2a ions will only interact with defects in region 1

  Vacancies:

--------------------------------------------------------------------------------
    Specification type     Symbol/Number         x          y          z
--------------------------------------------------------------------------------
    Fractional                               0.500000   0.500000   0.000000
    Fractional                               0.500000   0.000000   0.500000
--------------------------------------------------------------------------------

  Interstitials:

--------------------------------------------------------------------------------
    Specification type     Symbol/Number         x          y          z
--------------------------------------------------------------------------------
    Atom/Fractional         Li               0.500000   0.350000   0.150000
--------------------------------------------------------------------------------


  Symmetry reduced region 1 (Relative to defect centre) :

--------------------------------------------------------------------------------
   No.   Atomic       x            y             z       Radius  Multiplicity   
         Label      (Angs)       (Angs)        (Angs)    (Angs)     
--------------------------------------------------------------------------------
     1  Li    c      0.0000       0.0000       0.0000    0.0000     1    Defect
     2  O     c      0.0000       0.5881 *     1.3722 *  0.0000     1          
     3  Li    c      1.9603 *     0.5881 *     1.3722 *  0.0000     2          
     4  Cl    c      1.9603 *    -1.3722 *    -0.5881 *  0.0000     2          
     5  O     c      0.0000       0.5881 *    -2.5484 *  0.0000     1          
     6  Li    c      0.0000       2.5484 *     1.3722 *  0.0000     1          
     7  Li    c      0.0000      -1.3722 *    -2.5484 *  0.0000     1          
     8  Cl    c      1.9603 *     2.5484 *    -0.5881 *  0.0000     2          
     9  Li    c      1.9603 *     0.5881 *    -2.5484 *  0.0000     2          
    10  Li    c      0.0000       0.5881 *     3.3326 *  0.0000     1          
    11  Li    c      0.0000      -3.3326 *    -0.5881 *  0.0000     1          
    12  Li    c      0.0000       2.5484 *    -2.5484 *  0.0000     1          
    13  O     c      0.0000      -3.3326 *     1.3722 *  0.0000     1          
    14  Li    c     -3.9207 *     0.5881 *    -0.5881 *  0.0000     2          
    15  Cl    c      1.9603 *    -1.3722 *     3.3326 *  0.0000     2          
    16  Li    c      1.9603 *    -3.3326 *     1.3722 *  0.0000     2          
    17  O     c     -3.9207 *     0.5881 *     1.3722 *  0.0000     2          
    18  O     c      0.0000      -3.3326 *    -2.5484 *  0.0000     1          
    19  Li    c     -3.9207 *    -1.3722 *     1.3722 *  0.0000     2          
    20  Li    c      0.0000       0.5881 *    -4.5088 *  0.0000     1          
    21  Li    c      0.0000       4.5088 *    -0.5881 *  0.0000     1          
    22  Cl    c      1.9603 *     2.5484 *     3.3326 *  0.0000     2          
    23  Li    c      1.9603 *    -3.3326 *    -2.5484 *  0.0000     2          
    24  O     c     -3.9207 *     0.5881 *    -2.5484 *  0.0000     2          
    25  Li    c      0.0000      -3.3326 *     3.3326 *  0.0000     1          
    26  O     c      0.0000       4.5088 *     1.3722 *  0.0000     1          
    27  Li    c     -3.9207 *    -1.3722 *    -2.5484 *  0.0000     2          
    28  Li    c     -3.9207 *     2.5484 *     1.3722 *  0.0000     2          
    29  Cl    c      1.9603 *    -1.3722 *    -4.5088 *  0.0000     2          
    30  Li    c      1.9603 *     4.5088 *     1.3722 *  0.0000     2          
    31  Li    c     -3.9207 *     0.5881 *     3.3326 *  0.0000     2          
    32  O     c      0.0000       4.5088 *    -2.5484 *  0.0000     1          
    33  Li    c     -3.9207 *    -3.3326 *    -0.5881 *  0.0000     2          
    34  Li    c     -3.9207 *     2.5484 *    -2.5484 *  0.0000     2          
    35  O     c     -3.9207 *    -3.3326 *     1.3722 *  0.0000     2          
    36  O     c      0.0000       0.5881 *     5.2929 *  0.0000     1          
    37  Li    c      0.0000      -1.3722 *     5.2929 *  0.0000     1          
    38  Li    c      0.0000      -5.2929 *     1.3722 *  0.0000     1          
    39  Cl    c      1.9603 *     2.5484 *    -4.5088 *  0.0000     2          
    40  Li    c      1.9603 *     4.5088 *    -2.5484 *  0.0000     2          
    41  Li    c      0.0000       4.5088 *     3.3326 *  0.0000     1          
    42  Li    c      0.0000      -3.3326 *    -4.5088 *  0.0000     1          
    43  Cl    c      1.9603 *    -5.2929 *    -0.5881 *  0.0000     2          
    44  Li    c      1.9603 *     0.5881 *     5.2929 *  0.0000     2          
    45  O     c      3.9207 *    -3.3326 *    -2.5484 *  0.0000     2          
    46  Li    c      0.0000       2.5484 *     5.2929 *  0.0000     1          
    47  Li    c      0.0000      -5.2929 *    -2.5484 *  0.0000     1          
    48  Li    c      3.9207 *     0.5881 *    -4.5088 *  0.0000     2          
    49  Li    c      3.9207 *     4.5088 *    -0.5881 *  0.0000     2          
    50  Cl    c      5.8810 *    -1.3722 *    -0.5881 *  0.0000     2          
    51  Li    c      5.8810 *     0.5881 *     1.3722 *  0.0000     2          
    52  Li    c     -3.9207 *    -3.3326 *     3.3326 *  0.0000     2          
    53  O     c      3.9207 *     4.5088 *     1.3722 *  0.0000     2          
    54  O     c      0.0000      -3.3326 *     5.2929 *  0.0000     1          
    55  Li    c      0.0000       4.5088 *    -4.5088 *  0.0000     1          
    56  Cl    c      5.8810 *     2.5484 *    -0.5881 *  0.0000     2          
    57  Li    c      5.8810 *     0.5881 *    -2.5484 *  0.0000     2          
    58  O     c      0.0000       0.5881 *    -6.4691 *  0.0000     1          
    59  O     c      3.9207 *     4.5088 *    -2.5484 *  0.0000     2          
    60  Cl    c      1.9603 *    -5.2929 *     3.3326 *  0.0000     2          
    61  Li    c      1.9603 *    -3.3326 *     5.2929 *  0.0000     2          
    62  Li    c      0.0000      -1.3722 *    -6.4691 *  0.0000     1          
    63  Li    c      0.0000       6.4691 *     1.3722 *  0.0000     1          
    64  O     c      3.9207 *     0.5881 *     5.2929 *  0.0000     2          
    65  Li    c      3.9207 *    -1.3722 *     5.2929 *  0.0000     2          
    66  Li    c      3.9207 *    -5.2929 *     1.3722 *  0.0000     2          
    67  Cl    c      1.9603 *     6.4691 *    -0.5881 *  0.0000     2          
    68  Li    c      1.9603 *     0.5881 *    -6.4691 *  0.0000     2          
    69  Li    c      3.9207 *     4.5088 *     3.3326 *  0.0000     2          
    70  Li    c     -3.9207 *    -3.3326 *    -4.5088 *  0.0000     2          
    71  Cl    c      5.8810 *    -1.3722 *     3.3326 *  0.0000     2          
    72  Li    c      5.8810 *    -3.3326 *     1.3722 *  0.0000     2          
    73  Li    c      0.0000       2.5484 *    -6.4691 *  0.0000     1          
    74  Li    c      0.0000       6.4691 *    -2.5484 *  0.0000     1          
    75  O     c      0.0000       4.5088 *     5.2929 *  0.0000     1          
    76  Li    c      3.9207 *     2.5484 *     5.2929 *  0.0000     2          
    77  Li    c      3.9207 *    -5.2929 *    -2.5484 *  0.0000     2          
    78  Cl    c      5.8810 *     2.5484 *     3.3326 *  0.0000     2          
    79  Li    c      5.8810 *    -3.3326 *    -2.5484 *  0.0000     2          
    80  Cl    c      1.9603 *    -5.2929 *    -4.5088 *  0.0000     2          
    81  Li    c      1.9603 *     4.5088 *     5.2929 *  0.0000     2          
    82  O     c      0.0000      -3.3326 *    -6.4691 *  0.0000     1          
    83  Li    c      0.0000       0.5881 *     7.2532 *  0.0000     1          
    84  Li    c      0.0000      -7.2532 *    -0.5881 *  0.0000     1          
    85  O     c      0.0000      -7.2532 *     1.3722 *  0.0000     1          
    86  O     c      3.9207 *    -3.3326 *     5.2929 *  0.0000     2          
    87  Li    c      3.9207 *     4.5088 *    -4.5088 *  0.0000     2          
    88  Li    c      0.0000      -5.2929 *     5.2929 *  0.0000     1          
    89  Cl    c      1.9603 *     6.4691 *     3.3326 *  0.0000     2          
    90  Li    c      1.9603 *    -3.3326 *    -6.4691 *  0.0000     2          
    91  Li    c      5.8810 *     4.5088 *     1.3722 *  0.0000     2          
    92  Cl    c      5.8810 *    -1.3722 *    -4.5088 *  0.0000     2          
    93  O     c     -3.9207 *     0.5881 *    -6.4691 *  0.0000     2          
    94  Cl    c      1.9603 *    -1.3722 *     7.2532 *  0.0000     2          
    95  Li    c      1.9603 *    -7.2532 *     1.3722 *  0.0000     2          
    96  Li    c     -3.9207 *    -1.3722 *    -6.4691 *  0.0000     2          
    97  Li    c     -3.9207 *     6.4691 *     1.3722 *  0.0000     2          
    98  O     c      0.0000      -7.2532 *    -2.5484 *  0.0000     1          
    99  Cl    c      5.8810 *     2.5484 *    -4.5088 *  0.0000     2          
   100  Li    c      5.8810 *     4.5088 *    -2.5484 *  0.0000     2          
   101  Li    c     -7.8414 *     0.5881 *    -0.5881 *  0.0000     2          
   102  O     c      0.0000       4.5088 *    -6.4691 *  0.0000     1          
   103  Cl    c      1.9603 *     2.5484 *     7.2532 *  0.0000     2          
   104  Li    c      1.9603 *    -7.2532 *    -2.5484 *  0.0000     2          
   105  Cl    c      5.8810 *    -5.2929 *    -0.5881 *  0.0000     2          
   106  Li    c      5.8810 *     0.5881 *     5.2929 *  0.0000     2          
   107  O     c     -7.8414 *     0.5881 *     1.3722 *  0.0000     2          
   108  Li    c      0.0000      -7.2532 *     3.3326 *  0.0000     1          
   109  Li    c      3.9207 *     2.5484 *    -6.4691 *  0.0000     2          
   110  Li    c     -3.9207 *     6.4691 *    -2.5484 *  0.0000     2          
   111  Li    c      0.0000      -3.3326 *     7.2532 *  0.0000     1          
   112  O     c      3.9207 *     4.5088 *     5.2929 *  0.0000     2          
   113  Li    c     -7.8414 *    -1.3722 *     1.3722 *  0.0000     2          
   114  Cl    c      1.9603 *     6.4691 *    -4.5088 *  0.0000     2          
   115  Li    c      1.9603 *     4.5088 *    -6.4691 *  0.0000     2          
   116  O     c     -3.9207 *    -3.3326 *    -6.4691 *  0.0000     2          
   117  O     c     -7.8414 *     0.5881 *    -2.5484 *  0.0000     2          
   118  Li    c      3.9207 *     0.5881 *     7.2532 *  0.0000     2          
   119  Li    c      3.9207 *    -7.2532 *    -0.5881 *  0.0000     2          
   120  Li    c     -7.8414 *     2.5484 *     1.3722 *  0.0000     2          
   121  O     c      3.9207 *    -7.2532 *     1.3722 *  0.0000     2          
   122  Li    c      0.0000       6.4691 *     5.2929 *  0.0000     1          
   123  Li    c      0.0000      -5.2929 *    -6.4691 *  0.0000     1          
   124  Li    c     -7.8414 *    -1.3722 *    -2.5484 *  0.0000     2          
   125  Li    c      0.0000       0.5881 *    -8.4295 *  0.0000     1          
   126  Li    c      0.0000       8.4295 *    -0.5881 *  0.0000     1          
   127  Li    c      3.9207 *    -5.2929 *     5.2929 *  0.0000     2          
   128  O     c      0.0000       8.4295 *     1.3722 *  0.0000     1          
   129  Li    c      0.0000       4.5088 *     7.2532 *  0.0000     1          
   130  Li    c      0.0000      -7.2532 *    -4.5088 *  0.0000     1          
   131  Li    c     -7.8414 *     0.5881 *     3.3326 *  0.0000     2          
   132  Li    c     -7.8414 *    -3.3326 *    -0.5881 *  0.0000     2          
   133  Cl    c      5.8810 *    -5.2929 *     3.3326 *  0.0000     2          
   134  Li    c      5.8810 *    -3.3326 *     5.2929 *  0.0000     2          
   135  O     c     -7.8414 *    -3.3326 *     1.3722 *  0.0000     2          
   136  Li    c     -7.8414 *     2.5484 *    -2.5484 *  0.0000     2          
   137  O     c      3.9207 *    -7.2532 *    -2.5484 *  0.0000     2          
   138  Cl    c      1.9603 *    -1.3722 *    -8.4295 *  0.0000     2          
   139  Cl    c      5.8810 *     6.4691 *    -0.5881 *  0.0000     2          
   140  Li    c      1.9603 *     8.4295 *     1.3722 *  0.0000     2          
   141  Li    c      5.8810 *     0.5881 *    -6.4691 *  0.0000     2          
   142  O     c      0.0000       8.4295 *    -2.5484 *  0.0000     1          
   143  O     c      3.9207 *     4.5088 *    -6.4691 *  0.0000     2          
   144  O     c     -7.8414 *    -3.3326 *    -2.5484 *  0.0000     2          
   145  Li    c      3.9207 *    -3.3326 *     7.2532 *  0.0000     2          
   146  Li    c      3.9207 *    -7.2532 *     3.3326 *  0.0000     2          
   147  O     c      0.0000      -7.2532 *     5.2929 *  0.0000     1          
   148  Cl    c      1.9603 *     2.5484 *    -8.4295 *  0.0000     2          
   149  Li    c      1.9603 *     8.4295 *    -2.5484 *  0.0000     2          
   150  Li    c      0.0000       8.4295 *     3.3326 *  0.0000     1          
   151  Li    c      0.0000      -3.3326 *    -8.4295 *  0.0000     1          
   152  Li    c     -7.8414 *     0.5881 *    -4.5088 *  0.0000     2          
   153  Li    c     -7.8414 *     4.5088 *    -0.5881 *  0.0000     2          
   154  Cl    c      5.8810 *    -5.2929 *    -4.5088 *  0.0000     2          
   155  Li    c      5.8810 *     4.5088 *     5.2929 *  0.0000     2          
   156  O     c     -7.8414 *     4.5088 *     1.3722 *  0.0000     2          
   157  Li    c     -7.8414 *    -3.3326 *     3.3326 *  0.0000     2          
   158  Li    c      0.0000       6.4691 *    -6.4691 *  0.0000     1          
   159  Li    c      1.9603 *    -7.2532 *     5.2929 *  0.0000     2          
   160  Cl    c      1.9603 *    -5.2929 *     7.2532 *  0.0000     2          
   161  O     c      0.0000       0.5881 *     9.2136 *  0.0000     1          
   162  Li    c      3.9207 *     6.4691 *     5.2929 *  0.0000     2          
   163  Li    c      3.9207 *    -5.2929 *    -6.4691 *  0.0000     2          
   164  Li    c      3.9207 *     0.5881 *    -8.4295 *  0.0000     2          
   165  Li    c      3.9207 *     8.4295 *    -0.5881 *  0.0000     2          
   166  Li    c      0.0000      -1.3722 *     9.2136 *  0.0000     1          
   167  Li    c      0.0000      -9.2136 *     1.3722 *  0.0000     1          
   168  Cl    c      5.8810 *     6.4691 *     3.3326 *  0.0000     2          
   169  Li    c      5.8810 *    -3.3326 *    -6.4691 *  0.0000     2          
   170  O     c      3.9207 *     8.4295 *     1.3722 *  0.0000     2          
   171  O     c     -7.8414 *     4.5088 *    -2.5484 *  0.0000     2          
   172  Li    c      3.9207 *     4.5088 *     7.2532 *  0.0000     2          
   173  Li    c      3.9207 *    -7.2532 *    -4.5088 *  0.0000     2          
   174  Li    c      5.8810 *    -7.2532 *     1.3722 *  0.0000     2          
   175  Cl    c      1.9603 *    -9.2136 *    -0.5881 *  0.0000     2          
   176  Cl    c      5.8810 *    -1.3722 *     7.2532 *  0.0000     2          
   177  Li    c      1.9603 *     0.5881 *     9.2136 *  0.0000     2          
   178  O     c     -7.8414 *     0.5881 *     5.2929 *  0.0000     2          
   179  Li    c      0.0000       4.5088 *    -8.4295 *  0.0000     1          
   180  Li    c      0.0000       8.4295 *    -4.5088 *  0.0000     1          
   181  Li    c     -7.8414 *    -5.2929 *     1.3722 *  0.0000     2          
   182  Li    c      0.0000       2.5484 *     9.2136 *  0.0000     1          
   183  Li    c      0.0000      -9.2136 *    -2.5484 *  0.0000     1          
   184  Li    c     -7.8414 *    -1.3722 *     5.2929 *  0.0000     2          
   185  O     c      3.9207 *     8.4295 *    -2.5484 *  0.0000     2          
   186  Li    c     -7.8414 *     4.5088 *     3.3326 *  0.0000     2          
   187  Li    c     -7.8414 *    -3.3326 *    -4.5088 *  0.0000     2          
   188  Cl    c      5.8810 *     2.5484 *     7.2532 *  0.0000     2          
   189  Li    c      5.8810 *    -7.2532 *    -2.5484 *  0.0000     2          
   190  O     c      0.0000      -7.2532 *    -6.4691 *  0.0000     1          
   191  O     c      0.0000      -3.3326 *     9.2136 *  0.0000     1          
   192  Li    c     -7.8414 *     2.5484 *     5.2929 *  0.0000     2          
   193  Li    c     -7.8414 *    -5.2929 *    -2.5484 *  0.0000     2          
   194  O     c      3.9207 *    -7.2532 *     5.2929 *  0.0000     2          
   195  Cl    c      5.8810 *     6.4691 *    -4.5088 *  0.0000     2          
   196  Li    c      5.8810 *     4.5088 *    -6.4691 *  0.0000     2          
   197  Li    c      3.9207 *     8.4295 *     3.3326 *  0.0000     2          
   198  Li    c      3.9207 *    -3.3326 *    -8.4295 *  0.0000     2          
   199  Cl    c      1.9603 *     6.4691 *     7.2532 *  0.0000     2          
   200  Li    c      1.9603 *    -7.2532 *    -6.4691 *  0.0000     2          
   201  Li    c      9.8017 *     0.5881 *     1.3722 *  0.0000     2          
   202  Cl    c      9.8017 *    -1.3722 *    -0.5881 *  0.0000     2          
   203  O     c      0.0000       8.4295 *     5.2929 *  0.0000     1          
   204  Li    c      3.9207 *     6.4691 *    -6.4691 *  0.0000     2          
   205  Cl    c      1.9603 *    -9.2136 *     3.3326 *  0.0000     2          
   206  Li    c      1.9603 *    -3.3326 *     9.2136 *  0.0000     2          
   207  O     c      3.9207 *     0.5881 *     9.2136 *  0.0000     2          
   208  O     c     -7.8414 *    -3.3326 *     5.2929 *  0.0000     2          
   209  Li    c     -7.8414 *     4.5088 *    -4.5088 *  0.0000     2          
   210  Li    c      3.9207 *    -9.2136 *     1.3722 *  0.0000     2          
   211  Li    c     -3.9207 *    -1.3722 *     9.2136 *  0.0000     2          
   212  Cl    c      1.9603 *    -5.2929 *    -8.4295 *  0.0000     2          
   213  Li    c      1.9603 *     8.4295 *     5.2929 *  0.0000     2          
   214  Cl    c      9.8017 *     2.5484 *    -0.5881 *  0.0000     2          
   215  Li    c      9.8017 *     0.5881 *    -2.5484 *  0.0000     2          
   216  O     c     -7.8414 *     0.5881 *    -6.4691 *  0.0000     2          
   217  Li    c     -7.8414 *     6.4691 *     1.3722 *  0.0000     2          
   218  O     c      0.0000       4.5088 *     9.2136 *  0.0000     1          
   219  Li    c      0.0000      -7.2532 *     7.2532 *  0.0000     1          
   220  Li    c      7.8414 *    -1.3722 *    -6.4691 *  0.0000     2          
   221  Li    c      3.9207 *     4.5088 *    -8.4295 *  0.0000     2          
   222  Li    c      3.9207 *     8.4295 *    -4.5088 *  0.0000     2          
   223  Li    c     -3.9207 *     2.5484 *     9.2136 *  0.0000     2          
   224  Li    c      3.9207 *    -9.2136 *    -2.5484 *  0.0000     2          
   225  Cl    c      5.8810 *    -1.3722 *    -8.4295 *  0.0000     2          
   226  Li    c      5.8810 *     8.4295 *     1.3722 *  0.0000     2          
   227  O     c      0.0000       0.5881 *   -10.3898 *  0.0000     1          
   228  Cl    c      1.9603 *    -9.2136 *    -4.5088 *  0.0000     2          
   229  Li    c      1.9603 *     4.5088 *     9.2136 *  0.0000     2          
   230  Li    c      9.8017 *    -3.3326 *     1.3722 *  0.0000     2          
   231  Cl    c      9.8017 *    -1.3722 *     3.3326 *  0.0000     2          
   232  Li    c      0.0000      10.3898 *     1.3722 *  0.0000     1          
   233  O     c      3.9207 *    -7.2532 *    -6.4691 *  0.0000     2          
   234  Li    c      0.0000      -1.3722 *   -10.3898 *  0.0000     1          
   235  Li    c      7.8414 *     2.5484 *    -6.4691 *  0.0000     2          
   236  Li    c     -7.8414 *     6.4691 *    -2.5484 *  0.0000     2          
   237  O     c     -7.8414 *     4.5088 *     5.2929 *  0.0000     2          
   238  O     c      3.9207 *    -3.3326 *     9.2136 *  0.0000     2          
   239  Cl    c      5.8810 *     2.5484 *    -8.4295 *  0.0000     2          
   240  Cl    c      1.9603 *    10.3898 *    -0.5881 *  0.0000     2          
   241  Li    c      1.9603 *     0.5881 *   -10.3898 *  0.0000     2          
   242  Li    c      5.8810 *     8.4295 *    -2.5484 *  0.0000     2          
   243  O     c      0.0000       8.4295 *    -6.4691 *  0.0000     1          
   244  Li    c      0.0000      -5.2929 *     9.2136 *  0.0000     1          
   245  Li    c      0.0000      -9.2136 *     5.2929 *  0.0000     1          
   246  Cl    c      9.8017 *     2.5484 *     3.3326 *  0.0000     2          
   247  Li    c      9.8017 *    -3.3326 *    -2.5484 *  0.0000     2          
   248  O     c     -7.8414 *    -3.3326 *    -6.4691 *  0.0000     2          
   249  Li    c     -7.8414 *     0.5881 *     7.2532 *  0.0000     2          
   250  Li    c      0.0000       2.5484 *   -10.3898 *  0.0000     1          
   251  Li    c      0.0000      10.3898 *    -2.5484 *  0.0000     1          
   252  O     c      3.9207 *     8.4295 *     5.2929 *  0.0000     2          
   253  Li    c      7.8414 *    -7.2532 *    -0.5881 *  0.0000     2          
   254  Cl    c      5.8810 *    -5.2929 *     7.2532 *  0.0000     2          
   255  Li    c      5.8810 *    -7.2532 *     5.2929 *  0.0000     2          
   256  O     c      7.8414 *    -7.2532 *     1.3722 *  0.0000     2          
   257  Cl    c      1.9603 *     6.4691 *    -8.4295 *  0.0000     2          
   258  Li    c      1.9603 *     8.4295 *    -6.4691 *  0.0000     2          
   259  Li    c     -7.8414 *    -5.2929 *     5.2929 *  0.0000     2          
   260  Li    c      9.8017 *     4.5088 *     1.3722 *  0.0000     2          
   261  Cl    c      9.8017 *    -1.3722 *    -4.5088 *  0.0000     2          
   262  O     c      0.0000      -3.3326 *   -10.3898 *  0.0000     1          
   263  Cl    c      5.8810 *    -9.2136 *    -0.5881 *  0.0000     2          
   264  Li    c      5.8810 *     0.5881 *     9.2136 *  0.0000     2          
   265  O     c      3.9207 *     4.5088 *     9.2136 *  0.0000     2          
   266  O     c      7.8414 *    -7.2532 *    -2.5484 *  0.0000     2          
   267  Li    c      3.9207 *    -7.2532 *     7.2532 *  0.0000     2          
   268  Cl    c      1.9603 *    10.3898 *     3.3326 *  0.0000     2          
   269  Li    c      1.9603 *    -3.3326 *   -10.3898 *  0.0000     2          
   270  Cl    c      9.8017 *     2.5484 *    -4.5088 *  0.0000     2          
   271  Li    c      9.8017 *     4.5088 *    -2.5484 *  0.0000     2          
   272  O     c      3.9207 *     0.5881 *   -10.3898 *  0.0000     2          
   273  Li    c      0.0000       8.4295 *     7.2532 *  0.0000     1          
   274  Li    c      0.0000      -7.2532 *    -8.4295 *  0.0000     1          
   275  O     c      7.8414 *     4.5088 *    -6.4691 *  0.0000     2          
   276  Cl    c      9.8017 *    -5.2929 *    -0.5881 *  0.0000     2          
   277  Li    c      9.8017 *     0.5881 *     5.2929 *  0.0000     2          
   278  Li    c      3.9207 *    -1.3722 *   -10.3898 *  0.0000     2          
   279  Li    c      3.9207 *    10.3898 *     1.3722 *  0.0000     2          
   280  Li    c      0.0000       0.5881 *    11.1739 *  0.0000     1          
   281  Li    c      0.0000     -11.1739 *    -0.5881 *  0.0000     1          
   282  Li    c      7.8414 *    -7.2532 *     3.3326 *  0.0000     2          
   283  Li    c     -7.8414 *    -3.3326 *     7.2532 *  0.0000     2          
   284  O     c      0.0000     -11.1739 *     1.3722 *  0.0000     1          
   285  Li    c      0.0000       6.4691 *     9.2136 *  0.0000     1          
   286  Li    c      0.0000      -9.2136 *    -6.4691 *  0.0000     1          
   287  O     c      0.0000       4.5088 *   -10.3898 *  0.0000     1          
   288  O     c      3.9207 *     8.4295 *    -6.4691 *  0.0000     2          
   289  Li    c      3.9207 *    -5.2929 *     9.2136 *  0.0000     2          
   290  Li    c      3.9207 *    -9.2136 *     5.2929 *  0.0000     2          
   291  Cl    c      5.8810 *     6.4691 *     7.2532 *  0.0000     2          
   292  Li    c      5.8810 *    -7.2532 *    -6.4691 *  0.0000     2          
   293  Li    c      3.9207 *     2.5484 *   -10.3898 *  0.0000     2          
   294  Li    c      3.9207 *    10.3898 *    -2.5484 *  0.0000     2          
   295  Li    c      1.9603 *   -11.1739 *     1.3722 *  0.0000     2          
   296  Cl    c      1.9603 *    -1.3722 *    11.1739 *  0.0000     2          
   297  Cl    c      5.8810 *    -9.2136 *     3.3326 *  0.0000     2          
   298  Li    c      5.8810 *    -3.3326 *     9.2136 *  0.0000     2          
   299  O     c      0.0000     -11.1739 *    -2.5484 *  0.0000     1          
   300  Li    c     -7.8414 *     6.4691 *     5.2929 *  0.0000     2          
   301  Li    c     -7.8414 *    -5.2929 *    -6.4691 *  0.0000     2          
   302  Cl    c      1.9603 *    10.3898 *    -4.5088 *  0.0000     2          
   303  Li    c      1.9603 *     4.5088 *   -10.3898 *  0.0000     2          
   304  Li    c     -7.8414 *     8.4295 *    -0.5881 *  0.0000     2          
   305  Li    c      7.8414 *     0.5881 *    -8.4295 *  0.0000     2          
   306  Cl    c      5.8810 *    -5.2929 *    -8.4295 *  0.0000     2          
   307  Li    c      5.8810 *     8.4295 *     5.2929 *  0.0000     2          
   308  O     c     -7.8414 *     8.4295 *     1.3722 *  0.0000     2          
   309  O     c      3.9207 *    -3.3326 *   -10.3898 *  0.0000     2          
   310  Li    c      7.8414 *     4.5088 *     7.2532 *  0.0000     2          
   311  Li    c      7.8414 *    -7.2532 *    -4.5088 *  0.0000     2          
   312  Li    c      1.9603 *   -11.1739 *    -2.5484 *  0.0000     2          
   313  Cl    c      1.9603 *     2.5484 *    11.1739 *  0.0000     2          
   314  Li    c      9.8017 *    -3.3326 *     5.2929 *  0.0000     2          
   315  Cl    c      9.8017 *    -5.2929 *     3.3326 *  0.0000     2          
   316  Li    c      0.0000      10.3898 *     5.2929 *  0.0000     1          
   317  Li    c      0.0000      -5.2929 *   -10.3898 *  0.0000     1          
   318  Li    c      0.0000      -3.3326 *    11.1739 *  0.0000     1          
   319  Li    c      0.0000     -11.1739 *     3.3326 *  0.0000     1          
   320  O     c      0.0000      -7.2532 *     9.2136 *  0.0000     1          
   321  Cl    c      9.8017 *     6.4691 *    -0.5881 *  0.0000     2          
   322  Li    c      9.8017 *     0.5881 *    -6.4691 *  0.0000     2          
   323  O     c     -7.8414 *     8.4295 *    -2.5484 *  0.0000     2          
   324  Li    c     11.7620 *     0.5881 *    -0.5881 *  0.0000     2          
   325  Li    c      3.9207 *     8.4295 *     7.2532 *  0.0000     2          
   326  Li    c      3.9207 *    -7.2532 *    -8.4295 *  0.0000     2          
   327  Cl    c      5.8810 *    -9.2136 *    -4.5088 *  0.0000     2          
   328  Li    c      5.8810 *     4.5088 *     9.2136 *  0.0000     2          
   329  O     c     11.7620 *     0.5881 *     1.3722 *  0.0000     2          
   330  Li    c      3.9207 *   -11.1739 *    -0.5881 *  0.0000     2          
   331  Li    c      3.9207 *     0.5881 *    11.1739 *  0.0000     2          
   332  Cl    c      1.9603 *    -9.2136 *     7.2532 *  0.0000     2          
   333  Li    c      1.9603 *    -7.2532 *     9.2136 *  0.0000     2          
   334  O     c      3.9207 *   -11.1739 *     1.3722 *  0.0000     2          
   335  Li    c      0.0000       8.4295 *    -8.4295 *  0.0000     1          
   336  Li    c     11.7620 *    -1.3722 *     1.3722 *  0.0000     2          
   337  Li    c     -3.9207 *     6.4691 *     9.2136 *  0.0000     2          
   338  O     c      7.8414 *    -7.2532 *     5.2929 *  0.0000     2          
   339  Li    c      3.9207 *    -9.2136 *    -6.4691 *  0.0000     2          
   340  Cl    c      5.8810 *    10.3898 *    -0.5881 *  0.0000     2          
   341  Li    c      5.8810 *     0.5881 *   -10.3898 *  0.0000     2          
   342  O     c      3.9207 *     4.5088 *   -10.3898 *  0.0000     2          
   343  Li    c      7.8414 *    -3.3326 *    -8.4295 *  0.0000     2          
   344  Li    c     -7.8414 *     8.4295 *     3.3326 *  0.0000     2          
   345  Cl    c      9.8017 *    -5.2929 *    -4.5088 *  0.0000     2          
   346  Li    c      9.8017 *     4.5088 *     5.2929 *  0.0000     2          
   347  O     c     11.7620 *     0.5881 *    -2.5484 *  0.0000     2          
   348  Li    c      0.0000       4.5088 *    11.1739 *  0.0000     1          
   349  Li    c      0.0000     -11.1739 *    -4.5088 *  0.0000     1          
   350  Li    c      7.8414 *     6.4691 *    -6.4691 *  0.0000     2          
   351  O     c      3.9207 *   -11.1739 *    -2.5484 *  0.0000     2          
   352  Li    c     11.7620 *    -1.3722 *    -2.5484 *  0.0000     2          
   353  Li    c     11.7620 *     2.5484 *     1.3722 *  0.0000     2          
   354  O     c      7.8414 *     0.5881 *     9.2136 *  0.0000     2          
   355  Cl    c      5.8810 *     6.4691 *    -8.4295 *  0.0000     2          
   356  Li    c      5.8810 *     8.4295 *    -6.4691 *  0.0000     2          
   357  Li    c     -7.8414 *    -9.2136 *     1.3722 *  0.0000     2          
   358  Li    c      7.8414 *    -1.3722 *     9.2136 *  0.0000     2          
   359  Cl    c      9.8017 *     6.4691 *     3.3326 *  0.0000     2          
   360  Li    c      9.8017 *    -3.3326 *    -6.4691 *  0.0000     2          
   361  Li    c     11.7620 *     0.5881 *     3.3326 *  0.0000     2          
   362  Li    c     11.7620 *    -3.3326 *    -0.5881 *  0.0000     2          
   363  Li    c      0.0000       6.4691 *   -10.3898 *  0.0000     1          
   364  Li    c      0.0000      10.3898 *    -6.4691 *  0.0000     1          
   365  Cl    c      9.8017 *    -1.3722 *     7.2532 *  0.0000     2          
   366  Li    c      9.8017 *    -7.2532 *     1.3722 *  0.0000     2          
   367  Li    c     11.7620 *     2.5484 *    -2.5484 *  0.0000     2          
   368  O     c     11.7620 *    -3.3326 *     1.3722 *  0.0000     2          
   369  Li    c      3.9207 *    -3.3326 *    11.1739 *  0.0000     2          
   370  Li    c      3.9207 *   -11.1739 *     3.3326 *  0.0000     2          
   371  Li    c      3.9207 *    10.3898 *     5.2929 *  0.0000     2          
   372  Li    c      3.9207 *    -5.2929 *   -10.3898 *  0.0000     2          
   373  Li    c      0.0000       0.5881 *   -12.3501 *  0.0000     1          
   374  Li    c      0.0000      12.3501 *    -0.5881 *  0.0000     1          
   375  Li    c     -7.8414 *     4.5088 *    -8.4295 *  0.0000     2          
   376  Li    c     -7.8414 *     8.4295 *    -4.5088 *  0.0000     2          
   377  Li    c     -7.8414 *     2.5484 *     9.2136 *  0.0000     2          
   378  Li    c     -7.8414 *    -9.2136 *    -2.5484 *  0.0000     2          
   379  O     c      0.0000     -11.1739 *     5.2929 *  0.0000     1          
   380  O     c      3.9207 *    -7.2532 *     9.2136 *  0.0000     2          
   381  Li    c      5.8810 *    -3.3326 *   -10.3898 *  0.0000     2          
   382  Cl    c      5.8810 *    10.3898 *     3.3326 *  0.0000     2          
   383  O     c      0.0000      12.3501 *     1.3722 *  0.0000     1          
   384  Cl    c      9.8017 *     2.5484 *     7.2532 *  0.0000     2          
   385  Li    c      9.8017 *    -7.2532 *    -2.5484 *  0.0000     2          
   386  O     c      0.0000       8.4295 *     9.2136 *  0.0000     1          
   387  O     c      7.8414 *    -7.2532 *    -6.4691 *  0.0000     2          
   388  O     c     11.7620 *    -3.3326 *    -2.5484 *  0.0000     2          
   389  Cl    c      1.9603 *    -5.2929 *    11.1739 *  0.0000     2          
   390  Li    c      1.9603 *   -11.1739 *     5.2929 *  0.0000     2          
   391  O     c      7.8414 *    -3.3326 *     9.2136 *  0.0000     2          
   392  Li    c      3.9207 *     8.4295 *    -8.4295 *  0.0000     2          
   393  Li    c      1.9603 *    12.3501 *     1.3722 *  0.0000     2          
   394  Cl    c      1.9603 *    -1.3722 *   -12.3501 *  0.0000     2          
   395  Cl    c      9.8017 *     6.4691 *    -4.5088 *  0.0000     2          
   396  Li    c      9.8017 *     4.5088 *    -6.4691 *  0.0000     2          
   397  O     c      0.0000      12.3501 *    -2.5484 *  0.0000     1          
   398  Li    c     11.7620 *     0.5881 *    -4.5088 *  0.0000     2          
   399  Li    c     11.7620 *     4.5088 *    -0.5881 *  0.0000     2          
   400  Cl    c      1.9603 *    -9.2136 *    -8.4295 *  0.0000     2          
   401  Li    c      1.9603 *     8.4295 *     9.2136 *  0.0000     2          
   402  O     c      0.0000      -7.2532 *   -10.3898 *  0.0000     1          
   403  O     c     11.7620 *     4.5088 *     1.3722 *  0.0000     2          
   404  O     c     -7.8414 *     8.4295 *     5.2929 *  0.0000     2          
   405  Li    c      3.9207 *   -11.1739 *    -4.5088 *  0.0000     2          
   406  Li    c      3.9207 *     4.5088 *    11.1739 *  0.0000     2          
   407  Li    c     11.7620 *    -3.3326 *     3.3326 *  0.0000     2          
   408  Cl    c      5.8810 *    -1.3722 *    11.1739 *  0.0000     2          
   409  Li    c      5.8810 *   -11.1739 *     1.3722 *  0.0000     2          
   410  Li    c      1.9603 *    12.3501 *    -2.5484 *  0.0000     2          
   411  Cl    c      1.9603 *     2.5484 *   -12.3501 *  0.0000     2          
   412  Cl    c      5.8810 *    10.3898 *    -4.5088 *  0.0000     2          
   413  Li    c      5.8810 *     4.5088 *   -10.3898 *  0.0000     2          
   414  Li    c      0.0000      12.3501 *     3.3326 *  0.0000     1          
   415  Li    c      0.0000      -3.3326 *   -12.3501 *  0.0000     1          
   416  Li    c      1.9603 *    -7.2532 *   -10.3898 *  0.0000     2          
   417  Cl    c      1.9603 *    10.3898 *     7.2532 *  0.0000     2          
   418  O     c     11.7620 *     4.5088 *    -2.5484 *  0.0000     2          
   419  Li    c      3.9207 *     6.4691 *   -10.3898 *  0.0000     2          
   420  Li    c      3.9207 *    10.3898 *    -6.4691 *  0.0000     2          
   421  Cl    c      5.8810 *     2.5484 *    11.1739 *  0.0000     2          
   422  Li    c      5.8810 *   -11.1739 *    -2.5484 *  0.0000     2          
   423  O     c      0.0000     -11.1739 *    -6.4691 *  0.0000     1          
   424  O     c     11.7620 *     0.5881 *     5.2929 *  0.0000     2          
   425  O     c     -7.8414 *     4.5088 *     9.2136 *  0.0000     2          
   426  Li    c      7.8414 *    -7.2532 *     7.2532 *  0.0000     2          
   427  Li    c      3.9207 *    12.3501 *    -0.5881 *  0.0000     2          
   428  O     c      3.9207 *   -11.1739 *     5.2929 *  0.0000     2          
   429  Li    c      3.9207 *     0.5881 *   -12.3501 *  0.0000     2          
   430  Li    c     11.7620 *    -1.3722 *     5.2929 *  0.0000     2          
   431  Li    c     11.7620 *    -5.2929 *     1.3722 *  0.0000     2          
   432  Li    c      9.8017 *     8.4295 *     1.3722 *  0.0000     2          
   433  Cl    c      9.8017 *    -1.3722 *    -8.4295 *  0.0000     2          
   434  O     c      3.9207 *    12.3501 *     1.3722 *  0.0000     2          
   435  O     c     -7.8414 *     0.5881 *   -10.3898 *  0.0000     2          
   436  Li    c     11.7620 *     4.5088 *     3.3326 *  0.0000     2          
   437  Li    c     11.7620 *    -3.3326 *    -4.5088 *  0.0000     2          
   438  Li    c      0.0000      -9.2136 *     9.2136 *  0.0000     1          
   439  Cl    c      1.9603 *     6.4691 *    11.1739 *  0.0000     2          
   440  Li    c      1.9603 *   -11.1739 *    -6.4691 *  0.0000     2          
   441  Li    c      7.8414 *    10.3898 *     1.3722 *  0.0000     2          
   442  Li    c     -7.8414 *    -1.3722 *   -10.3898 *  0.0000     2          
   443  O     c      3.9207 *     8.4295 *     9.2136 *  0.0000     2          
   444  Cl    c      5.8810 *    -9.2136 *     7.2532 *  0.0000     2          
   445  Li    c      5.8810 *    -7.2532 *     9.2136 *  0.0000     2          
   446  O     c      0.0000       0.5881 *    13.1343 *  0.0000     1          
   447  Li    c      0.0000       4.5088 *   -12.3501 *  0.0000     1          
   448  Li    c      0.0000      12.3501 *    -4.5088 *  0.0000     1          
   449  Li    c     11.7620 *     2.5484 *     5.2929 *  0.0000     2          
   450  Li    c     11.7620 *    -5.2929 *    -2.5484 *  0.0000     2          
   451  Cl    c      9.8017 *     2.5484 *    -8.4295 *  0.0000     2          
   452  Li    c      9.8017 *     8.4295 *    -2.5484 *  0.0000     2          
   453  O     c      3.9207 *    12.3501 *    -2.5484 *  0.0000     2          
   454  O     c     -7.8414 *     8.4295 *    -6.4691 *  0.0000     2          
   455  Li    c      0.0000      -1.3722 *    13.1343 *  0.0000     1          
   456  Li    c      0.0000     -13.1343 *     1.3722 *  0.0000     1          
   457  Li    c     -7.8414 *    -5.2929 *     9.2136 *  0.0000     2          
   458  Li    c     -7.8414 *    -9.2136 *     5.2929 *  0.0000     2          
   459  O     c      3.9207 *    -7.2532 *   -10.3898 *  0.0000     2          
   460  Li    c      7.8414 *     2.5484 *   -10.3898 *  0.0000     2          
   461  Li    c      7.8414 *    10.3898 *    -2.5484 *  0.0000     2          
   462  Cl    c      1.9603 *   -13.1343 *    -0.5881 *  0.0000     2          
   463  Li    c      1.9603 *     0.5881 *    13.1343 *  0.0000     2          
   464  Cl    c      9.8017 *    -5.2929 *     7.2532 *  0.0000     2          
   465  Li    c      9.8017 *    -7.2532 *     5.2929 *  0.0000     2          
   466  Li    c      0.0000      -7.2532 *    11.1739 *  0.0000     1          
   467  Li    c      0.0000     -11.1739 *     7.2532 *  0.0000     1          
   468  O     c     11.7620 *    -3.3326 *     5.2929 *  0.0000     2          
   469  Li    c      0.0000       2.5484 *    13.1343 *  0.0000     1          
   470  Li    c      0.0000     -13.1343 *    -2.5484 *  0.0000     1          
   471  O     c      0.0000       8.4295 *   -10.3898 *  0.0000     1          
   472  Li    c      3.9207 *    12.3501 *     3.3326 *  0.0000     2          
   473  Li    c      3.9207 *    -3.3326 *   -12.3501 *  0.0000     2          
   474  Li    c     11.7620 *     4.5088 *    -4.5088 *  0.0000     2          
   475  O     c     11.7620 *     0.5881 *    -6.4691 *  0.0000     2          
   476  O     c      0.0000      12.3501 *     5.2929 *  0.0000     1          
   477  O     c      7.8414 *    -3.3326 *   -10.3898 *  0.0000     2          
   478  Cl    c      9.8017 *    -9.2136 *    -0.5881 *  0.0000     2          
   479  Li    c      9.8017 *     0.5881 *     9.2136 *  0.0000     2          
   480  O     c      3.9207 *   -11.1739 *    -6.4691 *  0.0000     2          
   481  Li    c     11.7620 *    -1.3722 *    -6.4691 *  0.0000     2          
   482  Li    c     11.7620 *     6.4691 *     1.3722 *  0.0000     2          
   483  Cl    c      1.9603 *    10.3898 *    -8.4295 *  0.0000     2          
   484  Li    c      1.9603 *     8.4295 *   -10.3898 *  0.0000     2          
   485  O     c      0.0000      -3.3326 *    13.1343 *  0.0000     1          
   486  Cl    c      1.9603 *    -5.2929 *   -12.3501 *  0.0000     2          
   487  Li    c      1.9603 *    12.3501 *     5.2929 *  0.0000     2          
   488  Li    c     -7.8414 *     8.4295 *     7.2532 *  0.0000     2          
   489  Li    c      7.8414 *    -7.2532 *    -8.4295 *  0.0000     2          
   490  Li    c      3.9207 *    -9.2136 *     9.2136 *  0.0000     2          
   491  Li    c     -7.8414 *   -11.1739 *    -0.5881 *  0.0000     2          
   492  Li    c     11.7620 *     2.5484 *    -6.4691 *  0.0000     2          
   493  Li    c     11.7620 *     6.4691 *    -2.5484 *  0.0000     2          
   494  O     c     11.7620 *     4.5088 *     5.2929 *  0.0000     2          
   495  Li    c      7.8414 *     0.5881 *    11.1739 *  0.0000     2          
   496  Cl    c      1.9603 *   -13.1343 *     3.3326 *  0.0000     2          
   497  Li    c      1.9603 *    -3.3326 *    13.1343 *  0.0000     2          
   498  Cl    c      5.8810 *    -5.2929 *    11.1739 *  0.0000     2          
   499  Li    c      5.8810 *   -11.1739 *     5.2929 *  0.0000     2          
   500  O     c      3.9207 *     0.5881 *    13.1343 *  0.0000     2          
   501  O     c     -7.8414 *   -11.1739 *     1.3722 *  0.0000     2          
   502  Li    c      3.9207 *     4.5088 *   -12.3501 *  0.0000     2          
   503  Li    c      3.9207 *    12.3501 *    -4.5088 *  0.0000     2          
   504  Li    c     -7.8414 *     6.4691 *     9.2136 *  0.0000     2          
   505  Li    c     -7.8414 *    -9.2136 *    -6.4691 *  0.0000     2          
   506  Cl    c      5.8810 *    -1.3722 *   -12.3501 *  0.0000     2          
   507  Li    c      5.8810 *    12.3501 *     1.3722 *  0.0000     2          
   508  Li    c      3.9207 *   -13.1343 *     1.3722 *  0.0000     2          
   509  O     c      7.8414 *     4.5088 *   -10.3898 *  0.0000     2          
   510  Li    c      3.9207 *    -1.3722 *    13.1343 *  0.0000     2          
   511  Cl    c      5.8810 *    -9.2136 *    -8.4295 *  0.0000     2          
   512  Cl    c     13.7224 *    -1.3722 *    -0.5881 *  0.0000     2          
   513  Li    c      5.8810 *     8.4295 *     9.2136 *  0.0000     2          
   514  Li    c     13.7224 *     0.5881 *     1.3722 *  0.0000     2          
   515  Cl    c      9.8017 *     6.4691 *     7.2532 *  0.0000     2          
   516  Li    c      9.8017 *    -7.2532 *    -6.4691 *  0.0000     2          
   517  Li    c     11.7620 *    -7.2532 *    -0.5881 *  0.0000     2          
   518  O     c     11.7620 *    -3.3326 *    -6.4691 *  0.0000     2          
   519  Li    c     11.7620 *     0.5881 *     7.2532 *  0.0000     2          
   520  Cl    c      9.8017 *    -9.2136 *     3.3326 *  0.0000     2          
   521  Li    c      9.8017 *    -3.3326 *     9.2136 *  0.0000     2          
   522  O     c      0.0000       4.5088 *    13.1343 *  0.0000     1          
   523  O     c     11.7620 *    -7.2532 *     1.3722 *  0.0000     2          
   524  O     c     -7.8414 *   -11.1739 *    -2.5484 *  0.0000     2          
   525  Li    c      3.9207 *    -7.2532 *    11.1739 *  0.0000     2          
   526  Li    c      3.9207 *   -11.1739 *     7.2532 *  0.0000     2          
   527  Li    c      0.0000      10.3898 *     9.2136 *  0.0000     1          
   528  Li    c      0.0000      -9.2136 *   -10.3898 *  0.0000     1          
   529  Cl    c      5.8810 *     2.5484 *   -12.3501 *  0.0000     2          
   530  Li    c      5.8810 *    12.3501 *    -2.5484 *  0.0000     2          
   531  Li    c      3.9207 *   -13.1343 *    -2.5484 *  0.0000     2          
   532  O     c      0.0000      12.3501 *    -6.4691 *  0.0000     1          
   533  O     c      3.9207 *     8.4295 *   -10.3898 *  0.0000     2          
   534  Li    c      3.9207 *     2.5484 *    13.1343 *  0.0000     2          
   535  Li    c     11.7620 *    -5.2929 *     5.2929 *  0.0000     2          
   536  Cl    c      5.8810 *    10.3898 *     7.2532 *  0.0000     2          
   537  Cl    c     13.7224 *     2.5484 *    -0.5881 *  0.0000     2          
   538  Li    c      5.8810 *    -7.2532 *   -10.3898 *  0.0000     2          
   539  Li    c     13.7224 *     0.5881 *    -2.5484 *  0.0000     2          
   540  Cl    c      9.8017 *    -5.2929 *    -8.4295 *  0.0000     2          
   541  Li    c      9.8017 *     8.4295 *     5.2929 *  0.0000     2          
   542  O     c      3.9207 *    12.3501 *     5.2929 *  0.0000     2          
   543  Li    c      0.0000       8.4295 *    11.1739 *  0.0000     1          
   544  Li    c      0.0000     -11.1739 *    -8.4295 *  0.0000     1          
   545  Cl    c      1.9603 *   -13.1343 *    -4.5088 *  0.0000     2          
   546  Li    c      1.9603 *     4.5088 *    13.1343 *  0.0000     2          
   547  O     c     11.7620 *    -7.2532 *    -2.5484 *  0.0000     2          
   548  Li    c     -7.8414 *    -5.2929 *   -10.3898 *  0.0000     2          
   549  Li    c     -7.8414 *    -3.3326 *    11.1739 *  0.0000     2          
   550  Li    c     -7.8414 *   -11.1739 *     3.3326 *  0.0000     2          
   551  Li    c      7.8414 *    10.3898 *     5.2929 *  0.0000     2          
   552  Li    c      1.9603 *    12.3501 *    -6.4691 *  0.0000     2          
   553  Cl    c      1.9603 *     6.4691 *   -12.3501 *  0.0000     2          
   554  O     c      3.9207 *    -3.3326 *    13.1343 *  0.0000     2          
   555  O     c      7.8414 *    -7.2532 *     9.2136 *  0.0000     2          
   556  O     c     11.7620 *     4.5088 *    -6.4691 *  0.0000     2          
   557  Li    c      0.0000      -5.2929 *    13.1343 *  0.0000     1          
   558  Li    c      0.0000     -13.1343 *     5.2929 *  0.0000     1          
   559  Cl    c      5.8810 *     6.4691 *    11.1739 *  0.0000     2          
   560  Li    c      5.8810 *   -11.1739 *    -6.4691 *  0.0000     2          
   561  Cl    c      9.8017 *    -9.2136 *    -4.5088 *  0.0000     2          
   562  Cl    c     13.7224 *    -1.3722 *     3.3326 *  0.0000     2          
   563  Li    c      9.8017 *     4.5088 *     9.2136 *  0.0000     2          
   564  Li    c     13.7224 *    -3.3326 *     1.3722 *  0.0000     2          
   565  Li    c     11.7620 *    -3.3326 *     7.2532 *  0.0000     2          
   566  Li    c     11.7620 *    -7.2532 *     3.3326 *  0.0000     2          
   567  Li    c     -7.8414 *     8.4295 *    -8.4295 *  0.0000     2          
   568  Cl    c      9.8017 *    10.3898 *    -0.5881 *  0.0000     2          
   569  Li    c      9.8017 *     0.5881 *   -10.3898 *  0.0000     2          
   570  O     c      0.0000       0.5881 *   -14.3105 *  0.0000     1          
   571  Li    c      0.0000      12.3501 *     7.2532 *  0.0000     1          
   572  Li    c      0.0000      -7.2532 *   -12.3501 *  0.0000     1          
   573  Cl    c     13.7224 *     2.5484 *     3.3326 *  0.0000     2          
   574  Li    c     13.7224 *    -3.3326 *    -2.5484 *  0.0000     2          
   575  Li    c      0.0000      -1.3722 *   -14.3105 *  0.0000     1          
   576  Li    c      0.0000      14.3105 *     1.3722 *  0.0000     1          
   577  Li    c     -7.8414 *   -11.1739 *    -4.5088 *  0.0000     2          
   578  Li    c      7.8414 *     4.5088 *    11.1739 *  0.0000     2          
   579  Cl    c      5.8810 *   -13.1343 *    -0.5881 *  0.0000     2          
   580  Li    c      5.8810 *     0.5881 *    13.1343 *  0.0000     2          
   581  O     c      3.9207 *     4.5088 *    13.1343 *  0.0000     2          
   582  Li    c      3.9207 *    10.3898 *     9.2136 *  0.0000     2          
   583  Li    c      3.9207 *    -9.2136 *   -10.3898 *  0.0000     2          
   584  Li    c     11.7620 *     6.4691 *     5.2929 *  0.0000     2          
   585  Li    c     11.7620 *    -5.2929 *    -6.4691 *  0.0000     2          
   586  Cl    c      1.9603 *    14.3105 *    -0.5881 *  0.0000     2          
   587  Li    c      1.9603 *     0.5881 *   -14.3105 *  0.0000     2          
   588  Cl    c      9.8017 *     6.4691 *    -8.4295 *  0.0000     2          
   589  Li    c      9.8017 *     8.4295 *    -6.4691 *  0.0000     2          
   590  O     c      3.9207 *    12.3501 *    -6.4691 *  0.0000     2          
   591  Li    c     11.7620 *     0.5881 *    -8.4295 *  0.0000     2          
   592  Li    c     11.7620 *     8.4295 *    -0.5881 *  0.0000     2          
   593  O     c      0.0000     -11.1739 *     9.2136 *  0.0000     1          
   594  Cl    c     13.7224 *    -1.3722 *    -4.5088 *  0.0000     2          
   595  Li    c     13.7224 *     4.5088 *     1.3722 *  0.0000     2          
   596  Li    c      0.0000       2.5484 *   -14.3105 *  0.0000     1          
   597  Li    c      0.0000      14.3105 *    -2.5484 *  0.0000     1          
   598  O     c     11.7620 *     8.4295 *     1.3722 *  0.0000     2          
   599  Li    c      3.9207 *     8.4295 *    11.1739 *  0.0000     2          
   600  Li    c      3.9207 *   -11.1739 *    -8.4295 *  0.0000     2          
   601  Li    c     11.7620 *     4.5088 *     7.2532 *  0.0000     2          
   602  Li    c     11.7620 *    -7.2532 *    -4.5088 *  0.0000     2          
   603  Li    c      7.8414 *     6.4691 *   -10.3898 *  0.0000     2          
   604  Li    c      7.8414 *    10.3898 *    -6.4691 *  0.0000     2          
   605  Li    c      5.8810 *     8.4295 *   -10.3898 *  0.0000     2          
   606  Cl    c      5.8810 *    10.3898 *    -8.4295 *  0.0000     2          
   607  Li    c      1.9603 *   -11.1739 *     9.2136 *  0.0000     2          
   608  Cl    c      1.9603 *    -9.2136 *    11.1739 *  0.0000     2          
   609  Li    c     -7.8414 *    12.3501 *    -0.5881 *  0.0000     2          
   610  Li    c      0.0000       6.4691 *    13.1343 *  0.0000     1          
   611  Li    c      0.0000     -13.1343 *    -6.4691 *  0.0000     1          
   612  O     c     -7.8414 *   -11.1739 *     5.2929 *  0.0000     2          
   613  Li    c      7.8414 *     0.5881 *   -12.3501 *  0.0000     2          
   614  Cl    c      5.8810 *    -5.2929 *   -12.3501 *  0.0000     2          
   615  Cl    c     13.7224 *     2.5484 *    -4.5088 *  0.0000     2          
   616  Li    c      5.8810 *    12.3501 *     5.2929 *  0.0000     2          
   617  Li    c      9.8017 *    -3.3326 *   -10.3898 *  0.0000     2          
   618  Li    c     13.7224 *     4.5088 *    -2.5484 *  0.0000     2          
   619  Cl    c      9.8017 *    10.3898 *     3.3326 *  0.0000     2          
   620  O     c      0.0000      -3.3326 *   -14.3105 *  0.0000     1          
   621  O     c     11.7620 *     8.4295 *    -2.5484 *  0.0000     2          
   622  O     c     -7.8414 *    12.3501 *     1.3722 *  0.0000     2          
   623  Li    c      0.0000      10.3898 *   -10.3898 *  0.0000     1          
   624  Li    c      3.9207 *    -5.2929 *    13.1343 *  0.0000     2          
   625  Li    c      3.9207 *   -13.1343 *     5.2929 *  0.0000     2          
   626  Cl    c     13.7224 *    -5.2929 *    -0.5881 *  0.0000     2          
   627  Li    c     13.7224 *     0.5881 *     5.2929 *  0.0000     2          
   628  O     c     -7.8414 *     8.4295 *     9.2136 *  0.0000     2          
   629  Cl    c      5.8810 *   -13.1343 *     3.3326 *  0.0000     2          
   630  Li    c      5.8810 *    -3.3326 *    13.1343 *  0.0000     2          
   631  O     c     11.7620 *    -7.2532 *     5.2929 *  0.0000     2          
   632  Cl    c      1.9603 *    14.3105 *     3.3326 *  0.0000     2          
   633  Li    c      1.9603 *    -3.3326 *   -14.3105 *  0.0000     2          
   634  O     c      3.9207 *     0.5881 *   -14.3105 *  0.0000     2          
   635  O     c     -7.8414 *    12.3501 *    -2.5484 *  0.0000     2          
   636  Li    c      3.9207 *    12.3501 *     7.2532 *  0.0000     2          
   637  Li    c      3.9207 *    -7.2532 *   -12.3501 *  0.0000     2          
   638  Li    c     11.7620 *     8.4295 *     3.3326 *  0.0000     2          
   639  Li    c     11.7620 *    -3.3326 *    -8.4295 *  0.0000     2          
   640  Li    c      3.9207 *    14.3105 *     1.3722 *  0.0000     2          
   641  O     c      7.8414 *    -7.2532 *   -10.3898 *  0.0000     2          
   642  Li    c      3.9207 *    -1.3722 *   -14.3105 *  0.0000     2          
   643  Li    c     11.7620 *     6.4691 *    -6.4691 *  0.0000     2          
   644  Cl    c      9.8017 *    -1.3722 *    11.1739 *  0.0000     2          
   645  Li    c      9.8017 *   -11.1739 *     1.3722 *  0.0000     2          
   646  O     c     11.7620 *     0.5881 *     9.2136 *  0.0000     2          
   647  Li    c      0.0000       8.4295 *   -12.3501 *  0.0000     1          
   648  Li    c      0.0000      12.3501 *    -8.4295 *  0.0000     1          
   649  Cl    c      9.8017 *    10.3898 *    -4.5088 *  0.0000     2          
   650  Li    c      9.8017 *     4.5088 *   -10.3898 *  0.0000     2          
   651  O     c      0.0000       4.5088 *   -14.3105 *  0.0000     1          
   652  O     c      0.0000      -7.2532 *    13.1343 *  0.0000     1          
   653  O     c      3.9207 *   -11.1739 *     9.2136 *  0.0000     2          
   654  Li    c      7.8414 *    -3.3326 *   -12.3501 *  0.0000     2          
   655  Li    c     -7.8414 *    12.3501 *     3.3326 *  0.0000     2          
   656  Li    c     11.7620 *    -1.3722 *     9.2136 *  0.0000     2          
   657  Li    c     11.7620 *    -9.2136 *     1.3722 *  0.0000     2          
   658  Li    c      3.9207 *    14.3105 *    -2.5484 *  0.0000     2          
   659  Li    c      3.9207 *     2.5484 *   -14.3105 *  0.0000     2          
   660  Cl    c      5.8810 *   -13.1343 *    -4.5088 *  0.0000     2          
   661  Li    c      5.8810 *     4.5088 *    13.1343 *  0.0000     2          
   662  Li    c      9.8017 *   -11.1739 *    -2.5484 *  0.0000     2          
   663  Cl    c      9.8017 *     2.5484 *    11.1739 *  0.0000     2          
   664  Cl    c     13.7224 *    -5.2929 *     3.3326 *  0.0000     2          
   665  Li    c     13.7224 *    -3.3326 *     5.2929 *  0.0000     2          
   666  Li    c      0.0000       0.5881 *    15.0946 *  0.0000     1          
   667  Li    c      0.0000     -15.0946 *    -0.5881 *  0.0000     1          
   668  O     c     -7.8414 *   -11.1739 *    -6.4691 *  0.0000     2          
   669  Cl    c      1.9603 *    14.3105 *    -4.5088 *  0.0000     2          
   670  Cl    c      1.9603 *   -13.1343 *     7.2532 *  0.0000     2          
   671  Cl    c      5.8810 *     6.4691 *   -12.3501 *  0.0000     2          
   672  Li    c      1.9603 *     4.5088 *   -14.3105 *  0.0000     2          
   673  Li    c      1.9603 *    -7.2532 *    13.1343 *  0.0000     2          
   674  Li    c      5.8810 *    12.3501 *    -6.4691 *  0.0000     2          
   675  O     c      0.0000     -15.0946 *     1.3722 *  0.0000     1          
   676  Li    c      3.9207 *   -13.1343 *    -6.4691 *  0.0000     2          
   677  Li    c     -3.9207 *     6.4691 *    13.1343 *  0.0000     2          
   678  Li    c     11.7620 *     4.5088 *    -8.4295 *  0.0000     2          
   679  Li    c     11.7620 *     8.4295 *    -4.5088 *  0.0000     2          
   680  Li    c     11.7620 *     2.5484 *     9.2136 *  0.0000     2          
   681  Li    c     11.7620 *    -9.2136 *    -2.5484 *  0.0000     2          
   682  Cl    c     13.7224 *     6.4691 *    -0.5881 *  0.0000     2          
   683  Li    c     13.7224 *     0.5881 *    -6.4691 *  0.0000     2          
   684  O     c      3.9207 *    -3.3326 *   -14.3105 *  0.0000     2          
   685  Li    c      3.9207 *    10.3898 *   -10.3898 *  0.0000     2          
   686  Li    c     -7.8414 *    -9.2136 *     9.2136 *  0.0000     2          
   687  O     c      0.0000     -11.1739 *   -10.3898 *  0.0000     1          
   688  O     c     11.7620 *    -7.2532 *    -6.4691 *  0.0000     2          
   689  Li    c      0.0000      14.3105 *     5.2929 *  0.0000     1          
   690  Li    c      0.0000      -5.2929 *   -14.3105 *  0.0000     1          
   691  Li    c      1.9603 *   -15.0946 *     1.3722 *  0.0000     2          
   692  Cl    c      1.9603 *    -1.3722 *    15.0946 *  0.0000     2          
   693  Cl    c      9.8017 *    -9.2136 *     7.2532 *  0.0000     2          
   694  Li    c      9.8017 *    -7.2532 *     9.2136 *  0.0000     2          
   695  O     c      0.0000     -15.0946 *    -2.5484 *  0.0000     1          
   696  O     c      7.8414 *     0.5881 *    13.1343 *  0.0000     2          
   697  Li    c     -7.8414 *     4.5088 *   -12.3501 *  0.0000     2          
   698  Li    c     -7.8414 *    12.3501 *    -4.5088 *  0.0000     2          
   699  O     c     11.7620 *    -3.3326 *     9.2136 *  0.0000     2          
[...]
   2025 y         15.682702     15.685552     0.002850    Cartesian    0.02
   2025 z        -11.762026    -11.763842    -0.001816    Cartesian    0.02
   2026 x         15.682702     15.685779     0.003077    Cartesian    0.02
   2026 y        -11.762026    -11.764177    -0.002151    Cartesian    0.02
   2026 z          0.000000     -0.000242    -0.000242    Cartesian    0.00
   2027 x          1.960338      1.960338     0.000000    Cartesian    0.00
   2027 y          9.801689      9.802327     0.000638    Cartesian    0.01
   2027 z         17.643040     17.644383     0.001343    Cartesian    0.01
   2028 x         11.762026     11.763684     0.001658    Cartesian    0.01
   2028 y         -0.000000      0.000167     0.000167    Cartesian *******
   2028 z        -15.682702    -15.686308    -0.003606    Cartesian    0.02
   2029 x         13.722364     13.723177     0.000813    Cartesian    0.01
   2029 y          5.881013      5.881096     0.000083    Cartesian    0.00
   2029 z        -13.722364    -13.723032    -0.000667    Cartesian    0.00
   2030 x         13.722364     13.723960     0.001596    Cartesian    0.01
   2030 y         -5.881013     -5.881726    -0.000712    Cartesian    0.01
   2030 z         13.722364     13.723704     0.001340    Cartesian    0.01
   2031 x         -5.881013     -5.881028    -0.000015    Cartesian    0.00
   2031 y         -1.960338     -1.960361    -0.000023    Cartesian    0.00
   2031 z         17.643040     17.644090     0.001050    Cartesian    0.01
   2032 x          1.960338      1.960338     0.000000    Cartesian    0.00
   2032 y        -17.643040    -17.644598    -0.001559    Cartesian    0.01
   2032 z          1.960338      1.960368     0.000030    Cartesian    0.00
   2033 x          7.841351      7.842964     0.001613    Cartesian    0.02
   2033 y         15.682702     15.686659     0.003958    Cartesian    0.03
   2033 z         11.762026     11.765119     0.003093    Cartesian    0.03
   2034 x         19.603377     19.607775     0.004398    Cartesian    0.02
   2034 y          7.841351      7.842924     0.001573    Cartesian    0.02
   2034 z          3.920675      3.921170     0.000494    Cartesian    0.01
   2035 x          5.881013      5.881293     0.000280    Cartesian    0.00
   2035 y         17.643040     17.644867     0.001828    Cartesian    0.01
   2035 z          9.801689      9.802753     0.001064    Cartesian    0.01
   2036 x        -13.722364    -13.723264    -0.000900    Cartesian    0.01
   2036 y         -1.960338     -1.960270     0.000068    Cartesian   -0.00
   2036 z         -9.801689     -9.802160    -0.000471    Cartesian    0.00
   2037 x          3.920675      3.921113     0.000438    Cartesian    0.01
   2037 y        -15.682702    -15.686882    -0.004180    Cartesian    0.03
   2037 z         -7.841351     -7.843819    -0.002468    Cartesian    0.03
   2038 x         11.762026     11.764901     0.002875    Cartesian    0.02
   2038 y          7.841351      7.843479     0.002128    Cartesian    0.03
   2038 z         15.682702     15.686605     0.003903    Cartesian    0.02
   2039 x         19.603377     19.607802     0.004424    Cartesian    0.02
   2039 y         -0.000000      0.000175     0.000175    Cartesian *******
   2039 z          7.841351      7.842778     0.001427    Cartesian    0.02
   2040 x          7.841351      7.842716     0.001365    Cartesian    0.02
   2040 y         19.603377     19.607997     0.004619    Cartesian    0.02
   2040 z          0.000000     -0.000113    -0.000113    Cartesian    0.00
   2041 x         11.762026     11.764008     0.001982    Cartesian    0.02
   2041 y          3.920675      3.921484     0.000808    Cartesian    0.02
   2041 z        -15.682702    -15.686509    -0.003807    Cartesian    0.02
   2042 x          3.920675      3.921075     0.000399    Cartesian    0.01
   2042 y         -0.000000      0.000071     0.000071    Cartesian *******
   2042 z         19.603377     19.607840     0.004462    Cartesian    0.02
   2043 x         15.682702     15.684812     0.002110    Cartesian    0.01
   2043 y         11.762026     11.763829     0.001802    Cartesian    0.02
   2043 z         -7.841351     -7.842806    -0.001455    Cartesian    0.02
   2044 x          5.881013      5.880957    -0.000056    Cartesian   -0.00
   2044 y          5.881013      5.880952    -0.000061    Cartesian   -0.00
   2044 z        -17.643040    -17.643388    -0.000348    Cartesian    0.00
   2045 x          9.801689      9.802416     0.000727    Cartesian    0.01
   2045 y         17.643040     17.644066     0.001026    Cartesian    0.01
   2045 z         -5.881013     -5.881274    -0.000261    Cartesian    0.00
   2046 x         13.722364     13.723584     0.001220    Cartesian    0.01
   2046 y        -13.722364    -13.723884    -0.001519    Cartesian    0.01
   2046 z          1.960338      1.960543     0.000205    Cartesian    0.01
   2047 x          1.960338      1.960338     0.000000    Cartesian    0.00
   2047 y        -17.643040    -17.644296    -0.001256    Cartesian    0.01
   2047 z         -1.960338     -1.960430    -0.000092    Cartesian    0.00
   2048 x         15.682702     15.685493     0.002791    Cartesian    0.02
   2048 y         -3.920675     -3.921524    -0.000848    Cartesian    0.02
   2048 z        -11.762026    -11.764823    -0.002796    Cartesian    0.02
   2049 x          7.841351      7.842921     0.001570    Cartesian    0.02
   2049 y         11.762026     11.765265     0.003239    Cartesian    0.03
   2049 z         15.682702     15.686456     0.003754    Cartesian    0.02
   2050 x         19.603377     19.608061     0.004684    Cartesian    0.02
   2050 y          3.920675      3.921493     0.000817    Cartesian    0.02
   2050 z          7.841351      7.842847     0.001496    Cartesian    0.02
   2051 x         13.722364     13.724242     0.001878    Cartesian    0.01
   2051 y         -9.801689     -9.803112    -0.001424    Cartesian    0.01
   2051 z         -9.801689     -9.803272    -0.001584    Cartesian    0.02
   2052 x          3.920675      3.921272     0.000597    Cartesian    0.02
   2052 y          3.920675      3.921723     0.001047    Cartesian    0.03
   2052 z         19.603377     19.608131     0.004753    Cartesian    0.02
   2053 x         11.762026     11.763953     0.001927    Cartesian    0.02
   2053 y         15.682702     15.685423     0.002721    Cartesian    0.02
   2053 z         -7.841351     -7.843117    -0.001766    Cartesian    0.02
   2054 x         15.682702     15.686288     0.003586    Cartesian    0.02
   2054 y        -11.762026    -11.764443    -0.002416    Cartesian    0.02
   2054 z          3.920675      3.921642     0.000967    Cartesian    0.02
   2055 x          1.960338      1.960338     0.000000    Cartesian    0.00
   2055 y         17.643040     17.644559     0.001519    Cartesian    0.01
   2055 z         -9.801689     -9.802680    -0.000991    Cartesian    0.01
   2056 x          5.881013      5.881066     0.000053    Cartesian    0.00
   2056 y         13.722364     13.723344     0.000980    Cartesian    0.01
   2056 z        -13.722364    -13.723186    -0.000822    Cartesian    0.01
   2057 x         13.722364     13.723736     0.001372    Cartesian    0.01
   2057 y        -13.722364    -13.723645    -0.001281    Cartesian    0.01
   2057 z         -1.960338     -1.960430    -0.000093    Cartesian    0.00
   2058 x          9.801689      9.802718     0.001029    Cartesian    0.01
   2058 y          5.881013      5.881485     0.000472    Cartesian    0.01
   2058 z         17.643040     17.644834     0.001795    Cartesian    0.01
   2059 x         17.643040     17.644588     0.001548    Cartesian    0.01
   2059 y         -9.801689     -9.802569    -0.000880    Cartesian    0.01
   2059 z          1.960338      1.960352     0.000015    Cartesian    0.00
   2060 x         19.603377     19.607464     0.004086    Cartesian    0.02
   2060 y          7.841351      7.842661     0.001310    Cartesian    0.02
   2060 z         -3.920675     -3.921552    -0.000876    Cartesian    0.02
   2061 x          9.801689      9.803458     0.001770    Cartesian    0.02
   2061 y        -13.722364    -13.724523    -0.002159    Cartesian    0.02
   2061 z          9.801689      9.803280     0.001591    Cartesian    0.02
   2062 x        -13.722364    -13.723282    -0.000918    Cartesian    0.01
   2062 y          5.881013      5.880999    -0.000014    Cartesian   -0.00
   2062 z         -9.801689     -9.802243    -0.000555    Cartesian    0.01
   2063 x         13.722364     13.724707     0.002343    Cartesian    0.02
   2063 y         13.722364     13.724775     0.002410    Cartesian    0.02
   2063 z          9.801689      9.803556     0.001868    Cartesian    0.02
   2064 x          3.920675      3.921232     0.000556    Cartesian    0.01
   2064 y         11.762026     11.764495     0.002468    Cartesian    0.02
   2064 z        -15.682702    -15.686888    -0.004186    Cartesian    0.03
   2065 x          5.881013      5.881330     0.000317    Cartesian    0.01
   2065 y          9.801689      9.802790     0.001101    Cartesian    0.01
   2065 z         17.643040     17.644868     0.001828    Cartesian    0.01
   2066 x         17.643040     17.644356     0.001317    Cartesian    0.01
   2066 y         -9.801689     -9.802355    -0.000667    Cartesian    0.01
   2066 z         -1.960338     -1.960291     0.000047    Cartesian   -0.00
   2067 x          7.841351      7.842876     0.001525    Cartesian    0.02
   2067 y         19.603377     19.608487     0.005110    Cartesian    0.03
   2067 z          3.920675      3.921473     0.000798    Cartesian    0.02
   2068 x          7.841351      7.843379     0.002028    Cartesian    0.03
   2068 y        -15.682702    -15.687876    -0.005174    Cartesian    0.03
   2068 z          7.841351      7.843279     0.001928    Cartesian    0.02
   2069 x          5.881013      5.881222     0.000209    Cartesian    0.00
   2069 y        -17.643040    -17.644195    -0.001155    Cartesian    0.01
   2069 z          1.960338      1.960336    -0.000002    Cartesian   -0.00
   2070 x         15.682702     15.686281     0.003579    Cartesian    0.02
   2070 y        -11.762026    -11.764732    -0.002706    Cartesian    0.02
   2070 z         -3.920675     -3.921959    -0.001283    Cartesian    0.03
   2071 x         13.722364     13.724780     0.002416    Cartesian    0.02
   2071 y          9.801689      9.803642     0.001953    Cartesian    0.02
   2071 z         13.722364     13.724853     0.002489    Cartesian    0.02
   2072 x         15.682702     15.685722     0.003020    Cartesian    0.02
   2072 y          7.841351      7.842681     0.001330    Cartesian    0.02
   2072 z        -11.762026    -11.764563    -0.002536    Cartesian    0.02
   2073 x          5.881013      5.881757     0.000744    Cartesian    0.01
   2073 y        -17.643040    -17.644815    -0.001775    Cartesian    0.01
   2073 z         -1.960338     -1.960572    -0.000234    Cartesian    0.01
   2074 x         17.643040     17.645246     0.002206    Cartesian    0.01
   2074 y         -5.881013     -5.882037    -0.001024    Cartesian    0.02
   2074 z          9.801689      9.802823     0.001134    Cartesian    0.01
   2075 x          7.841351      7.843010     0.001659    Cartesian    0.02
   2075 y         -7.841351     -7.843511    -0.002160    Cartesian    0.03
   2075 z        -15.682702    -15.687301    -0.004599    Cartesian    0.03
   2076 x         19.603377     19.608045     0.004667    Cartesian    0.02
   2076 y         -0.000000     -0.000350    -0.000350    Cartesian *******
   2076 z         -7.841351     -7.843169    -0.001818    Cartesian    0.02
   2077 x          1.960338      1.960338     0.000000    Cartesian    0.00
   2077 y         -5.881013     -5.881767    -0.000754    Cartesian    0.01
   2077 z        -17.643040    -17.644425    -0.001386    Cartesian    0.01
   2078 x         -5.881013     -5.882763    -0.001750    Cartesian    0.03
   2078 y         13.722364     13.724812     0.002448    Cartesian    0.02
   2078 z         13.722364     13.724834     0.002470    Cartesian    0.02
   2079 x         21.563715     21.564490     0.000775    Cartesian    0.00
   2079 y          1.960338      1.960205    -0.000132    Cartesian   -0.01
   2079 z          1.960338      1.960239    -0.000099    Cartesian   -0.01
   2080 x          7.841351      7.842953     0.001602    Cartesian    0.02
   2080 y         19.603377     19.608800     0.005422    Cartesian    0.03
   2080 z         -3.920675     -3.921937    -0.001261    Cartesian    0.03
   2081 x         11.762026     11.765193     0.003167    Cartesian    0.03
   2081 y        -15.682702    -15.687908    -0.005206    Cartesian    0.03
   2081 z          0.000000     -0.000499    -0.000499    Cartesian    0.00
   2082 x          5.881013      5.881769     0.000755    Cartesian    0.01
   2082 y         17.643040     17.645163     0.002124    Cartesian    0.01
   2082 z         -9.801689     -9.802887    -0.001198    Cartesian    0.01
   2083 x          3.920675      3.921376     0.000700    Cartesian    0.02
   2083 y         19.603377     19.609101     0.005724    Cartesian    0.03
   2083 z          7.841351      7.843362     0.002011    Cartesian    0.03
   2084 x         11.762026     11.764698     0.002672    Cartesian    0.02
   2084 y         -3.920675     -3.921898    -0.001223    Cartesian    0.03
   2084 z        -15.682702    -15.687271    -0.004569    Cartesian    0.03
   2085 x         19.603377     19.608071     0.004694    Cartesian    0.02
   2085 y          3.920675      3.921518     0.000842    Cartesian    0.02
   2085 z         -7.841351     -7.843205    -0.001854    Cartesian    0.02
   2086 x          1.960338      1.960338     0.000000    Cartesian    0.00
   2086 y        -17.643040    -17.644853    -0.001814    Cartesian    0.01
   2086 z          5.881013      5.881840     0.000826    Cartesian    0.01
   2087 x         -5.881013     -5.882600    -0.001587    Cartesian    0.03
   2087 y         -9.801689     -9.803290    -0.001601    Cartesian    0.02
   2087 z        -13.722364    -13.724469    -0.002105    Cartesian    0.02
   2088 x         21.563715     21.565030     0.001315    Cartesian    0.01
   2088 y          1.960338      1.960322    -0.000016    Cartesian   -0.00
   2088 z         -1.960338     -1.960820    -0.000483    Cartesian    0.02
   2089 x          7.841351      7.842805     0.001454    Cartesian    0.02
   2089 y         15.682702     15.686421     0.003719    Cartesian    0.02
   2089 z        -11.762026    -11.764881    -0.002855    Cartesian    0.02
   2090 x         19.603377     19.608891     0.005513    Cartesian    0.03
   2090 y         -3.920675     -3.921908    -0.001232    Cartesian    0.03
   2090 z          7.841351      7.843079     0.001728    Cartesian    0.02
   2091 x         11.762026     11.765730     0.003704    Cartesian    0.03
   2091 y        -11.762026    -11.766251    -0.004224    Cartesian    0.04
   2091 z         11.762026     11.765685     0.003658    Cartesian    0.03
   2092 x         15.682702     15.686643     0.003941    Cartesian    0.03
   2092 y         15.682702     15.687624     0.004922    Cartesian    0.03
   2092 z          0.000000     -0.000187    -0.000187    Cartesian    0.00
   2093 x          3.920675      3.921404     0.000729    Cartesian    0.02
   2093 y         -3.920675     -3.921911    -0.001236    Cartesian    0.03
   2093 z         19.603377     19.609371     0.005994    Cartesian    0.03
   2094 x         13.722364     13.724521     0.002157    Cartesian    0.02
   2094 y        -13.722364    -13.724702    -0.002338    Cartesian    0.02
   2094 z          5.881013      5.882082     0.001069    Cartesian    0.02
   2095 x         -5.881013     -5.882031    -0.001018    Cartesian    0.02
   2095 y          1.960338      1.960962     0.000624    Cartesian    0.03
   2095 z        -17.643040    -17.645207    -0.002168    Cartesian    0.01
   2096 x         13.722364     13.724289     0.001925    Cartesian    0.01
   2096 y         -5.881013     -5.882262    -0.001249    Cartesian    0.02
   2096 z        -13.722364    -13.724458    -0.002094    Cartesian    0.02
   2097 x          7.841351      7.843237     0.001886    Cartesian    0.02
   2097 y        -15.682702    -15.687786    -0.005084    Cartesian    0.03
   2097 z         -7.841351     -7.844233    -0.002882    Cartesian    0.04
   2098 x         19.603377     19.608854     0.005477    Cartesian    0.03
   2098 y         -7.841351     -7.843316    -0.001965    Cartesian    0.03
   2098 z          0.000000     -0.000274    -0.000274    Cartesian    0.00
   2099 x          9.801689      9.803332     0.001643    Cartesian    0.02
   2099 y        -13.722364    -13.724534    -0.002169    Cartesian    0.02
   2099 z         -9.801689     -9.803574    -0.001885    Cartesian    0.02
   2100 x         21.563715     21.566070     0.002355    Cartesian    0.01
   2100 y         -1.960338     -1.960928    -0.000590    Cartesian    0.03
   2100 z          1.960338      1.960927     0.000590    Cartesian    0.03
   2101 x          7.841351      7.843154     0.001803    Cartesian    0.02
   2101 y         -0.000000     -0.000044    -0.000044    Cartesian *******
   2101 z         19.603377     19.609481     0.006103    Cartesian    0.03
   2102 x         11.762026     11.765418     0.003392    Cartesian    0.03
   2102 y        -15.682702    -15.688181    -0.005479    Cartesian    0.03
   2102 z          3.920675      3.921575     0.000900    Cartesian    0.02
   2103 x         15.682702     15.687386     0.004684    Cartesian    0.03
   2103 y         -7.841351     -7.843716    -0.002365    Cartesian    0.03
   2103 z         11.762026     11.765050     0.003023    Cartesian    0.03
   2104 x         13.722364     13.724097     0.001733    Cartesian    0.01
   2104 y         13.722364     13.724140     0.001776    Cartesian    0.01
   2104 z         -9.801689     -9.803336    -0.001647    Cartesian    0.02
   2105 x         17.643040     17.645555     0.002515    Cartesian    0.01
   2105 y         -9.801689     -9.803381    -0.001693    Cartesian    0.02
   2105 z          5.881013      5.882136     0.001122    Cartesian    0.02
--------------------------------------------------------------------------------


  Time to end of optimisation  =      393.7270 seconds


  Peak dynamic memory used =    1746.25 MB 


  Timing analysis for GULP :

--------------------------------------------------------------------------------
  Task / Subroutine                                          Time (Seconds)
--------------------------------------------------------------------------------
  Calculation of reciprocal space energy and derivatives          0.0005
  Calculation of reciprocal space energy using symmetry           0.0004
  Calculation of real space energy and derivatives                0.0028
  Calculation of real space energy using symmetry                 0.0046
  Calculation for region 1 energy and derivatives (2-b)         166.9256
  Calculation for region 2a energy                               53.1911
  Calculation for region 2b energy                                0.0029
  Calculation and manipulation of Hessian matrix                  1.8813
  Calculation of matrix inversion                               169.1864
  Symmetry generation of equivalent positions                     0.0022
--------------------------------------------------------------------------------
  Total CPU time                                                393.7271
--------------------------------------------------------------------------------


  Dump file written as Li3OCl.grs


  Job Finished at 14:47.00 23rd October    2020                               

