********************************************************************************
*                       GENERAL UTILITY LATTICE PROGRAM                        *
*                                 Julian Gale                                  *
*                       Curtin Institute for Computation                       *
*                    School of Molecular and Life Sciences                     *
*                    Curtin University, Western Australia                      *
********************************************************************************
* Version = 5.2.0 * Last modified =  10th September 2020                       *
********************************************************************************
*  optimise     - perform optimisation run                                     *
*  conp         - constant pressure calculation                                *
*  property     - calculate properties for final geometry                      *
*  defect       - perform defect calculation after bulk run                    *
*  compare      - compare initial and final structures                         *
********************************************************************************

  Job Started  at 14:47.01 23rd October    2020                               

  Number of CPUs =     1


  Total number of configurations input =      1

********************************************************************************
*  Input for Configuration =   1                                               *
********************************************************************************

  Formula = ClOLi3                                                      

  Number of irreducible atoms/shells =       5


  Total number atoms/shells =       7

  Dimensionality = 3               :  Bulk   


  Symmetry :

  Crystal family                   :  Cubic       
  Crystal class  (Groth - 1921)    :  Cubic Hexakisoctahedral              

  Space group (centrosymmetric)    :  P M 3 M         

  Patterson group                  :  P m -3 m 

  Cartesian lattice vectors (Angstroms) :

        3.918873    0.000000    0.000000
        0.000000    3.918873    0.000000
        0.000000    0.000000    3.918873

  Cell parameters (Angstroms/Degrees):

  a =       3.9189    alpha =  90.0000
  b =       3.9189    beta  =  90.0000
  c =       3.9189    gamma =  90.0000

  Initial cell volume =          60.184349 Angs**3

  Temperature of configuration =   0.00     K 

  Pressure of configuration =         0.000 GPa 

  Fractional coordinates of asymmetric unit :

--------------------------------------------------------------------------------
   No.  Atomic       x           y          z         Charge      Occupancy
        Label      (Frac)      (Frac)     (Frac)        (e)         (Frac)  
--------------------------------------------------------------------------------
      1 Cl    c    0.000000    0.000000    0.000000     1.48500    1.000000    
      2 O     c    0.500000    0.500000    0.500000     0.18300    1.000000    
      3 Li    c    0.500000    0.500000    0.000000     1.00000    1.000000    
      4 Cl    s    0.000000    0.000000    0.000000    -2.48500    1.000000    
      5 O     s    0.500000    0.500000    0.500000    -2.18300    1.000000    
--------------------------------------------------------------------------------


  Constraints : 

--------------------------------------------------------------------------------
  Constraint no.      Unconstrained     Constrained    Coefficient    Offset
                         Variable         Variable
--------------------------------------------------------------------------------
           1              Strain 1        Strain 2       1.00000      0.0000
           2              Strain 1        Strain 3       1.00000      0.0000
--------------------------------------------------------------------------------


********************************************************************************
*  General input information                                                   *
********************************************************************************

  Species output for all configurations : 

--------------------------------------------------------------------------------
  Species    Type    Atomic    Atomic    Charge       Radii (Angs)     Library
                     Number     Mass       (e)     Cova   Ionic  VDW   Symbol
--------------------------------------------------------------------------------
    Li       Core        3       6.94   1.000000   0.680  0.000  1.800          
    O        Core        8      16.00   0.183000   0.730  0.000  1.360          
    O        Shell       8       0.00  -2.183000   0.730  0.000  1.360          
    Cl       Core       17      35.45   1.485000   0.990  0.000  1.650          
    Cl       Shell      17       0.00  -2.485000   0.990  0.000  1.650          
--------------------------------------------------------------------------------


  Lattice summation method               =    Ewald          (3-D)
                                         =    Parry          (2-D)
                                         =    Saunders et al (1-D)
  Accuracy factor for lattice sums       =   12.000


  Analytic derivatives to be used

  Time limit = Infinity

  Maximum range for interatomic potentials =    100000.000000 Angstroms

  General interatomic potentials :

--------------------------------------------------------------------------------
Atom  Types   Potential      Parameter       Value         Units   Cutoffs(Ang)
  1     2                                                            Min /  Max 
--------------------------------------------------------------------------------
O    c O    s Spring (c-s)  Spring k 2       593.72000    eV*Ang^-2 0.000  0.800
                            Spring k 4       0.0000000    eV*Ang^-4 
--------------------------------------------------------------------------------
Cl   c Cl   s Spring (c-s)  Spring k 2       29.380000    eV*Ang^-2 0.000  0.800
                            Spring k 4       0.0000000    eV*Ang^-4 
--------------------------------------------------------------------------------
Li   c Li   c Buckingham    Buckingham A     360.53000    eV        0.000 12.000
                            Buckingham rho  0.16100000    Ang       
                            Buckingham C     0.0000000    eV*Ang^6  
--------------------------------------------------------------------------------
Li   c O    s Buckingham    Buckingham A     292.30000    eV        0.000 12.000
                            Buckingham rho  0.34720000    Ang       
                            Buckingham C     0.0000000    eV*Ang^6  
--------------------------------------------------------------------------------
Li   c Cl   s Buckingham    Buckingham A     421.04000    eV        0.000 12.000
                            Buckingham rho  0.33400000    Ang       
                            Buckingham C     0.0000000    eV*Ang^6  
--------------------------------------------------------------------------------
O    s O    s Buckingham    Buckingham A     22764.300    eV        0.000 12.000
                            Buckingham rho  0.14900000    Ang       
                            Buckingham C     13.190000    eV*Ang^6  
--------------------------------------------------------------------------------
O    s Cl   s Buckingham    Buckingham A     8286.9100    eV        0.000 12.000
                            Buckingham rho  0.25900000    Ang       
                            Buckingham C     62.200000    eV*Ang^6  
--------------------------------------------------------------------------------
Cl   s Cl   s Buckingham    Buckingham A     1227.2000    eV        0.000 12.000
                            Buckingham rho  0.32100000    Ang       
                            Buckingham C     14.530000    eV*Ang^6  
--------------------------------------------------------------------------------

********************************************************************************
*  Output for configuration   1                                                *
********************************************************************************


  Components of energy : 

--------------------------------------------------------------------------------
  Interatomic potentials     =           7.26836263 eV    
  Monopole - monopole (real) =         -11.53475722 eV    
  Monopole - monopole (recip)=         -33.94580548 eV    
  Monopole - monopole (total)=         -45.48056271 eV    
--------------------------------------------------------------------------------
  Total lattice energy       =         -38.21220008 eV    
--------------------------------------------------------------------------------
  Total lattice energy       =           -3686.8932 kJ/(mole unit cells)
--------------------------------------------------------------------------------


  Number of variables =        1

  Maximum number of calculations  =          1000
  Maximum Hessian update interval =            10
  Maximum step size               =   1.000000000
  Maximum parameter tolerance     =   0.000010000
  Maximum function  tolerance     =   0.000010000
  Maximum gradient  tolerance     =   0.001000000
  Maximum gradient  component     =   0.010000000

  Symmetry constrained optimisation

  Symmetry used for second derivatives

  Cell parameters to be optimised using strains

  Newton-Raphson optimiser to be used

  BFGS hessian update to be used

  Lower half triangular hessian to be used

  Start of bulk optimisation :

  Cycle:      0 Energy:       -38.212200  Gnorm:      0.095699  CPU:    0.007
  ** Hessian calculated **
  Cycle:      1 Energy:       -38.212222  Gnorm:      0.000105  CPU:    0.008


  **** Optimisation achieved ****


  Final energy =     -38.21222207 eV
  Final Gnorm  =       0.00000016

  Components of energy : 

--------------------------------------------------------------------------------
  Interatomic potentials     =           7.24743141 eV    
  Monopole - monopole (real) =         -11.52945423 eV    
  Monopole - monopole (recip)=         -33.93019924 eV    
  Monopole - monopole (total)=         -45.45965348 eV    
--------------------------------------------------------------------------------
  Total lattice energy       =         -38.21222207 eV    
--------------------------------------------------------------------------------
  Total lattice energy       =           -3686.8953 kJ/(mole unit cells)
--------------------------------------------------------------------------------

  Final asymmetric unit coordinates :

--------------------------------------------------------------------------------
   No.  Atomic        x           y           z         Radius
        Label       (Frac)      (Frac)      (Frac)       (Angs) 
--------------------------------------------------------------------------------
     1  Cl    c     0.000000    0.000000    0.000000    0.000000
     2  O     c     0.500000    0.500000    0.500000    0.000000
     3  Li    c     0.500000    0.500000    0.000000    0.000000
     4  Cl    s     0.000000    0.000000    0.000000    0.000000
     5  O     s     0.500000    0.500000    0.500000    0.000000
--------------------------------------------------------------------------------

  Final Cartesian lattice vectors (Angstroms) :

        3.920675    0.000000    0.000000
        0.000000    3.920675    0.000000
        0.000000    0.000000    3.920675


  Final cell parameters and derivatives :

--------------------------------------------------------------------------------
       a            3.920675 Angstrom     dE/de1(xx)    -0.000000 eV/strain
       b            3.920675 Angstrom     dE/de2(yy)     0.000000 eV/strain
       c            3.920675 Angstrom     dE/de3(zz)     0.000000 eV/strain
       alpha       90.000000 Degrees      dE/de4(yz)     0.000000 eV/strain
       beta        90.000000 Degrees      dE/de5(xz)     0.000000 eV/strain
       gamma       90.000000 Degrees      dE/de6(xy)     0.000000 eV/strain
--------------------------------------------------------------------------------

  Primitive cell volume =            60.267433 Angs**3

  Density of cell =      1.991276 g/cm**3

  Non-primitive cell volume =            60.267433 Angs**3


  Final internal derivatives :

--------------------------------------------------------------------------------
   No.  Atomic          a             b             c           Radius
        Label          (eV)          (eV)          (eV)        (eV/Angs)
--------------------------------------------------------------------------------
      1 Cl    c       0.000000      0.000000      0.000000      0.000000
      2 O     c       0.000000      0.000000      0.000000      0.000000
      3 Li    c       0.000000      0.000000      0.000000      0.000000
      4 Cl    s       0.000000      0.000000      0.000000      0.000000
      5 O     s       0.000000      0.000000      0.000000      0.000000
--------------------------------------------------------------------------------
  Maximum abs         0.000000      0.000000      0.000000      0.000000
--------------------------------------------------------------------------------

  Comparison of initial and final structures : 

--------------------------------------------------------------------------------
  Parameter   Initial value   Final value   Difference    Units      Percent
--------------------------------------------------------------------------------
    Volume        60.184349     60.267433     0.083084    Angs**3      0.14
    a              3.918873      3.920675     0.001802    Angstroms    0.05
    b              3.918873      3.920675     0.001802    Angstroms    0.05
    c              3.918873      3.920675     0.001802    Angstroms    0.05
    alpha         90.000000     90.000000     0.000000    Degrees      0.00
    beta          90.000000     90.000000     0.000000    Degrees      0.00
    gamma         90.000000     90.000000     0.000000    Degrees      0.00
      1 x          0.000000      0.000000     0.000000    Fractional   0.00
      1 y          0.000000      0.000000     0.000000    Fractional   0.00
      1 z          0.000000      0.000000     0.000000    Fractional   0.00
      2 x          0.500000      0.500000     0.000000    Fractional   0.00
      2 y          0.500000      0.500000     0.000000    Fractional   0.00
      2 z          0.500000      0.500000     0.000000    Fractional   0.00
      3 x          0.500000      0.500000     0.000000    Fractional   0.00
      3 y          0.500000      0.500000     0.000000    Fractional   0.00
      3 z          0.000000      0.000000     0.000000    Fractional   0.00
      4 x          0.000000      0.000000     0.000000    Fractional   0.00
      4 y          0.000000      0.000000     0.000000    Fractional   0.00
      4 z          0.000000      0.000000     0.000000    Fractional   0.00
      5 x          0.500000      0.500000     0.000000    Fractional   0.00
      5 y          0.500000      0.500000     0.000000    Fractional   0.00
      5 z          0.500000      0.500000     0.000000    Fractional   0.00
--------------------------------------------------------------------------------


  Born effective charge tensors : 

-------------------------------------------------------------------------------
  Atom             x           y             z
-------------------------------------------------------------------------------
    1 Cl    x      -0.9489     -0.0000     -0.0000
            y      -0.0000     -0.9489     -0.0000
            z      -0.0000     -0.0000     -0.9489
-------------------------------------------------------------------------------
    2 O     x      -2.4688      0.0000      0.0000
            y       0.0000     -2.4688      0.0000
            z       0.0000      0.0000     -2.4688
-------------------------------------------------------------------------------
    3 Li    x       1.3129      0.0000     -0.0000
            y       0.0000      1.3129      0.0000
            z      -0.0000      0.0000      0.7919
-------------------------------------------------------------------------------




  Elastic Constant Matrix: (Units=GPa)

-------------------------------------------------------------------------------
  Indices      1         2         3         4         5         6    
-------------------------------------------------------------------------------
       1     94.3368   44.9178   44.9178    0.0000   -0.0000    0.0000
       2     44.9178   94.3368   44.9178   -0.0000    0.0000   -0.0000
       3     44.9178   44.9178   94.3368    0.0000   -0.0000    0.0000
       4      0.0000   -0.0000    0.0000   44.9178   -0.0000    0.0000
       5     -0.0000    0.0000   -0.0000   -0.0000   44.9178    0.0000
       6      0.0000   -0.0000    0.0000    0.0000    0.0000   44.9178
-------------------------------------------------------------------------------


  Elastic Compliance Matrix: (Units=1/GPa)

-------------------------------------------------------------------------------
  Indices      1         2         3         4         5         6    
-------------------------------------------------------------------------------
       1    0.015300 -0.004935 -0.004935 -0.000000  0.000000 -0.000000
       2   -0.004935  0.015300 -0.004935  0.000000 -0.000000  0.000000
       3   -0.004935 -0.004935  0.015300 -0.000000  0.000000 -0.000000
       4   -0.000000  0.000000 -0.000000  0.022263  0.000000 -0.000000
       5    0.000000 -0.000000  0.000000  0.000000  0.022263 -0.000000
       6   -0.000000  0.000000 -0.000000 -0.000000 -0.000000  0.022263
-------------------------------------------------------------------------------

  Mechanical properties :

-------------------------------------------------------------------------------
  Convention :                    Reuss         Voigt         Hill
-------------------------------------------------------------------------------
  Bulk  Modulus (GPa)     =      61.39080      61.39080      61.39080
  Shear Modulus (GPa)     =      33.84570      36.83448      35.34009
-------------------------------------------------------------------------------
  Velocity S-wave (km/s)  =       4.12274       4.30092       4.21277
  Velocity P-wave (km/s)  =       7.31386       7.44942       7.38195
-------------------------------------------------------------------------------
  Compressibility (1/GPa) =    0.01628909
-------------------------------------------------------------------------------
  Stress axis :                     x             y             z
-------------------------------------------------------------------------------
  Youngs Moduli (GPa)     =      65.35947      65.35947      65.35947
-------------------------------------------------------------------------------
  Poissons Ratio (x)      =                     0.32256       0.32256
  Poissons Ratio (y)      =       0.32256                     0.32256
  Poissons Ratio (z)      =       0.32256       0.32256
-------------------------------------------------------------------------------


  Piezoelectric Strain Matrix: (Units=C/m**2)

-------------------------------------------------------------------------------
  Indices      1         2         3         4         5         6    
-------------------------------------------------------------------------------
       x    -0.00000   0.00000   0.00000  -0.00000  -0.00000   0.00000
       y    -0.00000   0.00000   0.00000  -0.00000  -0.00000  -0.00000
       z     0.00000   0.00000   0.00000   0.00000  -0.00000  -0.00000
-------------------------------------------------------------------------------


  Piezoelectric Stress Matrix: (Units=10**-11 C/N)

-------------------------------------------------------------------------------
  Indices      1         2         3         4         5         6    
-------------------------------------------------------------------------------
       x    -0.00000   0.00000   0.00000  -0.00000  -0.00000   0.00000
       y    -0.00000   0.00000   0.00000  -0.00000  -0.00000  -0.00000
       z    -0.00000  -0.00000   0.00000   0.00000  -0.00000  -0.00000
-------------------------------------------------------------------------------


  Static dielectric constant tensor : 

-------------------------------------------------------------------------------
              x         y         z
-------------------------------------------------------------------------------
       x    12.11703   0.00000  -0.00000
       y     0.00000  12.11703  -0.00000
       z    -0.00000  -0.00000  12.11703
--------------------------------------------------------------------------------

  High frequency dielectric constant tensor : 

-------------------------------------------------------------------------------
              x         y         z
-------------------------------------------------------------------------------
       x     1.74104   0.00000   0.00000
       y     0.00000   1.74104   0.00000
       z     0.00000   0.00000   1.74104
-------------------------------------------------------------------------------

  Static refractive indices : 

-------------------------------------------------------------------------------
    1 =    3.48095      2 =    3.48095      3 =    3.48095
-------------------------------------------------------------------------------

  High frequency refractive indices : 

-------------------------------------------------------------------------------
    1 =    1.31948      2 =    1.31948      3 =    1.31948
-------------------------------------------------------------------------------


  Time to end of optimisation =       0.0114 seconds

********************************************************************************
*  Defect calculation for configuration   1 :                                  *
********************************************************************************

  Total number of defects =      3

  Total charge on defect  =  -1.00

  Defect centre is at   0.5000   0.3750   0.1250  Frac

  Region 1 radius =  20.0000      Number of ions =   3875

  Number of symmetry inequivalent region 1 ions  =   2099

  Region 2 radius =  24.0000      Number of ions =   2877

  Number of symmetry inequivalent region 2a ions =   1511

  Region 2a mode = 4 : screened electrostatics due to region 1 
                       neglect correction to region 1 forces from 2a
                       region 2a displacements based on defects only

  Region 2a ions will only interact with defects in region 1

  Vacancies:

--------------------------------------------------------------------------------
    Specification type     Symbol/Number         x          y          z
--------------------------------------------------------------------------------
    Fractional                               0.500000   0.500000   0.000000
    Fractional                               0.500000   0.000000   0.500000
--------------------------------------------------------------------------------

  Interstitials:

--------------------------------------------------------------------------------
    Specification type     Symbol/Number         x          y          z
--------------------------------------------------------------------------------
    Atom/Fractional         Li               0.500000   0.375000   0.125000
--------------------------------------------------------------------------------


  Symmetry reduced region 1 (Relative to defect centre) :

--------------------------------------------------------------------------------
   No.   Atomic       x            y             z       Radius  Multiplicity   
         Label      (Angs)       (Angs)        (Angs)    (Angs)     
--------------------------------------------------------------------------------
     1  Li    c      0.0000       0.0000       0.0000    0.0000     1    Defect
     2  O     c      0.0000       0.4901 *     1.4703 *  0.0000     1          
     3  O     c      0.0000       0.4901 *    -2.4504 *  0.0000     1          
     4  Li    c      1.9603 *     0.4901 *     1.4703 *  0.0000     2          
     5  Cl    c      1.9603 *    -1.4703 *    -0.4901 *  0.0000     2          
     6  Li    c      0.0000       2.4504 *     1.4703 *  0.0000     1          
     7  Li    c      0.0000      -1.4703 *    -2.4504 *  0.0000     1          
     8  Cl    c      1.9603 *     2.4504 *    -0.4901 *  0.0000     2          
     9  Li    c      1.9603 *     0.4901 *    -2.4504 *  0.0000     2          
    10  Li    c      0.0000       2.4504 *    -2.4504 *  0.0000     1          
    11  Li    c      0.0000       0.4901 *     3.4306 *  0.0000     1          
    12  Li    c      0.0000      -3.4306 *    -0.4901 *  0.0000     1          
    13  O     c      0.0000      -3.4306 *     1.4703 *  0.0000     1          
    14  Li    c     -3.9207 *     0.4901 *    -0.4901 *  0.0000     2          
    15  O     c     -3.9207 *     0.4901 *     1.4703 *  0.0000     2          
    16  Cl    c      1.9603 *    -1.4703 *     3.4306 *  0.0000     2          
    17  O     c      0.0000      -3.4306 *    -2.4504 *  0.0000     1          
    18  Li    c      1.9603 *    -3.4306 *     1.4703 *  0.0000     2          
    19  Li    c      0.0000       0.4901 *    -4.4108 *  0.0000     1          
    20  Li    c      0.0000       4.4108 *    -0.4901 *  0.0000     1          
    21  Li    c     -3.9207 *    -1.4703 *     1.4703 *  0.0000     2          
    22  O     c      0.0000       4.4108 *     1.4703 *  0.0000     1          
    23  O     c     -3.9207 *     0.4901 *    -2.4504 *  0.0000     2          
    24  Cl    c      1.9603 *     2.4504 *     3.4306 *  0.0000     2          
    25  Li    c      1.9603 *    -3.4306 *    -2.4504 *  0.0000     2          
    26  Li    c     -3.9207 *     2.4504 *     1.4703 *  0.0000     2          
    27  Li    c     -3.9207 *    -1.4703 *    -2.4504 *  0.0000     2          
    28  Li    c      0.0000      -3.4306 *     3.4306 *  0.0000     1          
    29  O     c      0.0000       4.4108 *    -2.4504 *  0.0000     1          
    30  Li    c      1.9603 *     4.4108 *     1.4703 *  0.0000     2          
    31  Cl    c      1.9603 *    -1.4703 *    -4.4108 *  0.0000     2          
    32  Li    c     -3.9207 *     2.4504 *    -2.4504 *  0.0000     2          
    33  Li    c     -3.9207 *     0.4901 *     3.4306 *  0.0000     2          
    34  Li    c     -3.9207 *    -3.4306 *    -0.4901 *  0.0000     2          
    35  Li    c      1.9603 *     4.4108 *    -2.4504 *  0.0000     2          
    36  Cl    c      1.9603 *     2.4504 *    -4.4108 *  0.0000     2          
    37  O     c      0.0000       0.4901 *     5.3909 *  0.0000     1          
    38  O     c     -3.9207 *    -3.4306 *     1.4703 *  0.0000     2          
    39  Li    c      0.0000       4.4108 *     3.4306 *  0.0000     1          
    40  Li    c      0.0000      -3.4306 *    -4.4108 *  0.0000     1          
    41  Li    c      0.0000      -1.4703 *     5.3909 *  0.0000     1          
    42  Li    c      0.0000      -5.3909 *     1.4703 *  0.0000     1          
    43  O     c     -3.9207 *    -3.4306 *    -2.4504 *  0.0000     2          
    44  Cl    c      1.9603 *    -5.3909 *    -0.4901 *  0.0000     2          
    45  Li    c      1.9603 *     0.4901 *     5.3909 *  0.0000     2          
    46  Li    c     -3.9207 *     0.4901 *    -4.4108 *  0.0000     2          
    47  Li    c      3.9207 *     4.4108 *    -0.4901 *  0.0000     2          
    48  Li    c      0.0000       2.4504 *     5.3909 *  0.0000     1          
    49  Li    c      0.0000      -5.3909 *    -2.4504 *  0.0000     1          
    50  O     c      3.9207 *     4.4108 *     1.4703 *  0.0000     2          
    51  Cl    c      5.8810 *    -1.4703 *    -0.4901 *  0.0000     2          
    52  Li    c      5.8810 *     0.4901 *     1.4703 *  0.0000     2          
    53  Li    c      0.0000       4.4108 *    -4.4108 *  0.0000     1          
    54  Li    c     -3.9207 *    -3.4306 *     3.4306 *  0.0000     2          
    55  O     c      0.0000       0.4901 *    -6.3711 *  0.0000     1          
    56  O     c      3.9207 *     4.4108 *    -2.4504 *  0.0000     2          
    57  Cl    c      5.8810 *     2.4504 *    -0.4901 *  0.0000     2          
    58  Li    c      5.8810 *     0.4901 *    -2.4504 *  0.0000     2          
    59  O     c      0.0000      -3.4306 *     5.3909 *  0.0000     1          
    60  Li    c      0.0000       6.3711 *     1.4703 *  0.0000     1          
    61  Li    c      0.0000      -1.4703 *    -6.3711 *  0.0000     1          
    62  Cl    c      1.9603 *     6.3711 *    -0.4901 *  0.0000     2          
    63  Li    c      1.9603 *     0.4901 *    -6.3711 *  0.0000     2          
    64  Cl    c      1.9603 *    -5.3909 *     3.4306 *  0.0000     2          
    65  O     c      3.9207 *     0.4901 *     5.3909 *  0.0000     2          
    66  Li    c      1.9603 *    -3.4306 *     5.3909 *  0.0000     2          
    67  Li    c      0.0000       2.4504 *    -6.3711 *  0.0000     1          
    68  Li    c      0.0000       6.3711 *    -2.4504 *  0.0000     1          
    69  Li    c     -3.9207 *    -3.4306 *    -4.4108 *  0.0000     2          
    70  Li    c      3.9207 *     4.4108 *     3.4306 *  0.0000     2          
    71  Li    c     -3.9207 *    -5.3909 *     1.4703 *  0.0000     2          
    72  Li    c      3.9207 *    -1.4703 *     5.3909 *  0.0000     2          
    73  Cl    c      5.8810 *    -1.4703 *     3.4306 *  0.0000     2          
    74  O     c      0.0000       4.4108 *     5.3909 *  0.0000     1          
    75  Li    c      5.8810 *    -3.4306 *     1.4703 *  0.0000     2          
    76  Li    c     -3.9207 *     2.4504 *     5.3909 *  0.0000     2          
    77  Li    c     -3.9207 *    -5.3909 *    -2.4504 *  0.0000     2          
    78  O     c      0.0000      -3.4306 *    -6.3711 *  0.0000     1          
    79  Cl    c      5.8810 *     2.4504 *     3.4306 *  0.0000     2          
    80  Li    c      1.9603 *     4.4108 *     5.3909 *  0.0000     2          
    81  Li    c      5.8810 *    -3.4306 *    -2.4504 *  0.0000     2          
    82  Cl    c      1.9603 *    -5.3909 *    -4.4108 *  0.0000     2          
    83  Li    c      3.9207 *     4.4108 *    -4.4108 *  0.0000     2          
    84  Li    c      0.0000       0.4901 *     7.3513 *  0.0000     1          
    85  Li    c      0.0000      -7.3513 *    -0.4901 *  0.0000     1          
    86  Cl    c      1.9603 *     6.3711 *     3.4306 *  0.0000     2          
    87  O     c      3.9207 *     0.4901 *    -6.3711 *  0.0000     2          
    88  Li    c      1.9603 *    -3.4306 *    -6.3711 *  0.0000     2          
    89  Li    c      5.8810 *     4.4108 *     1.4703 *  0.0000     2          
    90  Cl    c      5.8810 *    -1.4703 *    -4.4108 *  0.0000     2          
    91  O     c     -3.9207 *    -3.4306 *     5.3909 *  0.0000     2          
    92  O     c      0.0000      -7.3513 *     1.4703 *  0.0000     1          
    93  Li    c     -3.9207 *     6.3711 *     1.4703 *  0.0000     2          
    94  Li    c      3.9207 *    -1.4703 *    -6.3711 *  0.0000     2          
    95  Li    c      0.0000      -5.3909 *     5.3909 *  0.0000     1          
    96  O     c      0.0000       4.4108 *    -6.3711 *  0.0000     1          
    97  Li    c      5.8810 *     4.4108 *    -2.4504 *  0.0000     2          
    98  Cl    c      1.9603 *    -1.4703 *     7.3513 *  0.0000     2          
    99  Cl    c      5.8810 *     2.4504 *    -4.4108 *  0.0000     2          
   100  O     c      0.0000      -7.3513 *    -2.4504 *  0.0000     1          
   101  Li    c      1.9603 *    -7.3513 *     1.4703 *  0.0000     2          
   102  Li    c     -3.9207 *     2.4504 *    -6.3711 *  0.0000     2          
   103  Li    c     -3.9207 *     6.3711 *    -2.4504 *  0.0000     2          
   104  Li    c     -7.8414 *     0.4901 *    -0.4901 *  0.0000     2          
   105  Li    c      1.9603 *     4.4108 *    -6.3711 *  0.0000     2          
   106  Cl    c      1.9603 *     6.3711 *    -4.4108 *  0.0000     2          
   107  Cl    c      1.9603 *     2.4504 *     7.3513 *  0.0000     2          
   108  O     c      3.9207 *     4.4108 *     5.3909 *  0.0000     2          
   109  O     c     -7.8414 *     0.4901 *     1.4703 *  0.0000     2          
   110  Cl    c      5.8810 *    -5.3909 *    -0.4901 *  0.0000     2          
   111  Li    c      1.9603 *    -7.3513 *    -2.4504 *  0.0000     2          
   112  Li    c      5.8810 *     0.4901 *     5.3909 *  0.0000     2          
   113  Li    c      0.0000      -3.4306 *     7.3513 *  0.0000     1          
   114  Li    c     -7.8414 *    -1.4703 *     1.4703 *  0.0000     2          
   115  Li    c      0.0000      -7.3513 *     3.4306 *  0.0000     1          
   116  O     c      3.9207 *    -3.4306 *    -6.3711 *  0.0000     2          
   117  O     c     -7.8414 *     0.4901 *    -2.4504 *  0.0000     2          
   118  Li    c      0.0000       0.4901 *    -8.3314 *  0.0000     1          
   119  Li    c      0.0000       8.3314 *    -0.4901 *  0.0000     1          
   120  Li    c     -3.9207 *     0.4901 *     7.3513 *  0.0000     2          
   121  Li    c      0.0000       6.3711 *     5.3909 *  0.0000     1          
   122  Li    c      0.0000      -5.3909 *    -6.3711 *  0.0000     1          
   123  Li    c     -7.8414 *    -1.4703 *    -2.4504 *  0.0000     2          
   124  Li    c      3.9207 *    -7.3513 *    -0.4901 *  0.0000     2          
   125  Li    c     -7.8414 *     2.4504 *     1.4703 *  0.0000     2          
   126  O     c      0.0000       8.3314 *     1.4703 *  0.0000     1          
   127  O     c      3.9207 *    -7.3513 *     1.4703 *  0.0000     2          
   128  Li    c      0.0000       4.4108 *     7.3513 *  0.0000     1          
   129  Li    c     -7.8414 *     0.4901 *     3.4306 *  0.0000     2          
   130  Li    c     -7.8414 *    -3.4306 *    -0.4901 *  0.0000     2          
   131  Li    c     -7.8414 *     2.4504 *    -2.4504 *  0.0000     2          
   132  Li    c      0.0000      -7.3513 *    -4.4108 *  0.0000     1          
   133  Li    c      3.9207 *    -5.3909 *     5.3909 *  0.0000     2          
   134  Cl    c      5.8810 *     6.3711 *    -0.4901 *  0.0000     2          
   135  O     c      0.0000       8.3314 *    -2.4504 *  0.0000     1          
   136  O     c      3.9207 *     4.4108 *    -6.3711 *  0.0000     2          
   137  Li    c      1.9603 *     8.3314 *     1.4703 *  0.0000     2          
   138  Li    c      5.8810 *     0.4901 *    -6.3711 *  0.0000     2          
   139  Cl    c      1.9603 *    -1.4703 *    -8.3314 *  0.0000     2          
   140  Cl    c      5.8810 *    -5.3909 *     3.4306 *  0.0000     2          
   141  O     c      3.9207 *    -7.3513 *    -2.4504 *  0.0000     2          
   142  O     c     -7.8414 *    -3.4306 *     1.4703 *  0.0000     2          
   143  Li    c      5.8810 *    -3.4306 *     5.3909 *  0.0000     2          
   144  Li    c      1.9603 *     8.3314 *    -2.4504 *  0.0000     2          
   145  O     c     -7.8414 *    -3.4306 *    -2.4504 *  0.0000     2          
   146  Cl    c      1.9603 *     2.4504 *    -8.3314 *  0.0000     2          
   147  Li    c      0.0000       8.3314 *     3.4306 *  0.0000     1          
   148  Li    c      0.0000       6.3711 *    -6.3711 *  0.0000     1          
   149  Li    c      0.0000      -3.4306 *    -8.3314 *  0.0000     1          
   150  Li    c     -3.9207 *    -3.4306 *     7.3513 *  0.0000     2          
   151  Li    c     -7.8414 *     0.4901 *    -4.4108 *  0.0000     2          
   152  Li    c     -7.8414 *     4.4108 *    -0.4901 *  0.0000     2          
   153  Li    c      3.9207 *    -7.3513 *     3.4306 *  0.0000     2          
   154  Li    c      5.8810 *     4.4108 *     5.3909 *  0.0000     2          
   155  Cl    c      5.8810 *    -5.3909 *    -4.4108 *  0.0000     2          
   156  O     c     -7.8414 *     4.4108 *     1.4703 *  0.0000     2          
   157  O     c      0.0000      -7.3513 *     5.3909 *  0.0000     1          
   158  Li    c      3.9207 *     0.4901 *    -8.3314 *  0.0000     2          
   159  Li    c      3.9207 *     8.3314 *    -0.4901 *  0.0000     2          
   160  Li    c     -3.9207 *     6.3711 *     5.3909 *  0.0000     2          
   161  Li    c     -3.9207 *    -5.3909 *    -6.3711 *  0.0000     2          
   162  Li    c     -7.8414 *    -3.4306 *     3.4306 *  0.0000     2          
   163  Cl    c      5.8810 *     6.3711 *     3.4306 *  0.0000     2          
   164  O     c      3.9207 *     8.3314 *     1.4703 *  0.0000     2          
   165  O     c     -7.8414 *     4.4108 *    -2.4504 *  0.0000     2          
   166  Li    c      5.8810 *    -3.4306 *    -6.3711 *  0.0000     2          
   167  Cl    c      1.9603 *    -5.3909 *     7.3513 *  0.0000     2          
   168  O     c      0.0000       0.4901 *     9.3116 *  0.0000     1          
   169  Li    c      1.9603 *    -7.3513 *     5.3909 *  0.0000     2          
   170  Li    c      0.0000       4.4108 *    -8.3314 *  0.0000     1          
   171  Li    c      0.0000       8.3314 *    -4.4108 *  0.0000     1          
   172  Li    c      3.9207 *     4.4108 *     7.3513 *  0.0000     2          
   173  Li    c      3.9207 *    -7.3513 *    -4.4108 *  0.0000     2          
   174  Li    c      0.0000      -1.4703 *     9.3116 *  0.0000     1          
   175  Li    c      0.0000      -9.3116 *     1.4703 *  0.0000     1          
   176  O     c      3.9207 *     8.3314 *    -2.4504 *  0.0000     2          
   177  Cl    c      5.8810 *    -1.4703 *     7.3513 *  0.0000     2          
   178  O     c     -7.8414 *     0.4901 *     5.3909 *  0.0000     2          
   179  Cl    c      1.9603 *    -9.3116 *    -0.4901 *  0.0000     2          
   180  Li    c      1.9603 *     0.4901 *     9.3116 *  0.0000     2          
   181  Li    c      5.8810 *    -7.3513 *     1.4703 *  0.0000     2          
   182  Li    c     -7.8414 *     4.4108 *     3.4306 *  0.0000     2          
   183  Li    c     -7.8414 *    -3.4306 *    -4.4108 *  0.0000     2          
   184  Li    c     -7.8414 *    -1.4703 *     5.3909 *  0.0000     2          
   185  Li    c      0.0000       2.4504 *     9.3116 *  0.0000     1          
   186  Li    c      0.0000      -9.3116 *    -2.4504 *  0.0000     1          
   187  Li    c     -7.8414 *    -5.3909 *     1.4703 *  0.0000     2          
   188  Cl    c      5.8810 *     2.4504 *     7.3513 *  0.0000     2          
   189  Cl    c      5.8810 *     6.3711 *    -4.4108 *  0.0000     2          
   190  Li    c      5.8810 *     4.4108 *    -6.3711 *  0.0000     2          
   191  O     c      0.0000      -7.3513 *    -6.3711 *  0.0000     1          
   192  Li    c      5.8810 *    -7.3513 *    -2.4504 *  0.0000     2          
   193  Li    c      3.9207 *     8.3314 *     3.4306 *  0.0000     2          
   194  Li    c      3.9207 *    -3.4306 *    -8.3314 *  0.0000     2          
   195  Li    c      3.9207 *     6.3711 *    -6.3711 *  0.0000     2          
   196  Li    c     -7.8414 *    -5.3909 *    -2.4504 *  0.0000     2          
   197  Li    c      7.8414 *     2.4504 *     5.3909 *  0.0000     2          
   198  Cl    c      1.9603 *     6.3711 *     7.3513 *  0.0000     2          
   199  O     c      0.0000       8.3314 *     5.3909 *  0.0000     1          
   200  O     c      0.0000      -3.4306 *     9.3116 *  0.0000     1          
   201  O     c      3.9207 *    -7.3513 *     5.3909 *  0.0000     2          
   202  Li    c      1.9603 *    -7.3513 *    -6.3711 *  0.0000     2          
   203  Cl    c      9.8017 *    -1.4703 *    -0.4901 *  0.0000     2          
   204  Li    c      9.8017 *     0.4901 *     1.4703 *  0.0000     2          
   205  Li    c     -7.8414 *     4.4108 *    -4.4108 *  0.0000     2          
   206  O     c      7.8414 *     0.4901 *    -6.3711 *  0.0000     2          
   207  O     c     -7.8414 *    -3.4306 *     5.3909 *  0.0000     2          
   208  Li    c      1.9603 *     8.3314 *     5.3909 *  0.0000     2          
   209  Cl    c      1.9603 *    -5.3909 *    -8.3314 *  0.0000     2          
   210  Cl    c      1.9603 *    -9.3116 *     3.4306 *  0.0000     2          
   211  Cl    c      9.8017 *     2.4504 *    -0.4901 *  0.0000     2          
   212  O     c      3.9207 *     0.4901 *     9.3116 *  0.0000     2          
   213  Li    c      1.9603 *    -3.4306 *     9.3116 *  0.0000     2          
   214  Li    c      9.8017 *     0.4901 *    -2.4504 *  0.0000     2          
   215  Li    c      3.9207 *     4.4108 *    -8.3314 *  0.0000     2          
   216  Li    c      3.9207 *     8.3314 *    -4.4108 *  0.0000     2          
   217  Li    c      7.8414 *    -1.4703 *    -6.3711 *  0.0000     2          
   218  Li    c     -7.8414 *     6.3711 *     1.4703 *  0.0000     2          
   219  Li    c     -3.9207 *    -1.4703 *     9.3116 *  0.0000     2          
   220  Li    c      3.9207 *    -9.3116 *     1.4703 *  0.0000     2          
   221  O     c      0.0000       0.4901 *   -10.2918 *  0.0000     1          
   222  Li    c      5.8810 *     8.3314 *     1.4703 *  0.0000     2          
   223  O     c      0.0000       4.4108 *     9.3116 *  0.0000     1          
   224  Cl    c      5.8810 *    -1.4703 *    -8.3314 *  0.0000     2          
   225  Li    c      0.0000      10.2918 *     1.4703 *  0.0000     1          
   226  Li    c      0.0000      -1.4703 *   -10.2918 *  0.0000     1          
   227  Li    c     -7.8414 *     2.4504 *    -6.3711 *  0.0000     2          
   228  Li    c     -7.8414 *     6.3711 *    -2.4504 *  0.0000     2          
   229  Li    c      0.0000      -7.3513 *     7.3513 *  0.0000     1          
   230  Li    c      3.9207 *     2.4504 *     9.3116 *  0.0000     2          
   231  Li    c      3.9207 *    -9.3116 *    -2.4504 *  0.0000     2          
   232  Cl    c      1.9603 *    10.2918 *    -0.4901 *  0.0000     2          
   233  O     c      0.0000       8.3314 *    -6.3711 *  0.0000     1          
   234  Li    c      1.9603 *     0.4901 *   -10.2918 *  0.0000     2          
   235  Li    c      5.8810 *     8.3314 *    -2.4504 *  0.0000     2          
   236  Cl    c      5.8810 *     2.4504 *    -8.3314 *  0.0000     2          
   237  O     c      3.9207 *    -7.3513 *    -6.3711 *  0.0000     2          
   238  O     c      7.8414 *     4.4108 *     5.3909 *  0.0000     2          
   239  Li    c      1.9603 *     4.4108 *     9.3116 *  0.0000     2          
   240  Cl    c      1.9603 *    -9.3116 *    -4.4108 *  0.0000     2          
   241  Cl    c      9.8017 *    -1.4703 *     3.4306 *  0.0000     2          
   242  Li    c      9.8017 *    -3.4306 *     1.4703 *  0.0000     2          
   243  Li    c      0.0000       2.4504 *   -10.2918 *  0.0000     1          
   244  Li    c      0.0000      10.2918 *    -2.4504 *  0.0000     1          
   245  Li    c      1.9603 *     8.3314 *    -6.3711 *  0.0000     2          
   246  Cl    c      1.9603 *     6.3711 *    -8.3314 *  0.0000     2          
   247  O     c      3.9207 *     8.3314 *     5.3909 *  0.0000     2          
   248  O     c      7.8414 *    -3.4306 *    -6.3711 *  0.0000     2          
   249  Cl    c      9.8017 *     2.4504 *     3.4306 *  0.0000     2          
   250  O     c     -3.9207 *    -3.4306 *     9.3116 *  0.0000     2          
   251  Li    c      9.8017 *    -3.4306 *    -2.4504 *  0.0000     2          
   252  Li    c     -7.8414 *     0.4901 *     7.3513 *  0.0000     2          
   253  Li    c     -7.8414 *    -7.3513 *    -0.4901 *  0.0000     2          
   254  Li    c      0.0000      -5.3909 *     9.3116 *  0.0000     1          
   255  Li    c      0.0000      -9.3116 *     5.3909 *  0.0000     1          
   256  O     c      0.0000      -3.4306 *   -10.2918 *  0.0000     1          
   257  Cl    c      5.8810 *    -5.3909 *     7.3513 *  0.0000     2          
   258  O     c     -7.8414 *    -7.3513 *     1.4703 *  0.0000     2          
   259  Li    c      5.8810 *    -7.3513 *     5.3909 *  0.0000     2          
   260  Li    c      9.8017 *     4.4108 *     1.4703 *  0.0000     2          
   261  Cl    c      9.8017 *    -1.4703 *    -4.4108 *  0.0000     2          
   262  Li    c      7.8414 *    -5.3909 *     5.3909 *  0.0000     2          
   263  Cl    c      1.9603 *    10.2918 *     3.4306 *  0.0000     2          
   264  O     c      3.9207 *     0.4901 *   -10.2918 *  0.0000     2          
   265  O     c     -7.8414 *     4.4108 *    -6.3711 *  0.0000     2          
   266  Li    c      1.9603 *    -3.4306 *   -10.2918 *  0.0000     2          
   267  Cl    c      5.8810 *    -9.3116 *    -0.4901 *  0.0000     2          
   268  O     c      3.9207 *     4.4108 *     9.3116 *  0.0000     2          
   269  O     c     -7.8414 *    -7.3513 *    -2.4504 *  0.0000     2          
   270  Li    c      5.8810 *     0.4901 *     9.3116 *  0.0000     2          
   271  Li    c      9.8017 *     4.4108 *    -2.4504 *  0.0000     2          
   272  Cl    c      9.8017 *     2.4504 *    -4.4108 *  0.0000     2          
   273  Li    c      0.0000       8.3314 *     7.3513 *  0.0000     1          
   274  Li    c      3.9207 *    -1.4703 *   -10.2918 *  0.0000     2          
   275  Li    c      3.9207 *    10.2918 *     1.4703 *  0.0000     2          
   276  Li    c      0.0000      -7.3513 *    -8.3314 *  0.0000     1          
   277  Li    c      3.9207 *    -7.3513 *     7.3513 *  0.0000     2          
   278  O     c      0.0000       4.4108 *   -10.2918 *  0.0000     1          
   279  O     c      3.9207 *     8.3314 *    -6.3711 *  0.0000     2          
   280  Cl    c      9.8017 *    -5.3909 *    -0.4901 *  0.0000     2          
   281  Li    c      9.8017 *     0.4901 *     5.3909 *  0.0000     2          
   282  Li    c      3.9207 *     2.4504 *   -10.2918 *  0.0000     2          
   283  Li    c      3.9207 *    10.2918 *    -2.4504 *  0.0000     2          
   284  Li    c     -7.8414 *    -3.4306 *     7.3513 *  0.0000     2          
   285  Li    c      0.0000       6.3711 *     9.3116 *  0.0000     1          
   286  Li    c      0.0000      -9.3116 *    -6.3711 *  0.0000     1          
   287  Li    c      0.0000       0.4901 *    11.2719 *  0.0000     1          
   288  Li    c      0.0000     -11.2719 *    -0.4901 *  0.0000     1          
   289  Li    c     -7.8414 *    -7.3513 *     3.4306 *  0.0000     2          
   290  Cl    c      1.9603 *    10.2918 *    -4.4108 *  0.0000     2          
   291  Cl    c      5.8810 *     6.3711 *     7.3513 *  0.0000     2          
   292  Li    c      1.9603 *     4.4108 *   -10.2918 *  0.0000     2          
   293  Li    c      5.8810 *    -7.3513 *    -6.3711 *  0.0000     2          
   294  O     c      0.0000     -11.2719 *     1.4703 *  0.0000     1          
   295  Li    c      7.8414 *     8.3314 *    -0.4901 *  0.0000     2          
   296  Li    c     -7.8414 *     0.4901 *    -8.3314 *  0.0000     2          
   297  Li    c     -7.8414 *     6.3711 *     5.3909 *  0.0000     2          
   298  Li    c     -7.8414 *    -5.3909 *    -6.3711 *  0.0000     2          
   299  Li    c      3.9207 *    -5.3909 *     9.3116 *  0.0000     2          
   300  Li    c      3.9207 *    -9.3116 *     5.3909 *  0.0000     2          
   301  O     c      3.9207 *    -3.4306 *   -10.2918 *  0.0000     2          
   302  O     c      7.8414 *     8.3314 *     1.4703 *  0.0000     2          
   303  Li    c      5.8810 *     8.3314 *     5.3909 *  0.0000     2          
   304  Cl    c      1.9603 *    -1.4703 *    11.2719 *  0.0000     2          
   305  Cl    c      5.8810 *    -5.3909 *    -8.3314 *  0.0000     2          
   306  Cl    c      5.8810 *    -9.3116 *     3.4306 *  0.0000     2          
   307  O     c      0.0000     -11.2719 *    -2.4504 *  0.0000     1          
   308  Li    c      1.9603 *   -11.2719 *     1.4703 *  0.0000     2          
   309  Li    c      5.8810 *    -3.4306 *     9.3116 *  0.0000     2          
   310  Li    c      0.0000      10.2918 *     5.3909 *  0.0000     1          
   311  Li    c      0.0000      -5.3909 *   -10.2918 *  0.0000     1          
   312  Li    c      7.8414 *     4.4108 *     7.3513 *  0.0000     2          
   313  Li    c     -7.8414 *    -7.3513 *    -4.4108 *  0.0000     2          
   314  Cl    c      1.9603 *     2.4504 *    11.2719 *  0.0000     2          
   315  Cl    c      9.8017 *     6.3711 *    -0.4901 *  0.0000     2          
   316  O     c      7.8414 *     8.3314 *    -2.4504 *  0.0000     2          
   317  Li    c      9.8017 *     0.4901 *    -6.3711 *  0.0000     2          
   318  Cl    c      9.8017 *    -5.3909 *     3.4306 *  0.0000     2          
   319  Li    c      1.9603 *   -11.2719 *    -2.4504 *  0.0000     2          
   320  Li    c      9.8017 *    -3.4306 *     5.3909 *  0.0000     2          
   321  Li    c      0.0000       8.3314 *    -8.3314 *  0.0000     1          
   322  Li    c      3.9207 *     8.3314 *     7.3513 *  0.0000     2          
   323  Li    c      3.9207 *    -7.3513 *    -8.3314 *  0.0000     2          
   324  Li    c     11.7620 *     0.4901 *    -0.4901 *  0.0000     2          
   325  Li    c      0.0000      -3.4306 *    11.2719 *  0.0000     1          
   326  Li    c      0.0000     -11.2719 *     3.4306 *  0.0000     1          
   327  Cl    c      5.8810 *    10.2918 *    -0.4901 *  0.0000     2          
   328  O     c      3.9207 *     4.4108 *   -10.2918 *  0.0000     2          
   329  O     c     11.7620 *     0.4901 *     1.4703 *  0.0000     2          
   330  Li    c      5.8810 *     0.4901 *   -10.2918 *  0.0000     2          
   331  Cl    c      5.8810 *    -9.3116 *    -4.4108 *  0.0000     2          
   332  O     c      0.0000      -7.3513 *     9.3116 *  0.0000     1          
   333  Li    c      5.8810 *     4.4108 *     9.3116 *  0.0000     2          
   334  Li    c      7.8414 *     8.3314 *     3.4306 *  0.0000     2          
   335  Li    c      7.8414 *    -3.4306 *    -8.3314 *  0.0000     2          
   336  Li    c      7.8414 *     6.3711 *    -6.3711 *  0.0000     2          
   337  Li    c     11.7620 *    -1.4703 *     1.4703 *  0.0000     2          
   338  Li    c     -3.9207 *     6.3711 *     9.3116 *  0.0000     2          
   339  Li    c      3.9207 *     0.4901 *    11.2719 *  0.0000     2          
   340  Li    c      3.9207 *   -11.2719 *    -0.4901 *  0.0000     2          
   341  Li    c      3.9207 *    -9.3116 *    -6.3711 *  0.0000     2          
   342  Li    c      5.8810 *     8.3314 *    -6.3711 *  0.0000     2          
   343  Cl    c      1.9603 *    -9.3116 *     7.3513 *  0.0000     2          
   344  Cl    c      5.8810 *     6.3711 *    -8.3314 *  0.0000     2          
   345  O     c      3.9207 *   -11.2719 *     1.4703 *  0.0000     2          
   346  O     c     11.7620 *     0.4901 *    -2.4504 *  0.0000     2          
   347  O     c     -7.8414 *    -7.3513 *     5.3909 *  0.0000     2          
   348  Li    c      1.9603 *    -7.3513 *     9.3116 *  0.0000     2          
   349  Li    c      9.8017 *     4.4108 *     5.3909 *  0.0000     2          
   350  Cl    c      9.8017 *    -5.3909 *    -4.4108 *  0.0000     2          
   351  Li    c      0.0000       6.3711 *   -10.2918 *  0.0000     1          
   352  Li    c      0.0000      10.2918 *    -6.3711 *  0.0000     1          
   353  Li    c      0.0000       4.4108 *    11.2719 *  0.0000     1          
   354  Li    c      0.0000     -11.2719 *    -4.4108 *  0.0000     1          
   355  Li    c     11.7620 *     2.4504 *     1.4703 *  0.0000     2          
   356  Li    c     11.7620 *    -1.4703 *    -2.4504 *  0.0000     2          
   357  Cl    c      9.8017 *     6.3711 *     3.4306 *  0.0000     2          
   358  O     c     -7.8414 *     0.4901 *     9.3116 *  0.0000     2          
   359  Li    c      9.8017 *    -3.4306 *    -6.3711 *  0.0000     2          
   360  O     c      3.9207 *   -11.2719 *    -2.4504 *  0.0000     2          
   361  Li    c      0.0000       0.4901 *   -12.2521 *  0.0000     1          
   362  Li    c      0.0000      12.2521 *    -0.4901 *  0.0000     1          
   363  Li    c     -7.8414 *     4.4108 *    -8.3314 *  0.0000     2          
   364  Li    c     -3.9207 *    -5.3909 *   -10.2918 *  0.0000     2          
   365  Li    c      7.8414 *     8.3314 *    -4.4108 *  0.0000     2          
   366  Li    c     11.7620 *     0.4901 *     3.4306 *  0.0000     2          
   367  Li    c     11.7620 *    -3.4306 *    -0.4901 *  0.0000     2          
   368  Li    c      3.9207 *    10.2918 *     5.3909 *  0.0000     2          
   369  Li    c     -7.8414 *    -9.3116 *     1.4703 *  0.0000     2          
   370  Li    c      7.8414 *    -1.4703 *     9.3116 *  0.0000     2          
   371  Li    c     11.7620 *     2.4504 *    -2.4504 *  0.0000     2          
   372  Cl    c      5.8810 *    10.2918 *     3.4306 *  0.0000     2          
   373  O     c      0.0000      12.2521 *     1.4703 *  0.0000     1          
   374  O     c     11.7620 *    -3.4306 *     1.4703 *  0.0000     2          
   375  Li    c      5.8810 *    -3.4306 *   -10.2918 *  0.0000     2          
   376  Cl    c      9.8017 *    -1.4703 *     7.3513 *  0.0000     2          
   377  Li    c      9.8017 *    -7.3513 *     1.4703 *  0.0000     2          
   378  Li    c      3.9207 *     8.3314 *    -8.3314 *  0.0000     2          
   379  Li    c      3.9207 *    -3.4306 *    11.2719 *  0.0000     2          
   380  Li    c      3.9207 *   -11.2719 *     3.4306 *  0.0000     2          
   381  Li    c      7.8414 *     2.4504 *     9.3116 *  0.0000     2          
   382  Li    c     -7.8414 *    -9.3116 *    -2.4504 *  0.0000     2          
   383  Li    c      1.9603 *    12.2521 *     1.4703 *  0.0000     2          
   384  O     c      0.0000       8.3314 *     9.3116 *  0.0000     1          
   385  O     c      0.0000      12.2521 *    -2.4504 *  0.0000     1          
   386  Cl    c      9.8017 *     2.4504 *     7.3513 *  0.0000     2          
   387  Cl    c      9.8017 *     6.3711 *    -4.4108 *  0.0000     2          
   388  O     c      0.0000     -11.2719 *     5.3909 *  0.0000     1          
   389  O     c      7.8414 *    -7.3513 *    -6.3711 *  0.0000     2          
   390  O     c     11.7620 *    -3.4306 *    -2.4504 *  0.0000     2          
   391  Li    c      9.8017 *     4.4108 *    -6.3711 *  0.0000     2          
   392  Cl    c      1.9603 *    -1.4703 *   -12.2521 *  0.0000     2          
   393  O     c      3.9207 *    -7.3513 *     9.3116 *  0.0000     2          
   394  Li    c      9.8017 *    -7.3513 *    -2.4504 *  0.0000     2          
   395  Li    c     11.7620 *     0.4901 *    -4.4108 *  0.0000     2          
   396  Li    c     11.7620 *     4.4108 *    -0.4901 *  0.0000     2          
   397  Cl    c      5.8810 *    10.2918 *    -4.4108 *  0.0000     2          
   398  Li    c      1.9603 *    12.2521 *    -2.4504 *  0.0000     2          
   399  Li    c      5.8810 *     4.4108 *   -10.2918 *  0.0000     2          
   400  O     c      0.0000      -7.3513 *   -10.2918 *  0.0000     1          
   401  O     c      7.8414 *     8.3314 *     5.3909 *  0.0000     2          
   402  O     c     11.7620 *     4.4108 *     1.4703 *  0.0000     2          
   403  Li    c      1.9603 *     8.3314 *     9.3116 *  0.0000     2          
   404  Cl    c      1.9603 *     2.4504 *   -12.2521 *  0.0000     2          
   405  Cl    c      1.9603 *    -5.3909 *    11.2719 *  0.0000     2          
   406  Cl    c      1.9603 *    -9.3116 *    -8.3314 *  0.0000     2          
   407  O     c      7.8414 *    -3.4306 *     9.3116 *  0.0000     2          
   408  Li    c      1.9603 *   -11.2719 *     5.3909 *  0.0000     2          
   409  Li    c      0.0000      12.2521 *     3.4306 *  0.0000     1          
   410  Li    c      0.0000      -3.4306 *   -12.2521 *  0.0000     1          
   411  Li    c      3.9207 *     6.3711 *   -10.2918 *  0.0000     2          
   412  Li    c      3.9207 *    10.2918 *    -6.3711 *  0.0000     2          
   413  Li    c      3.9207 *     4.4108 *    11.2719 *  0.0000     2          
   414  Li    c     11.7620 *    -3.4306 *     3.4306 *  0.0000     2          
   415  Li    c      3.9207 *   -11.2719 *    -4.4108 *  0.0000     2          
   416  Cl    c      1.9603 *    10.2918 *     7.3513 *  0.0000     2          
   417  Li    c      1.9603 *    -7.3513 *   -10.2918 *  0.0000     2          
   418  Li    c      5.8810 *   -11.2719 *     1.4703 *  0.0000     2          
   419  Cl    c      5.8810 *    -1.4703 *    11.2719 *  0.0000     2          
   420  O     c     11.7620 *     4.4108 *    -2.4504 *  0.0000     2          
   421  Li    c      3.9207 *    12.2521 *    -0.4901 *  0.0000     2          
   422  Li    c     -3.9207 *     0.4901 *   -12.2521 *  0.0000     2          
   423  O     c      3.9207 *    12.2521 *     1.4703 *  0.0000     2          
   424  O     c     -7.8414 *     0.4901 *   -10.2918 *  0.0000     2          
   425  Li    c      9.8017 *     8.3314 *     1.4703 *  0.0000     2          
   426  Cl    c      5.8810 *     2.4504 *    11.2719 *  0.0000     2          
   427  O     c      0.0000     -11.2719 *    -6.3711 *  0.0000     1          
   428  O     c      7.8414 *     4.4108 *     9.3116 *  0.0000     2          
   429  O     c     11.7620 *     0.4901 *     5.3909 *  0.0000     2          
   430  Li    c      5.8810 *   -11.2719 *    -2.4504 *  0.0000     2          
   431  Cl    c      9.8017 *    -1.4703 *    -8.3314 *  0.0000     2          
   432  Li    c      0.0000       4.4108 *   -12.2521 *  0.0000     1          
   433  Li    c      0.0000      12.2521 *    -4.4108 *  0.0000     1          
   434  Li    c      7.8414 *    10.2918 *     1.4703 *  0.0000     2          
   435  Li    c      7.8414 *    -1.4703 *   -10.2918 *  0.0000     2          
   436  Li    c     11.7620 *     4.4108 *     3.4306 *  0.0000     2          
   437  Li    c     11.7620 *    -3.4306 *    -4.4108 *  0.0000     2          
   438  Li    c     -7.8414 *    -7.3513 *     7.3513 *  0.0000     2          
   439  Li    c     11.7620 *    -1.4703 *     5.3909 *  0.0000     2          
   440  Li    c     11.7620 *    -5.3909 *     1.4703 *  0.0000     2          
   441  O     c      3.9207 *    12.2521 *    -2.4504 *  0.0000     2          
   442  O     c      7.8414 *     8.3314 *    -6.3711 *  0.0000     2          
   443  Cl    c      1.9603 *     6.3711 *    11.2719 *  0.0000     2          
   444  O     c      3.9207 *     8.3314 *     9.3116 *  0.0000     2          
   445  Li    c      1.9603 *   -11.2719 *    -6.3711 *  0.0000     2          
   446  Li    c      9.8017 *     8.3314 *    -2.4504 *  0.0000     2          
   447  Cl    c      9.8017 *     2.4504 *    -8.3314 *  0.0000     2          
   448  O     c      3.9207 *   -11.2719 *     5.3909 *  0.0000     2          
   449  Li    c     -7.8414 *     2.4504 *   -10.2918 *  0.0000     2          
   450  Li    c      7.8414 *    10.2918 *    -2.4504 *  0.0000     2          
   451  Li    c      0.0000      -9.3116 *     9.3116 *  0.0000     1          
   452  Li    c     11.7620 *     2.4504 *     5.3909 *  0.0000     2          
   453  Li    c     11.7620 *    -5.3909 *    -2.4504 *  0.0000     2          
   454  O     c      0.0000       8.3314 *   -10.2918 *  0.0000     1          
   455  O     c      3.9207 *    -7.3513 *   -10.2918 *  0.0000     2          
   456  Cl    c      5.8810 *    -9.3116 *     7.3513 *  0.0000     2          
   457  O     c      0.0000       0.4901 *    13.2323 *  0.0000     1          
   458  Li    c      5.8810 *    -7.3513 *     9.3116 *  0.0000     2          
   459  Li    c      3.9207 *    12.2521 *     3.4306 *  0.0000     2          
   460  Li    c     -3.9207 *    -3.4306 *   -12.2521 *  0.0000     2          
   461  Li    c     11.7620 *     4.4108 *    -4.4108 *  0.0000     2          
   462  Li    c      0.0000      -1.4703 *    13.2323 *  0.0000     1          
   463  Li    c      0.0000     -13.2323 *     1.4703 *  0.0000     1          
   464  Li    c      7.8414 *    -5.3909 *     9.3116 *  0.0000     2          
   465  Li    c     -7.8414 *    -9.3116 *     5.3909 *  0.0000     2          
   466  Cl    c      1.9603 *    10.2918 *    -8.3314 *  0.0000     2          
   467  O     c      0.0000      12.2521 *     5.3909 *  0.0000     1          
   468  O     c      7.8414 *    -3.4306 *   -10.2918 *  0.0000     2          
   469  O     c     11.7620 *     0.4901 *    -6.3711 *  0.0000     2          
   470  Li    c      1.9603 *     8.3314 *   -10.2918 *  0.0000     2          
   471  Cl    c      1.9603 *   -13.2323 *    -0.4901 *  0.0000     2          
   472  O     c     11.7620 *    -3.4306 *     5.3909 *  0.0000     2          
   473  Li    c      1.9603 *     0.4901 *    13.2323 *  0.0000     2          
   474  Cl    c      9.8017 *    -5.3909 *     7.3513 *  0.0000     2          
   475  Li    c      9.8017 *    -7.3513 *     5.3909 *  0.0000     2          
   476  Li    c     11.7620 *     6.3711 *     1.4703 *  0.0000     2          
   477  Li    c     11.7620 *    -1.4703 *    -6.3711 *  0.0000     2          
   478  Li    c      0.0000     -11.2719 *     7.3513 *  0.0000     1          
   479  Li    c      0.0000      -7.3513 *    11.2719 *  0.0000     1          
   480  Li    c      0.0000       2.4504 *    13.2323 *  0.0000     1          
   481  Li    c      0.0000     -13.2323 *    -2.4504 *  0.0000     1          
   482  Li    c      1.9603 *    12.2521 *     5.3909 *  0.0000     2          
   483  O     c      3.9207 *   -11.2719 *    -6.3711 *  0.0000     2          
   484  Cl    c      1.9603 *    -5.3909 *   -12.2521 *  0.0000     2          
   485  Cl    c      9.8017 *    -9.3116 *    -0.4901 *  0.0000     2          
   486  Li    c      9.8017 *     0.4901 *     9.3116 *  0.0000     2          
   487  Li    c      3.9207 *     4.4108 *   -12.2521 *  0.0000     2          
   488  Li    c      3.9207 *    12.2521 *    -4.4108 *  0.0000     2          
   489  Li    c      7.8414 *     8.3314 *     7.3513 *  0.0000     2          
   490  Li    c      7.8414 *    -7.3513 *    -8.3314 *  0.0000     2          
   491  Li    c     11.7620 *     2.4504 *    -6.3711 *  0.0000     2          
   492  Li    c     11.7620 *     6.3711 *    -2.4504 *  0.0000     2          
   493  O     c     -7.8414 *     4.4108 *   -10.2918 *  0.0000     2          
   494  Li    c      5.8810 *    12.2521 *     1.4703 *  0.0000     2          
   495  Cl    c      5.8810 *    -1.4703 *   -12.2521 *  0.0000     2          
   496  O     c      0.0000      -3.4306 *    13.2323 *  0.0000     1          
   497  O     c     11.7620 *     4.4108 *     5.3909 *  0.0000     2          
   498  Li    c     -7.8414 *     6.3711 *     9.3116 *  0.0000     2          
   499  Li    c     -7.8414 *    -9.3116 *    -6.3711 *  0.0000     2          
   500  Li    c      7.8414 *   -11.2719 *    -0.4901 *  0.0000     2          
   501  Li    c     -7.8414 *     0.4901 *    11.2719 *  0.0000     2          
   502  Li    c      3.9207 *    -9.3116 *     9.3116 *  0.0000     2          
   503  O     c      0.0000      12.2521 *    -6.3711 *  0.0000     1          
   504  O     c      3.9207 *     8.3314 *   -10.2918 *  0.0000     2          
   505  O     c     11.7620 *    -3.4306 *    -6.3711 *  0.0000     2          
   506  Li    c      5.8810 *    12.2521 *    -2.4504 *  0.0000     2          
   507  Cl    c      1.9603 *   -13.2323 *     3.4306 *  0.0000     2          
   508  Cl    c      5.8810 *     2.4504 *   -12.2521 *  0.0000     2          
   509  Cl    c      5.8810 *    -5.3909 *    11.2719 *  0.0000     2          
   510  Cl    c      5.8810 *    -9.3116 *    -8.3314 *  0.0000     2          
   511  Cl    c      9.8017 *     6.3711 *     7.3513 *  0.0000     2          
   512  Cl    c     13.7224 *    -1.4703 *    -0.4901 *  0.0000     2          
   513  O     c      7.8414 *   -11.2719 *     1.4703 *  0.0000     2          
   514  O     c     -3.9207 *     0.4901 *    13.2323 *  0.0000     2          
   515  Li    c      5.8810 *     8.3314 *     9.3116 *  0.0000     2          
   516  Li    c      5.8810 *   -11.2719 *     5.3909 *  0.0000     2          
   517  Li    c      9.8017 *    -7.3513 *    -6.3711 *  0.0000     2          
   518  Li    c     13.7224 *     0.4901 *     1.4703 *  0.0000     2          
   519  Li    c      1.9603 *    -3.4306 *    13.2323 *  0.0000     2          
   520  Li    c      0.0000      10.2918 *     9.3116 *  0.0000     1          
   521  Li    c      0.0000      -9.3116 *   -10.2918 *  0.0000     1          
   522  Li    c     11.7620 *     0.4901 *     7.3513 *  0.0000     2          
   523  Li    c     11.7620 *    -7.3513 *    -0.4901 *  0.0000     2          
   524  Li    c      3.9207 *   -13.2323 *     1.4703 *  0.0000     2          
   525  Li    c      3.9207 *    -1.4703 *    13.2323 *  0.0000     2          
   526  Li    c      1.9603 *    12.2521 *    -6.3711 *  0.0000     2          
   527  Cl    c      5.8810 *    10.2918 *     7.3513 *  0.0000     2          
   528  O     c      3.9207 *    12.2521 *     5.3909 *  0.0000     2          
   529  Cl    c      1.9603 *     6.3711 *   -12.2521 *  0.0000     2          
   530  O     c     11.7620 *    -7.3513 *     1.4703 *  0.0000     2          
   531  Li    c      5.8810 *    -7.3513 *   -10.2918 *  0.0000     2          
   532  Li    c      9.8017 *     8.3314 *     5.3909 *  0.0000     2          
   533  Cl    c      9.8017 *    -9.3116 *     3.4306 *  0.0000     2          
   534  Cl    c     13.7224 *     2.4504 *    -0.4901 *  0.0000     2          
   535  O     c      0.0000       4.4108 *    13.2323 *  0.0000     1          
   536  O     c      7.8414 *   -11.2719 *    -2.4504 *  0.0000     2          
   537  Li    c      9.8017 *    -3.4306 *     9.3116 *  0.0000     2          
   538  Li    c     13.7224 *     0.4901 *    -2.4504 *  0.0000     2          
   539  Cl    c      9.8017 *    -5.3909 *    -8.3314 *  0.0000     2          
   540  Li    c     -7.8414 *    -5.3909 *   -10.2918 *  0.0000     2          
   541  Li    c      0.0000       8.3314 *    11.2719 *  0.0000     1          
   542  Li    c      0.0000     -11.2719 *    -8.3314 *  0.0000     1          
   543  Li    c      7.8414 *    10.2918 *     5.3909 *  0.0000     2          
   544  Li    c      3.9207 *    -7.3513 *    11.2719 *  0.0000     2          
   545  Li    c      3.9207 *   -11.2719 *     7.3513 *  0.0000     2          
   546  Li    c      3.9207 *     2.4504 *    13.2323 *  0.0000     2          
   547  Li    c      3.9207 *   -13.2323 *    -2.4504 *  0.0000     2          
   548  Li    c     11.7620 *    -5.3909 *     5.3909 *  0.0000     2          
   549  O     c     11.7620 *     4.4108 *    -6.3711 *  0.0000     2          
   550  Cl    c      1.9603 *   -13.2323 *    -4.4108 *  0.0000     2          
   551  O     c     11.7620 *    -7.3513 *    -2.4504 *  0.0000     2          
   552  Li    c      1.9603 *     4.4108 *    13.2323 *  0.0000     2          
   553  Li    c      7.8414 *     8.3314 *    -8.3314 *  0.0000     2          
   554  Li    c      7.8414 *    -3.4306 *    11.2719 *  0.0000     2          
   555  Li    c      7.8414 *   -11.2719 *     3.4306 *  0.0000     2          
   556  O     c      0.0000       0.4901 *   -14.2124 *  0.0000     1          
   557  Cl    c      5.8810 *     6.3711 *    11.2719 *  0.0000     2          
   558  Cl    c      9.8017 *    10.2918 *    -0.4901 *  0.0000     2          
   559  Li    c      5.8810 *   -11.2719 *    -6.3711 *  0.0000     2          
   560  Li    c      9.8017 *     0.4901 *   -10.2918 *  0.0000     2          
   561  Cl    c     13.7224 *    -1.4703 *     3.4306 *  0.0000     2          
   562  Li    c     13.7224 *    -3.4306 *     1.4703 *  0.0000     2          
   563  Cl    c      9.8017 *    -9.3116 *    -4.4108 *  0.0000     2          
   564  O     c      3.9207 *    -3.4306 *    13.2323 *  0.0000     2          
   565  O     c      7.8414 *    -7.3513 *     9.3116 *  0.0000     2          
   566  Li    c      9.8017 *     4.4108 *     9.3116 *  0.0000     2          
   567  Li    c      0.0000      14.2124 *     1.4703 *  0.0000     1          
   568  Li    c      0.0000      -1.4703 *   -14.2124 *  0.0000     1          
   569  Li    c      0.0000      12.2521 *     7.3513 *  0.0000     1          
   570  Li    c      0.0000      -7.3513 *   -12.2521 *  0.0000     1          
   571  Li    c     11.7620 *    -3.4306 *     7.3513 *  0.0000     2          
   572  Li    c     11.7620 *    -7.3513 *     3.4306 *  0.0000     2          
   573  Li    c      0.0000      -5.3909 *    13.2323 *  0.0000     1          
   574  Li    c      0.0000     -13.2323 *     5.3909 *  0.0000     1          
   575  Cl    c      1.9603 *    14.2124 *    -0.4901 *  0.0000     2          
   576  O     c      3.9207 *    12.2521 *    -6.3711 *  0.0000     2          
   577  Li    c      1.9603 *     0.4901 *   -14.2124 *  0.0000     2          
   578  Li    c      9.8017 *     8.3314 *    -6.3711 *  0.0000     2          
   579  Cl    c      9.8017 *     6.3711 *    -8.3314 *  0.0000     2          
   580  Cl    c     13.7224 *     2.4504 *     3.4306 *  0.0000     2          
   581  Li    c     13.7224 *    -3.4306 *    -2.4504 *  0.0000     2          
   582  Li    c      0.0000       2.4504 *   -14.2124 *  0.0000     1          
   583  Li    c      0.0000      14.2124 *    -2.4504 *  0.0000     1          
   584  Li    c      7.8414 *    10.2918 *    -6.3711 *  0.0000     2          
   585  Li    c     -7.8414 *     6.3711 *   -10.2918 *  0.0000     2          
   586  Li    c     11.7620 *     0.4901 *    -8.3314 *  0.0000     2          
   587  Li    c     11.7620 *     8.3314 *    -0.4901 *  0.0000     2          
   588  Li    c     -7.8414 *     4.4108 *    11.2719 *  0.0000     2          
   589  Li    c      3.9207 *    10.2918 *     9.3116 *  0.0000     2          
   590  Li    c      3.9207 *    -9.3116 *   -10.2918 *  0.0000     2          
   591  Li    c     11.7620 *     6.3711 *     5.3909 *  0.0000     2          
   592  Li    c     11.7620 *    -5.3909 *    -6.3711 *  0.0000     2          
   593  Li    c      7.8414 *   -11.2719 *    -4.4108 *  0.0000     2          
   594  Cl    c      5.8810 *    10.2918 *    -8.3314 *  0.0000     2          
   595  Li    c      5.8810 *     8.3314 *   -10.2918 *  0.0000     2          
   596  O     c     11.7620 *     8.3314 *     1.4703 *  0.0000     2          
   597  Cl    c      5.8810 *   -13.2323 *    -0.4901 *  0.0000     2          
   598  Cl    c     13.7224 *    -1.4703 *    -4.4108 *  0.0000     2          
   599  O     c      3.9207 *     4.4108 *    13.2323 *  0.0000     2          
   600  Li    c      5.8810 *     0.4901 *    13.2323 *  0.0000     2          
   601  Li    c     13.7224 *     4.4108 *     1.4703 *  0.0000     2          
   602  Li    c     -7.8414 *    12.2521 *    -0.4901 *  0.0000     2          
   603  Li    c      0.0000      10.2918 *   -10.2918 *  0.0000     1          
   604  Li    c      3.9207 *     8.3314 *    11.2719 *  0.0000     2          
   605  Li    c      3.9207 *   -11.2719 *    -8.3314 *  0.0000     2          
   606  Li    c      7.8414 *     0.4901 *   -12.2521 *  0.0000     2          
   607  Li    c     11.7620 *     4.4108 *     7.3513 *  0.0000     2          
   608  Li    c     11.7620 *    -7.3513 *    -4.4108 *  0.0000     2          
   609  O     c      0.0000      -3.4306 *   -14.2124 *  0.0000     1          
   610  O     c     -7.8414 *    12.2521 *     1.4703 *  0.0000     2          
   611  Cl    c      9.8017 *    10.2918 *     3.4306 *  0.0000     2          
   612  Li    c      5.8810 *    12.2521 *     5.3909 *  0.0000     2          
   613  O     c      0.0000     -11.2719 *     9.3116 *  0.0000     1          
   614  O     c     11.7620 *     8.3314 *    -2.4504 *  0.0000     2          
   615  Li    c      9.8017 *    -3.4306 *   -10.2918 *  0.0000     2          
   616  Cl    c      5.8810 *    -5.3909 *   -12.2521 *  0.0000     2          
   617  Cl    c     13.7224 *     2.4504 *    -4.4108 *  0.0000     2          
   618  Li    c     13.7224 *     4.4108 *    -2.4504 *  0.0000     2          
   619  Li    c      0.0000       6.3711 *    13.2323 *  0.0000     1          
   620  Li    c      0.0000     -13.2323 *    -6.3711 *  0.0000     1          
   621  Cl    c      1.9603 *    14.2124 *     3.4306 *  0.0000     2          
   622  O     c     -3.9207 *     0.4901 *   -14.2124 *  0.0000     2          
   623  O     c     -7.8414 *    12.2521 *    -2.4504 *  0.0000     2          
   624  Li    c      1.9603 *    -3.4306 *   -14.2124 *  0.0000     2          
   625  O     c      7.8414 *     8.3314 *     9.3116 *  0.0000     2          
   626  Cl    c      1.9603 *    -9.3116 *    11.2719 *  0.0000     2          
   627  Cl    c     13.7224 *    -5.3909 *    -0.4901 *  0.0000     2          
   628  O     c      7.8414 *   -11.2719 *     5.3909 *  0.0000     2          
   629  Li    c      1.9603 *   -11.2719 *     9.3116 *  0.0000     2          
   630  Li    c     13.7224 *     0.4901 *     5.3909 *  0.0000     2          
   631  Li    c      3.9207 *    14.2124 *     1.4703 *  0.0000     2          
   632  Li    c      0.0000       8.3314 *   -12.2521 *  0.0000     1          
   633  Li    c      0.0000      12.2521 *    -8.3314 *  0.0000     1          
   634  Li    c      3.9207 *    12.2521 *     7.3513 *  0.0000     2          
   635  Li    c      3.9207 *    -7.3513 *   -12.2521 *  0.0000     2          
   636  Li    c     11.7620 *    -3.4306 *    -8.3314 *  0.0000     2          
   637  Li    c      3.9207 *    -1.4703 *   -14.2124 *  0.0000     2          
   638  Li    c     11.7620 *     6.3711 *    -6.3711 *  0.0000     2          
   639  Li    c     11.7620 *     8.3314 *     3.4306 *  0.0000     2          
   640  Li    c      3.9207 *    -5.3909 *    13.2323 *  0.0000     2          
   641  Li    c      3.9207 *   -13.2323 *     5.3909 *  0.0000     2          
   642  O     c      0.0000       4.4108 *   -14.2124 *  0.0000     1          
   643  Cl    c      9.8017 *    10.2918 *    -4.4108 *  0.0000     2          
   644  O     c      7.8414 *    -7.3513 *   -10.2918 *  0.0000     2          
   645  Li    c      9.8017 *     4.4108 *   -10.2918 *  0.0000     2          
   646  Cl    c      5.8810 *   -13.2323 *     3.4306 *  0.0000     2          
   647  O     c     11.7620 *    -7.3513 *     5.3909 *  0.0000     2          
   648  Li    c      5.8810 *    -3.4306 *    13.2323 *  0.0000     2          
   649  Li    c     -7.8414 *    12.2521 *     3.4306 *  0.0000     2          
   650  Li    c     -7.8414 *    -3.4306 *   -12.2521 *  0.0000     2          
   651  Li    c      3.9207 *     2.4504 *   -14.2124 *  0.0000     2          
   652  Li    c      3.9207 *    14.2124 *    -2.4504 *  0.0000     2          
   653  Cl    c      1.9603 *    14.2124 *    -4.4108 *  0.0000     2          
   654  Li    c      1.9603 *     4.4108 *   -14.2124 *  0.0000     2          
   655  Li    c      5.8810 *    12.2521 *    -6.3711 *  0.0000     2          
   656  Cl    c      5.8810 *     6.3711 *   -12.2521 *  0.0000     2          
   657  O     c     11.7620 *     0.4901 *     9.3116 *  0.0000     2          
   658  Li    c      9.8017 *   -11.2719 *     1.4703 *  0.0000     2          
   659  Cl    c      9.8017 *    -1.4703 *    11.2719 *  0.0000     2          
   660  Li    c      3.9207 *    10.2918 *   -10.2918 *  0.0000     2          
   661  Li    c     11.7620 *     4.4108 *    -8.3314 *  0.0000     2          
   662  Li    c     11.7620 *     8.3314 *    -4.4108 *  0.0000     2          
   663  Li    c     11.7620 *    -1.4703 *     9.3116 *  0.0000     2          
   664  Li    c     11.7620 *    -9.3116 *     1.4703 *  0.0000     2          
   665  O     c      3.9207 *    -3.4306 *   -14.2124 *  0.0000     2          
   666  Cl    c     13.7224 *     6.3711 *    -0.4901 *  0.0000     2          
   667  O     c      7.8414 *   -11.2719 *    -6.3711 *  0.0000     2          
   668  Li    c     13.7224 *     0.4901 *    -6.3711 *  0.0000     2          
   669  Cl    c      5.8810 *   -13.2323 *    -4.4108 *  0.0000     2          
   670  Cl    c      9.8017 *     2.4504 *    11.2719 *  0.0000     2          
   671  Cl    c     13.7224 *    -5.3909 *     3.4306 *  0.0000     2          
   672  O     c      0.0000      -7.3513 *    13.2323 *  0.0000     1          
   673  O     c      3.9207 *   -11.2719 *     9.3116 *  0.0000     2          
   674  Li    c      5.8810 *     4.4108 *    13.2323 *  0.0000     2          
   675  Li    c      9.8017 *   -11.2719 *    -2.4504 *  0.0000     2          
   676  Li    c     13.7224 *    -3.4306 *     5.3909 *  0.0000     2          
   677  Li    c     -7.8414 *     4.4108 *   -12.2521 *  0.0000     2          
   678  Li    c     -7.8414 *    12.2521 *    -4.4108 *  0.0000     2          
   679  Li    c      0.0000      14.2124 *     5.3909 *  0.0000     1          
   680  Li    c      0.0000      -5.3909 *   -14.2124 *  0.0000     1          
   681  Li    c      0.0000       0.4901 *    15.1926 *  0.0000     1          
   682  Li    c      0.0000     -15.1926 *    -0.4901 *  0.0000     1          
   683  Li    c      3.9207 *   -13.2323 *    -6.3711 *  0.0000     2          
   684  Li    c     -3.9207 *     6.3711 *    13.2323 *  0.0000     2          
   685  Li    c     11.7620 *     2.4504 *     9.3116 *  0.0000     2          
   686  Li    c     11.7620 *    -9.3116 *    -2.4504 *  0.0000     2          
   687  O     c      0.0000     -11.2719 *   -10.2918 *  0.0000     1          
   688  O     c      0.0000     -15.1926 *     1.4703 *  0.0000     1          
   689  O     c     11.7620 *    -7.3513 *    -6.3711 *  0.0000     2          
   690  Cl    c      1.9603 *   -13.2323 *     7.3513 *  0.0000     2          
   691  Li    c      1.9603 *    -7.3513 *    13.2323 *  0.0000     2          
   692  Li    c      3.9207 *    12.2521 *    -8.3314 *  0.0000     2          
   693  Li    c      3.9207 *     8.3314 *   -12.2521 *  0.0000     2          
   694  Li    c     -7.8414 *    -9.3116 *     9.3116 *  0.0000     2          
   695  Cl    c      5.8810 *    14.2124 *    -0.4901 *  0.0000     2          
   696  O     c      3.9207 *     4.4108 *   -14.2124 *  0.0000     2          
   697  O     c      7.8414 *     8.3314 *   -10.2918 *  0.0000     2          
   698  Li    c      5.8810 *     0.4901 *   -14.2124 *  0.0000     2          
   699  O     c      0.0000      12.2521 *     9.3116 *  0.0000     1          
[...]
   2019 y         -3.920675     -3.921256    -0.000581    Cartesian    0.01
   2019 z         -3.920675     -3.921554    -0.000879    Cartesian    0.02
   2020 x          7.841351      7.842627     0.001276    Cartesian    0.02
   2020 y         19.603377     19.607587     0.004209    Cartesian    0.02
   2020 z          0.000000     -0.000317    -0.000317    Cartesian    0.00
   2021 x          9.801689      9.801602    -0.000087    Cartesian   -0.00
   2021 y         17.643040     17.643124     0.000085    Cartesian    0.00
   2021 z         -5.881013     -5.881122    -0.000108    Cartesian    0.00
   2022 x          7.841351      7.842968     0.001617    Cartesian    0.02
   2022 y         15.682702     15.686630     0.003928    Cartesian    0.03
   2022 z         11.762026     11.765019     0.002992    Cartesian    0.03
   2023 x         15.682702     15.684714     0.002012    Cartesian    0.01
   2023 y         11.762026     11.763792     0.001766    Cartesian    0.02
   2023 z         -7.841351     -7.842835    -0.001484    Cartesian    0.02
   2024 x          5.881013      5.880948    -0.000065    Cartesian   -0.00
   2024 y          5.881013      5.880973    -0.000040    Cartesian   -0.00
   2024 z        -17.643040    -17.643368    -0.000328    Cartesian    0.00
   2025 x          5.881013      5.881293     0.000280    Cartesian    0.00
   2025 y         17.643040     17.644832     0.001793    Cartesian    0.01
   2025 z          9.801689      9.802743     0.001054    Cartesian    0.01
   2026 x        -13.722364    -13.723268    -0.000904    Cartesian    0.01
   2026 y         -1.960338     -1.960265     0.000073    Cartesian   -0.00
   2026 z         -9.801689     -9.802196    -0.000507    Cartesian    0.01
   2027 x         11.762026     11.763603     0.001576    Cartesian    0.01
   2027 y          3.920675      3.921343     0.000668    Cartesian    0.02
   2027 z        -15.682702    -15.685856    -0.003154    Cartesian    0.02
   2028 x         15.682702     15.685878     0.003176    Cartesian    0.02
   2028 y        -11.762026    -11.764251    -0.002225    Cartesian    0.02
   2028 z          0.000000     -0.000422    -0.000422    Cartesian    0.00
   2029 x         19.603377     19.607772     0.004395    Cartesian    0.02
   2029 y          7.841351      7.842932     0.001581    Cartesian    0.02
   2029 z          3.920675      3.921123     0.000447    Cartesian    0.01
   2030 x          1.960338      1.960338     0.000000    Cartesian    0.00
   2030 y          9.801689      9.802941     0.001252    Cartesian    0.01
   2030 z         17.643040     17.645017     0.001977    Cartesian    0.01
   2031 x          5.881013      5.880973    -0.000040    Cartesian   -0.00
   2031 y         -5.881013     -5.881104    -0.000090    Cartesian    0.00
   2031 z         17.643040     17.643897     0.000857    Cartesian    0.00
   2032 x          9.801689      9.802775     0.001086    Cartesian    0.01
   2032 y         -9.801689     -9.803196    -0.001508    Cartesian    0.02
   2032 z         13.722364     13.723841     0.001477    Cartesian    0.01
   2033 x          1.960338      1.960338     0.000000    Cartesian    0.00
   2033 y         17.643040     17.644488     0.001449    Cartesian    0.01
   2033 z         -9.801689     -9.802688    -0.000999    Cartesian    0.01
   2034 x          5.881013      5.881007    -0.000006    Cartesian   -0.00
   2034 y         13.722364     13.723192     0.000828    Cartesian    0.01
   2034 z        -13.722364    -13.723172    -0.000808    Cartesian    0.01
   2035 x         11.762026     11.763639     0.001612    Cartesian    0.01
   2035 y         15.682702     15.685026     0.002324    Cartesian    0.01
   2035 z         -7.841351     -7.842887    -0.001536    Cartesian    0.02
   2036 x          3.920675      3.921246     0.000570    Cartesian    0.01
   2036 y        -15.682702    -15.687325    -0.004623    Cartesian    0.03
   2036 z         -7.841351     -7.844086    -0.002735    Cartesian    0.03
   2037 x         11.762026     11.764836     0.002809    Cartesian    0.02
   2037 y          7.841351      7.843467     0.002116    Cartesian    0.03
   2037 z         15.682702     15.686537     0.003835    Cartesian    0.02
   2038 x         15.682702     15.685457     0.002755    Cartesian    0.02
   2038 y         -3.920675     -3.921500    -0.000824    Cartesian    0.02
   2038 z        -11.762026    -11.764878    -0.002851    Cartesian    0.02
   2039 x         19.603377     19.607863     0.004485    Cartesian    0.02
   2039 y          0.000000      0.000159     0.000159    Cartesian    0.00
   2039 z          7.841351      7.842787     0.001436    Cartesian    0.02
   2040 x          9.801689      9.802594     0.000905    Cartesian    0.01
   2040 y         -1.960338     -1.960560    -0.000222    Cartesian    0.01
   2040 z         17.643040     17.644778     0.001738    Cartesian    0.01
   2041 x         13.722364     13.724510     0.002146    Cartesian    0.02
   2041 y         -5.881013     -5.882414    -0.001401    Cartesian    0.02
   2041 z         13.722364     13.724541     0.002176    Cartesian    0.02
   2042 x          1.960338      1.960338     0.000000    Cartesian    0.00
   2042 y        -17.643040    -17.644776    -0.001736    Cartesian    0.01
   2042 z          1.960338      1.960286    -0.000052    Cartesian   -0.00
   2043 x          7.841351      7.842930     0.001579    Cartesian    0.02
   2043 y         11.762026     11.765217     0.003191    Cartesian    0.03
   2043 z         15.682702     15.686389     0.003687    Cartesian    0.02
   2044 x        -13.722364    -13.723258    -0.000893    Cartesian    0.01
   2044 y          5.881013      5.881019     0.000006    Cartesian    0.00
   2044 z         -9.801689     -9.802258    -0.000569    Cartesian    0.01
   2045 x          3.920675      3.920990     0.000315    Cartesian    0.01
   2045 y         11.762026     11.764026     0.002000    Cartesian    0.02
   2045 z        -15.682702    -15.686615    -0.003913    Cartesian    0.02
   2046 x         19.603377     19.608081     0.004703    Cartesian    0.02
   2046 y          3.920675      3.921505     0.000829    Cartesian    0.02
   2046 z          7.841351      7.842806     0.001456    Cartesian    0.02
   2047 x         19.603377     19.607397     0.004020    Cartesian    0.02
   2047 y          7.841351      7.842708     0.001357    Cartesian    0.02
   2047 z         -3.920675     -3.921565    -0.000890    Cartesian    0.02
   2048 x         13.722364     13.724227     0.001863    Cartesian    0.01
   2048 y         -9.801689     -9.803113    -0.001424    Cartesian    0.01
   2048 z         -9.801689     -9.803337    -0.001648    Cartesian    0.02
   2049 x         13.722364     13.723662     0.001298    Cartesian    0.01
   2049 y        -13.722364    -13.724146    -0.001782    Cartesian    0.01
   2049 z          1.960338      1.960385     0.000047    Cartesian    0.00
   2050 x          3.920675      3.921155     0.000480    Cartesian    0.01
   2050 y          0.000000      0.000050     0.000050    Cartesian    0.00
   2050 z         19.603377     19.608075     0.004698    Cartesian    0.02
   2051 x          1.960338      1.960338     0.000000    Cartesian    0.00
   2051 y        -17.643040    -17.644488    -0.001448    Cartesian    0.01
   2051 z         -1.960338     -1.960629    -0.000291    Cartesian    0.01
   2052 x          7.841351      7.842836     0.001485    Cartesian    0.02
   2052 y         19.603377     19.608418     0.005040    Cartesian    0.03
   2052 z          3.920675      3.921382     0.000706    Cartesian    0.02
   2053 x         13.722364     13.724663     0.002298    Cartesian    0.02
   2053 y         13.722364     13.724710     0.002346    Cartesian    0.02
   2053 z          9.801689      9.803512     0.001823    Cartesian    0.02
   2054 x         13.722364     13.723726     0.001362    Cartesian    0.01
   2054 y        -13.722364    -13.723750    -0.001386    Cartesian    0.01
   2054 z         -1.960338     -1.960498    -0.000160    Cartesian    0.01
   2055 x         -5.881013     -5.882001    -0.000988    Cartesian    0.02
   2055 y          5.881013      5.881525     0.000512    Cartesian    0.01
   2055 z         17.643040     17.644896     0.001856    Cartesian    0.01
   2056 x        -13.722364    -13.723749    -0.001384    Cartesian    0.01
   2056 y         -9.801689     -9.802525    -0.000836    Cartesian    0.01
   2056 z          1.960338      1.960179    -0.000159    Cartesian   -0.01
   2057 x          3.920675      3.921215     0.000540    Cartesian    0.01
   2057 y          3.920675      3.921706     0.001030    Cartesian    0.03
   2057 z         19.603377     19.608699     0.005321    Cartesian    0.03
   2058 x         15.682702     15.686204     0.003502    Cartesian    0.02
   2058 y        -11.762026    -11.765033    -0.003006    Cartesian    0.03
   2058 z          3.920675      3.921426     0.000750    Cartesian    0.02
   2059 x        -13.722364    -13.723732    -0.001368    Cartesian    0.01
   2059 y         -9.801689     -9.802400    -0.000711    Cartesian    0.01
   2059 z         -1.960338     -1.960355    -0.000017    Cartesian    0.00
   2060 x         15.682702     15.685626     0.002924    Cartesian    0.02
   2060 y          7.841351      7.842631     0.001280    Cartesian    0.02
   2060 z        -11.762026    -11.764595    -0.002569    Cartesian    0.02
   2061 x          5.881013      5.881328     0.000315    Cartesian    0.01
   2061 y          9.801689      9.802859     0.001170    Cartesian    0.01
   2061 z         17.643040     17.644955     0.001915    Cartesian    0.01
   2062 x          9.801689      9.803475     0.001786    Cartesian    0.02
   2062 y        -13.722364    -13.724626    -0.002261    Cartesian    0.02
   2062 z          9.801689      9.803406     0.001717    Cartesian    0.02
   2063 x          7.841351      7.842641     0.001290    Cartesian    0.02
   2063 y         19.603377     19.608243     0.004866    Cartesian    0.02
   2063 z         -3.920675     -3.921811    -0.001136    Cartesian    0.03
   2064 x          5.881013      5.881726     0.000713    Cartesian    0.01
   2064 y         17.643040     17.645080     0.002040    Cartesian    0.01
   2064 z         -9.801689     -9.802896    -0.001208    Cartesian    0.01
   2065 x          1.960338      1.960338     0.000000    Cartesian    0.00
   2065 y         -5.881013     -5.881886    -0.000873    Cartesian    0.01
   2065 z        -17.643040    -17.644793    -0.001753    Cartesian    0.01
   2066 x         13.722364     13.724729     0.002365    Cartesian    0.02
   2066 y          9.801689      9.803605     0.001916    Cartesian    0.02
   2066 z         13.722364     13.724795     0.002431    Cartesian    0.02
   2067 x          7.841351      7.842856     0.001505    Cartesian    0.02
   2067 y         -7.841351     -7.843305    -0.001954    Cartesian    0.02
   2067 z        -15.682702    -15.686949    -0.004247    Cartesian    0.03
   2068 x          7.841351      7.843387     0.002036    Cartesian    0.03
   2068 y        -15.682702    -15.688195    -0.005493    Cartesian    0.04
   2068 z          7.841351      7.843371     0.002020    Cartesian    0.03
   2069 x         15.682702     15.686351     0.003649    Cartesian    0.02
   2069 y        -11.762026    -11.764798    -0.002772    Cartesian    0.02
   2069 z         -3.920675     -3.922058    -0.001383    Cartesian    0.04
   2070 x         19.603377     19.608032     0.004655    Cartesian    0.02
   2070 y          0.000000     -0.000305    -0.000305    Cartesian    0.00
   2070 z         -7.841351     -7.843250    -0.001899    Cartesian    0.02
   2071 x          5.881013      5.881802     0.000789    Cartesian    0.01
   2071 y        -17.643040    -17.645083    -0.002043    Cartesian    0.01
   2071 z          1.960338      1.960232    -0.000106    Cartesian   -0.01
   2072 x          3.920675      3.921375     0.000699    Cartesian    0.02
   2072 y         19.603377     19.609106     0.005729    Cartesian    0.03
   2072 z          7.841351      7.843318     0.001967    Cartesian    0.03
   2073 x          7.841351      7.842706     0.001355    Cartesian    0.02
   2073 y         15.682702     15.686263     0.003561    Cartesian    0.02
   2073 z        -11.762026    -11.764853    -0.002826    Cartesian    0.02
   2074 x         -5.881013     -5.882757    -0.001744    Cartesian    0.03
   2074 y         13.722364     13.724760     0.002396    Cartesian    0.02
   2074 z         13.722364     13.724782     0.002418    Cartesian    0.02
   2075 x         11.762026     11.764562     0.002535    Cartesian    0.02
   2075 y         -3.920675     -3.921813    -0.001137    Cartesian    0.03
   2075 z        -15.682702    -15.687183    -0.004481    Cartesian    0.03
   2076 x         19.603377     19.608028     0.004650    Cartesian    0.02
   2076 y          3.920675      3.921554     0.000879    Cartesian    0.02
   2076 z         -7.841351     -7.843254    -0.001903    Cartesian    0.02
   2077 x         17.643040     17.645516     0.002477    Cartesian    0.01
   2077 y         -5.881013     -5.882440    -0.001427    Cartesian    0.02
   2077 z          9.801689      9.803265     0.001576    Cartesian    0.02
   2078 x          5.881013      5.881979     0.000965    Cartesian    0.02
   2078 y        -17.643040    -17.645788    -0.002749    Cartesian    0.02
   2078 z         -1.960338     -1.961263    -0.000925    Cartesian    0.05
   2079 x         21.563715     21.564497     0.000782    Cartesian    0.00
   2079 y          1.960338      1.960198    -0.000140    Cartesian   -0.01
   2079 z          1.960338      1.960227    -0.000111    Cartesian   -0.01
   2080 x         15.682702     15.686597     0.003895    Cartesian    0.02
   2080 y         15.682702     15.687273     0.004571    Cartesian    0.03
   2080 z          0.000000     -0.000158    -0.000158    Cartesian    0.00
   2081 x          9.801689      9.802388     0.000699    Cartesian    0.01
   2081 y          1.960338      1.960417     0.000079    Cartesian    0.00
   2081 z        -17.643040    -17.644404    -0.001365    Cartesian    0.01
   2082 x          9.801689      9.803233     0.001544    Cartesian    0.02
   2082 y         -9.801689     -9.803258    -0.001570    Cartesian    0.02
   2082 z        -13.722364    -13.724455    -0.002091    Cartesian    0.02
   2083 x         11.762026     11.765357     0.003331    Cartesian    0.03
   2083 y        -15.682702    -15.688412    -0.005710    Cartesian    0.04
   2083 z          0.000000     -0.000401    -0.000401    Cartesian    0.00
   2084 x         21.563715     21.565034     0.001319    Cartesian    0.01
   2084 y          1.960338      1.960332    -0.000006    Cartesian   -0.00
   2084 z         -1.960338     -1.960835    -0.000497    Cartesian    0.03
   2085 x         13.722364     13.724004     0.001640    Cartesian    0.01
   2085 y         13.722364     13.724069     0.001705    Cartesian    0.01
   2085 z         -9.801689     -9.803333    -0.001644    Cartesian    0.02
   2086 x         13.722364     13.724248     0.001884    Cartesian    0.01
   2086 y         -5.881013     -5.882243    -0.001229    Cartesian    0.02
   2086 z        -13.722364    -13.724452    -0.002087    Cartesian    0.02
   2087 x         19.603377     19.608938     0.005561    Cartesian    0.03
   2087 y         -3.920675     -3.922054    -0.001378    Cartesian    0.04
   2087 z          7.841351      7.843206     0.001855    Cartesian    0.02
   2088 x          1.960338      1.960338     0.000000    Cartesian    0.00
   2088 y        -17.643040    -17.644932    -0.001893    Cartesian    0.01
   2088 z          5.881013      5.881818     0.000805    Cartesian    0.01
   2089 x          1.960338      1.960338     0.000000    Cartesian    0.00
   2089 y          9.801689      9.802990     0.001302    Cartesian    0.01
   2089 z        -17.643040    -17.645891    -0.002851    Cartesian    0.02
   2090 x          5.881013      5.881884     0.000871    Cartesian    0.01
   2090 y         -5.881013     -5.882047    -0.001034    Cartesian    0.02
   2090 z        -17.643040    -17.645521    -0.002481    Cartesian    0.01
   2091 x        -13.722364    -13.724555    -0.002191    Cartesian    0.02
   2091 y         13.722364     13.724217     0.001853    Cartesian    0.01
   2091 z          1.960338      1.961079     0.000741    Cartesian    0.04
   2092 x         19.603377     19.608958     0.005580    Cartesian    0.03
   2092 y         -7.841351     -7.843370    -0.002019    Cartesian    0.03
   2092 z          0.000000     -0.000303    -0.000303    Cartesian    0.00
   2093 x          9.801689      9.803319     0.001630    Cartesian    0.02
   2093 y        -13.722364    -13.724539    -0.002175    Cartesian    0.02
   2093 z         -9.801689     -9.803633    -0.001944    Cartesian    0.02
   2094 x         13.722364     13.724722     0.002358    Cartesian    0.02
   2094 y        -13.722364    -13.725069    -0.002704    Cartesian    0.02
   2094 z          5.881013      5.882188     0.001175    Cartesian    0.02
   2095 x          3.920675      3.921415     0.000740    Cartesian    0.02
   2095 y         -3.920675     -3.921914    -0.001238    Cartesian    0.03
   2095 z         19.603377     19.609570     0.006193    Cartesian    0.03
   2096 x          7.841351      7.843360     0.002009    Cartesian    0.03
   2096 y        -15.682702    -15.687925    -0.005223    Cartesian    0.03
   2096 z         -7.841351     -7.844367    -0.003016    Cartesian    0.04
   2097 x         11.762026     11.764282     0.002256    Cartesian    0.02
   2097 y          7.841351      7.843070     0.001719    Cartesian    0.02
   2097 z        -15.682702    -15.687251    -0.004549    Cartesian    0.03
   2098 x         11.762026     11.766079     0.004052    Cartesian    0.03
   2098 y        -11.762026    -11.766674    -0.004648    Cartesian    0.04
   2098 z         11.762026     11.766069     0.004042    Cartesian    0.03
   2099 x         21.563715     21.566102     0.002387    Cartesian    0.01
   2099 y         -1.960338     -1.960928    -0.000590    Cartesian    0.03
   2099 z          1.960338      1.960920     0.000582    Cartesian    0.03
--------------------------------------------------------------------------------


  Time to end of optimisation  =      401.9114 seconds


  Peak dynamic memory used =    1735.87 MB 


  Timing analysis for GULP :

--------------------------------------------------------------------------------
  Task / Subroutine                                          Time (Seconds)
--------------------------------------------------------------------------------
  Calculation of reciprocal space energy and derivatives          0.0002
  Calculation of reciprocal space energy using symmetry           0.0003
  Calculation of real space energy and derivatives                0.0016
  Calculation of real space energy using symmetry                 0.0033
  Calculation for region 1 energy and derivatives (2-b)         160.2740
  Calculation for region 2a energy                               51.7523
  Calculation for region 2b energy                                0.0029
  Calculation and manipulation of Hessian matrix                  1.5598
  Calculation of matrix inversion                               185.9675
  Symmetry generation of equivalent positions                     0.0017
--------------------------------------------------------------------------------
  Total CPU time                                                401.9115
--------------------------------------------------------------------------------


  Dump file written as Li3OCl.grs


  Job Finished at 14:53.43 23rd October    2020                               

