********************************************************************************
*                       GENERAL UTILITY LATTICE PROGRAM                        *
*                                 Julian Gale                                  *
*                       Curtin Institute for Computation                       *
*                    School of Molecular and Life Sciences                     *
*                    Curtin University, Western Australia                      *
********************************************************************************
* Version = 5.2.0 * Last modified =  10th September 2020                       *
********************************************************************************
*  optimise     - perform optimisation run                                     *
*  conp         - constant pressure calculation                                *
*  property     - calculate properties for final geometry                      *
*  defect       - perform defect calculation after bulk run                    *
*  compare      - compare initial and final structures                         *
********************************************************************************

  Job Started  at 15:00.17 23rd October    2020                               

  Number of CPUs =     1


  Total number of configurations input =      1

********************************************************************************
*  Input for Configuration =   1                                               *
********************************************************************************

  Formula = ClOLi3                                                      

  Number of irreducible atoms/shells =       5


  Total number atoms/shells =       7

  Dimensionality = 3               :  Bulk   


  Symmetry :

  Crystal family                   :  Cubic       
  Crystal class  (Groth - 1921)    :  Cubic Hexakisoctahedral              

  Space group (centrosymmetric)    :  P M 3 M         

  Patterson group                  :  P m -3 m 

  Cartesian lattice vectors (Angstroms) :

        3.918873    0.000000    0.000000
        0.000000    3.918873    0.000000
        0.000000    0.000000    3.918873

  Cell parameters (Angstroms/Degrees):

  a =       3.9189    alpha =  90.0000
  b =       3.9189    beta  =  90.0000
  c =       3.9189    gamma =  90.0000

  Initial cell volume =          60.184349 Angs**3

  Temperature of configuration =   0.00     K 

  Pressure of configuration =         0.000 GPa 

  Fractional coordinates of asymmetric unit :

--------------------------------------------------------------------------------
   No.  Atomic       x           y          z         Charge      Occupancy
        Label      (Frac)      (Frac)     (Frac)        (e)         (Frac)  
--------------------------------------------------------------------------------
      1 Cl    c    0.000000    0.000000    0.000000     1.48500    1.000000    
      2 O     c    0.500000    0.500000    0.500000     0.18300    1.000000    
      3 Li    c    0.500000    0.500000    0.000000     1.00000    1.000000    
      4 Cl    s    0.000000    0.000000    0.000000    -2.48500    1.000000    
      5 O     s    0.500000    0.500000    0.500000    -2.18300    1.000000    
--------------------------------------------------------------------------------


  Constraints : 

--------------------------------------------------------------------------------
  Constraint no.      Unconstrained     Constrained    Coefficient    Offset
                         Variable         Variable
--------------------------------------------------------------------------------
           1              Strain 1        Strain 2       1.00000      0.0000
           2              Strain 1        Strain 3       1.00000      0.0000
--------------------------------------------------------------------------------


********************************************************************************
*  General input information                                                   *
********************************************************************************

  Species output for all configurations : 

--------------------------------------------------------------------------------
  Species    Type    Atomic    Atomic    Charge       Radii (Angs)     Library
                     Number     Mass       (e)     Cova   Ionic  VDW   Symbol
--------------------------------------------------------------------------------
    Li       Core        3       6.94   1.000000   0.680  0.000  1.800          
    O        Core        8      16.00   0.183000   0.730  0.000  1.360          
    O        Shell       8       0.00  -2.183000   0.730  0.000  1.360          
    Cl       Core       17      35.45   1.485000   0.990  0.000  1.650          
    Cl       Shell      17       0.00  -2.485000   0.990  0.000  1.650          
--------------------------------------------------------------------------------


  Lattice summation method               =    Ewald          (3-D)
                                         =    Parry          (2-D)
                                         =    Saunders et al (1-D)
  Accuracy factor for lattice sums       =   12.000


  Analytic derivatives to be used

  Time limit = Infinity

  Maximum range for interatomic potentials =    100000.000000 Angstroms

  General interatomic potentials :

--------------------------------------------------------------------------------
Atom  Types   Potential      Parameter       Value         Units   Cutoffs(Ang)
  1     2                                                            Min /  Max 
--------------------------------------------------------------------------------
O    c O    s Spring (c-s)  Spring k 2       593.72000    eV*Ang^-2 0.000  0.800
                            Spring k 4       0.0000000    eV*Ang^-4 
--------------------------------------------------------------------------------
Cl   c Cl   s Spring (c-s)  Spring k 2       29.380000    eV*Ang^-2 0.000  0.800
                            Spring k 4       0.0000000    eV*Ang^-4 
--------------------------------------------------------------------------------
Li   c Li   c Buckingham    Buckingham A     360.53000    eV        0.000 12.000
                            Buckingham rho  0.16100000    Ang       
                            Buckingham C     0.0000000    eV*Ang^6  
--------------------------------------------------------------------------------
Li   c O    s Buckingham    Buckingham A     292.30000    eV        0.000 12.000
                            Buckingham rho  0.34720000    Ang       
                            Buckingham C     0.0000000    eV*Ang^6  
--------------------------------------------------------------------------------
Li   c Cl   s Buckingham    Buckingham A     421.04000    eV        0.000 12.000
                            Buckingham rho  0.33400000    Ang       
                            Buckingham C     0.0000000    eV*Ang^6  
--------------------------------------------------------------------------------
O    s O    s Buckingham    Buckingham A     22764.300    eV        0.000 12.000
                            Buckingham rho  0.14900000    Ang       
                            Buckingham C     13.190000    eV*Ang^6  
--------------------------------------------------------------------------------
O    s Cl   s Buckingham    Buckingham A     8286.9100    eV        0.000 12.000
                            Buckingham rho  0.25900000    Ang       
                            Buckingham C     62.200000    eV*Ang^6  
--------------------------------------------------------------------------------
Cl   s Cl   s Buckingham    Buckingham A     1227.2000    eV        0.000 12.000
                            Buckingham rho  0.32100000    Ang       
                            Buckingham C     14.530000    eV*Ang^6  
--------------------------------------------------------------------------------

********************************************************************************
*  Output for configuration   1                                                *
********************************************************************************


  Components of energy : 

--------------------------------------------------------------------------------
  Interatomic potentials     =           7.26836263 eV    
  Monopole - monopole (real) =         -11.53475722 eV    
  Monopole - monopole (recip)=         -33.94580548 eV    
  Monopole - monopole (total)=         -45.48056271 eV    
--------------------------------------------------------------------------------
  Total lattice energy       =         -38.21220008 eV    
--------------------------------------------------------------------------------
  Total lattice energy       =           -3686.8932 kJ/(mole unit cells)
--------------------------------------------------------------------------------


  Number of variables =        1

  Maximum number of calculations  =          1000
  Maximum Hessian update interval =            10
  Maximum step size               =   1.000000000
  Maximum parameter tolerance     =   0.000010000
  Maximum function  tolerance     =   0.000010000
  Maximum gradient  tolerance     =   0.001000000
  Maximum gradient  component     =   0.010000000

  Symmetry constrained optimisation

  Symmetry used for second derivatives

  Cell parameters to be optimised using strains

  Newton-Raphson optimiser to be used

  BFGS hessian update to be used

  Lower half triangular hessian to be used

  Start of bulk optimisation :

  Cycle:      0 Energy:       -38.212200  Gnorm:      0.095699  CPU:    0.025
  ** Hessian calculated **
  Cycle:      1 Energy:       -38.212222  Gnorm:      0.000105  CPU:    0.027


  **** Optimisation achieved ****


  Final energy =     -38.21222207 eV
  Final Gnorm  =       0.00000016

  Components of energy : 

--------------------------------------------------------------------------------
  Interatomic potentials     =           7.24743141 eV    
  Monopole - monopole (real) =         -11.52945423 eV    
  Monopole - monopole (recip)=         -33.93019924 eV    
  Monopole - monopole (total)=         -45.45965348 eV    
--------------------------------------------------------------------------------
  Total lattice energy       =         -38.21222207 eV    
--------------------------------------------------------------------------------
  Total lattice energy       =           -3686.8953 kJ/(mole unit cells)
--------------------------------------------------------------------------------

  Final asymmetric unit coordinates :

--------------------------------------------------------------------------------
   No.  Atomic        x           y           z         Radius
        Label       (Frac)      (Frac)      (Frac)       (Angs) 
--------------------------------------------------------------------------------
     1  Cl    c     0.000000    0.000000    0.000000    0.000000
     2  O     c     0.500000    0.500000    0.500000    0.000000
     3  Li    c     0.500000    0.500000    0.000000    0.000000
     4  Cl    s     0.000000    0.000000    0.000000    0.000000
     5  O     s     0.500000    0.500000    0.500000    0.000000
--------------------------------------------------------------------------------

  Final Cartesian lattice vectors (Angstroms) :

        3.920675    0.000000    0.000000
        0.000000    3.920675    0.000000
        0.000000    0.000000    3.920675


  Final cell parameters and derivatives :

--------------------------------------------------------------------------------
       a            3.920675 Angstrom     dE/de1(xx)    -0.000000 eV/strain
       b            3.920675 Angstrom     dE/de2(yy)     0.000000 eV/strain
       c            3.920675 Angstrom     dE/de3(zz)     0.000000 eV/strain
       alpha       90.000000 Degrees      dE/de4(yz)     0.000000 eV/strain
       beta        90.000000 Degrees      dE/de5(xz)     0.000000 eV/strain
       gamma       90.000000 Degrees      dE/de6(xy)     0.000000 eV/strain
--------------------------------------------------------------------------------

  Primitive cell volume =            60.267433 Angs**3

  Density of cell =      1.991276 g/cm**3

  Non-primitive cell volume =            60.267433 Angs**3


  Final internal derivatives :

--------------------------------------------------------------------------------
   No.  Atomic          a             b             c           Radius
        Label          (eV)          (eV)          (eV)        (eV/Angs)
--------------------------------------------------------------------------------
      1 Cl    c       0.000000      0.000000      0.000000      0.000000
      2 O     c       0.000000      0.000000      0.000000      0.000000
      3 Li    c       0.000000      0.000000      0.000000      0.000000
      4 Cl    s       0.000000      0.000000      0.000000      0.000000
      5 O     s       0.000000      0.000000      0.000000      0.000000
--------------------------------------------------------------------------------
  Maximum abs         0.000000      0.000000      0.000000      0.000000
--------------------------------------------------------------------------------

  Comparison of initial and final structures : 

--------------------------------------------------------------------------------
  Parameter   Initial value   Final value   Difference    Units      Percent
--------------------------------------------------------------------------------
    Volume        60.184349     60.267433     0.083084    Angs**3      0.14
    a              3.918873      3.920675     0.001802    Angstroms    0.05
    b              3.918873      3.920675     0.001802    Angstroms    0.05
    c              3.918873      3.920675     0.001802    Angstroms    0.05
    alpha         90.000000     90.000000     0.000000    Degrees      0.00
    beta          90.000000     90.000000     0.000000    Degrees      0.00
    gamma         90.000000     90.000000     0.000000    Degrees      0.00
      1 x          0.000000      0.000000     0.000000    Fractional   0.00
      1 y          0.000000      0.000000     0.000000    Fractional   0.00
      1 z          0.000000      0.000000     0.000000    Fractional   0.00
      2 x          0.500000      0.500000     0.000000    Fractional   0.00
      2 y          0.500000      0.500000     0.000000    Fractional   0.00
      2 z          0.500000      0.500000     0.000000    Fractional   0.00
      3 x          0.500000      0.500000     0.000000    Fractional   0.00
      3 y          0.500000      0.500000     0.000000    Fractional   0.00
      3 z          0.000000      0.000000     0.000000    Fractional   0.00
      4 x          0.000000      0.000000     0.000000    Fractional   0.00
      4 y          0.000000      0.000000     0.000000    Fractional   0.00
      4 z          0.000000      0.000000     0.000000    Fractional   0.00
      5 x          0.500000      0.500000     0.000000    Fractional   0.00
      5 y          0.500000      0.500000     0.000000    Fractional   0.00
      5 z          0.500000      0.500000     0.000000    Fractional   0.00
--------------------------------------------------------------------------------


  Born effective charge tensors : 

-------------------------------------------------------------------------------
  Atom             x           y             z
-------------------------------------------------------------------------------
    1 Cl    x      -0.9489     -0.0000     -0.0000
            y      -0.0000     -0.9489     -0.0000
            z      -0.0000     -0.0000     -0.9489
-------------------------------------------------------------------------------
    2 O     x      -2.4688      0.0000      0.0000
            y       0.0000     -2.4688      0.0000
            z       0.0000      0.0000     -2.4688
-------------------------------------------------------------------------------
    3 Li    x       1.3129      0.0000     -0.0000
            y       0.0000      1.3129      0.0000
            z      -0.0000      0.0000      0.7919
-------------------------------------------------------------------------------




  Elastic Constant Matrix: (Units=GPa)

-------------------------------------------------------------------------------
  Indices      1         2         3         4         5         6    
-------------------------------------------------------------------------------
       1     94.3368   44.9178   44.9178    0.0000   -0.0000    0.0000
       2     44.9178   94.3368   44.9178   -0.0000    0.0000   -0.0000
       3     44.9178   44.9178   94.3368    0.0000   -0.0000    0.0000
       4      0.0000   -0.0000    0.0000   44.9178   -0.0000    0.0000
       5     -0.0000    0.0000   -0.0000   -0.0000   44.9178    0.0000
       6      0.0000   -0.0000    0.0000    0.0000    0.0000   44.9178
-------------------------------------------------------------------------------


  Elastic Compliance Matrix: (Units=1/GPa)

-------------------------------------------------------------------------------
  Indices      1         2         3         4         5         6    
-------------------------------------------------------------------------------
       1    0.015300 -0.004935 -0.004935 -0.000000  0.000000 -0.000000
       2   -0.004935  0.015300 -0.004935  0.000000 -0.000000  0.000000
       3   -0.004935 -0.004935  0.015300 -0.000000  0.000000 -0.000000
       4   -0.000000  0.000000 -0.000000  0.022263  0.000000 -0.000000
       5    0.000000 -0.000000  0.000000  0.000000  0.022263 -0.000000
       6   -0.000000  0.000000 -0.000000 -0.000000 -0.000000  0.022263
-------------------------------------------------------------------------------

  Mechanical properties :

-------------------------------------------------------------------------------
  Convention :                    Reuss         Voigt         Hill
-------------------------------------------------------------------------------
  Bulk  Modulus (GPa)     =      61.39080      61.39080      61.39080
  Shear Modulus (GPa)     =      33.84570      36.83448      35.34009
-------------------------------------------------------------------------------
  Velocity S-wave (km/s)  =       4.12274       4.30092       4.21277
  Velocity P-wave (km/s)  =       7.31386       7.44942       7.38195
-------------------------------------------------------------------------------
  Compressibility (1/GPa) =    0.01628909
-------------------------------------------------------------------------------
  Stress axis :                     x             y             z
-------------------------------------------------------------------------------
  Youngs Moduli (GPa)     =      65.35947      65.35947      65.35947
-------------------------------------------------------------------------------
  Poissons Ratio (x)      =                     0.32256       0.32256
  Poissons Ratio (y)      =       0.32256                     0.32256
  Poissons Ratio (z)      =       0.32256       0.32256
-------------------------------------------------------------------------------


  Piezoelectric Strain Matrix: (Units=C/m**2)

-------------------------------------------------------------------------------
  Indices      1         2         3         4         5         6    
-------------------------------------------------------------------------------
       x    -0.00000   0.00000   0.00000  -0.00000  -0.00000   0.00000
       y    -0.00000   0.00000   0.00000  -0.00000  -0.00000  -0.00000
       z     0.00000   0.00000   0.00000   0.00000  -0.00000  -0.00000
-------------------------------------------------------------------------------


  Piezoelectric Stress Matrix: (Units=10**-11 C/N)

-------------------------------------------------------------------------------
  Indices      1         2         3         4         5         6    
-------------------------------------------------------------------------------
       x    -0.00000   0.00000   0.00000  -0.00000  -0.00000   0.00000
       y    -0.00000   0.00000   0.00000  -0.00000  -0.00000  -0.00000
       z    -0.00000  -0.00000   0.00000   0.00000  -0.00000  -0.00000
-------------------------------------------------------------------------------


  Static dielectric constant tensor : 

-------------------------------------------------------------------------------
              x         y         z
-------------------------------------------------------------------------------
       x    12.11703   0.00000  -0.00000
       y     0.00000  12.11703  -0.00000
       z    -0.00000  -0.00000  12.11703
--------------------------------------------------------------------------------

  High frequency dielectric constant tensor : 

-------------------------------------------------------------------------------
              x         y         z
-------------------------------------------------------------------------------
       x     1.74104   0.00000   0.00000
       y     0.00000   1.74104   0.00000
       z     0.00000   0.00000   1.74104
-------------------------------------------------------------------------------

  Static refractive indices : 

-------------------------------------------------------------------------------
    1 =    3.48095      2 =    3.48095      3 =    3.48095
-------------------------------------------------------------------------------

  High frequency refractive indices : 

-------------------------------------------------------------------------------
    1 =    1.31948      2 =    1.31948      3 =    1.31948
-------------------------------------------------------------------------------


  Time to end of optimisation =       0.0351 seconds

********************************************************************************
*  Defect calculation for configuration   1 :                                  *
********************************************************************************

  Total number of defects =      3

  Total charge on defect  =  -1.00

  Defect centre is at   0.5000   0.4250   0.0750  Frac

  Region 1 radius =  20.0000      Number of ions =   3866

  Number of symmetry inequivalent region 1 ions  =   2096

  Region 2 radius =  24.0000      Number of ions =   2878

  Number of symmetry inequivalent region 2a ions =   1511

  Region 2a mode = 4 : screened electrostatics due to region 1 
                       neglect correction to region 1 forces from 2a
                       region 2a displacements based on defects only

  Region 2a ions will only interact with defects in region 1

  Vacancies:

--------------------------------------------------------------------------------
    Specification type     Symbol/Number         x          y          z
--------------------------------------------------------------------------------
    Fractional                               0.500000   0.500000   0.000000
    Fractional                               0.500000   0.000000   0.500000
--------------------------------------------------------------------------------

  Interstitials:

--------------------------------------------------------------------------------
    Specification type     Symbol/Number         x          y          z
--------------------------------------------------------------------------------
    Atom/Fractional         Li               0.500000   0.425000   0.075000
--------------------------------------------------------------------------------


  Symmetry reduced region 1 (Relative to defect centre) :

--------------------------------------------------------------------------------
   No.   Atomic       x            y             z       Radius  Multiplicity   
         Label      (Angs)       (Angs)        (Angs)    (Angs)     
--------------------------------------------------------------------------------
     1  Li    c      0.0000       0.0000       0.0000    0.0000     1    Defect
     2  O     c      0.0000       0.2941 *     1.6663 *  0.0000     1          
     3  O     c      0.0000       0.2941 *    -2.2544 *  0.0000     1          
     4  Li    c      1.9603 *     0.2941 *     1.6663 *  0.0000     2          
     5  Cl    c      1.9603 *    -1.6663 *    -0.2941 *  0.0000     2          
     6  Li    c      0.0000       2.2544 *     1.6663 *  0.0000     1          
     7  Li    c      0.0000      -1.6663 *    -2.2544 *  0.0000     1          
     8  Cl    c      1.9603 *     2.2544 *    -0.2941 *  0.0000     2          
     9  Li    c      1.9603 *     0.2941 *    -2.2544 *  0.0000     2          
    10  Li    c      0.0000       2.2544 *    -2.2544 *  0.0000     1          
    11  Li    c      0.0000       0.2941 *     3.6266 *  0.0000     1          
    12  Li    c      0.0000      -3.6266 *    -0.2941 *  0.0000     1          
    13  Li    c     -3.9207 *     0.2941 *    -0.2941 *  0.0000     2          
    14  O     c      0.0000      -3.6266 *     1.6663 *  0.0000     1          
    15  Li    c      0.0000       0.2941 *    -4.2147 *  0.0000     1          
    16  Li    c      0.0000       4.2147 *    -0.2941 *  0.0000     1          
    17  O     c      0.0000      -3.6266 *    -2.2544 *  0.0000     1          
    18  O     c     -3.9207 *     0.2941 *     1.6663 *  0.0000     2          
    19  Cl    c      1.9603 *    -1.6663 *     3.6266 *  0.0000     2          
    20  Li    c      1.9603 *    -3.6266 *     1.6663 *  0.0000     2          
    21  O     c      0.0000       4.2147 *     1.6663 *  0.0000     1          
    22  O     c     -3.9207 *     0.2941 *    -2.2544 *  0.0000     2          
    23  Li    c     -3.9207 *    -1.6663 *     1.6663 *  0.0000     2          
    24  Cl    c      1.9603 *     2.2544 *     3.6266 *  0.0000     2          
    25  Li    c      1.9603 *    -3.6266 *    -2.2544 *  0.0000     2          
    26  O     c      0.0000       4.2147 *    -2.2544 *  0.0000     1          
    27  Li    c     -3.9207 *     2.2544 *     1.6663 *  0.0000     2          
    28  Li    c     -3.9207 *    -1.6663 *    -2.2544 *  0.0000     2          
    29  Cl    c      1.9603 *    -1.6663 *    -4.2147 *  0.0000     2          
    30  Li    c      1.9603 *     4.2147 *     1.6663 *  0.0000     2          
    31  Li    c     -3.9207 *     2.2544 *    -2.2544 *  0.0000     2          
    32  Li    c      0.0000      -3.6266 *     3.6266 *  0.0000     1          
    33  Cl    c      1.9603 *     2.2544 *    -4.2147 *  0.0000     2          
    34  Li    c      1.9603 *     4.2147 *    -2.2544 *  0.0000     2          
    35  Li    c     -3.9207 *     0.2941 *     3.6266 *  0.0000     2          
    36  Li    c      3.9207 *    -3.6266 *    -0.2941 *  0.0000     2          
    37  Li    c      0.0000       4.2147 *     3.6266 *  0.0000     1          
    38  Li    c      0.0000      -3.6266 *    -4.2147 *  0.0000     1          
    39  O     c      0.0000       0.2941 *     5.5870 *  0.0000     1          
    40  O     c      3.9207 *    -3.6266 *     1.6663 *  0.0000     2          
    41  Li    c     -3.9207 *     4.2147 *    -0.2941 *  0.0000     2          
    42  Li    c      3.9207 *     0.2941 *    -4.2147 *  0.0000     2          
    43  O     c      3.9207 *    -3.6266 *    -2.2544 *  0.0000     2          
    44  Li    c      0.0000      -1.6663 *     5.5870 *  0.0000     1          
    45  Li    c      0.0000      -5.5870 *     1.6663 *  0.0000     1          
    46  Cl    c      1.9603 *    -5.5870 *    -0.2941 *  0.0000     2          
    47  Li    c      1.9603 *     0.2941 *     5.5870 *  0.0000     2          
    48  Li    c      0.0000       4.2147 *    -4.2147 *  0.0000     1          
    49  O     c     -3.9207 *     4.2147 *     1.6663 *  0.0000     2          
    50  Li    c      0.0000       2.2544 *     5.5870 *  0.0000     1          
    51  Li    c      0.0000      -5.5870 *    -2.2544 *  0.0000     1          
    52  Cl    c      5.8810 *    -1.6663 *    -0.2941 *  0.0000     2          
    53  Li    c      5.8810 *     0.2941 *     1.6663 *  0.0000     2          
    54  O     c      0.0000       0.2941 *    -6.1751 *  0.0000     1          
    55  O     c     -3.9207 *     4.2147 *    -2.2544 *  0.0000     2          
    56  Cl    c      5.8810 *     2.2544 *    -0.2941 *  0.0000     2          
    57  Li    c      5.8810 *     0.2941 *    -2.2544 *  0.0000     2          
    58  Li    c      0.0000       6.1751 *     1.6663 *  0.0000     1          
    59  Li    c      0.0000      -1.6663 *    -6.1751 *  0.0000     1          
    60  Li    c      3.9207 *    -3.6266 *     3.6266 *  0.0000     2          
    61  Cl    c      1.9603 *     6.1751 *    -0.2941 *  0.0000     2          
    62  Li    c      1.9603 *     0.2941 *    -6.1751 *  0.0000     2          
    63  Li    c      0.0000       2.2544 *    -6.1751 *  0.0000     1          
    64  Li    c      0.0000       6.1751 *    -2.2544 *  0.0000     1          
    65  O     c      0.0000      -3.6266 *     5.5870 *  0.0000     1          
    66  Li    c     -3.9207 *     4.2147 *     3.6266 *  0.0000     2          
    67  Li    c      3.9207 *    -3.6266 *    -4.2147 *  0.0000     2          
    68  O     c      3.9207 *     0.2941 *     5.5870 *  0.0000     2          
    69  Cl    c      1.9603 *    -5.5870 *     3.6266 *  0.0000     2          
    70  Li    c      1.9603 *    -3.6266 *     5.5870 *  0.0000     2          
    71  O     c      0.0000       4.2147 *     5.5870 *  0.0000     1          
    72  Li    c     -3.9207 *    -1.6663 *     5.5870 *  0.0000     2          
    73  Li    c     -3.9207 *    -5.5870 *     1.6663 *  0.0000     2          
    74  Cl    c      5.8810 *    -1.6663 *     3.6266 *  0.0000     2          
    75  Li    c      5.8810 *    -3.6266 *     1.6663 *  0.0000     2          
    76  Li    c     -3.9207 *     4.2147 *    -4.2147 *  0.0000     2          
    77  O     c      0.0000      -3.6266 *    -6.1751 *  0.0000     1          
    78  Li    c     -3.9207 *     2.2544 *     5.5870 *  0.0000     2          
    79  Li    c     -3.9207 *    -5.5870 *    -2.2544 *  0.0000     2          
    80  Cl    c      5.8810 *     2.2544 *     3.6266 *  0.0000     2          
    81  Li    c      1.9603 *     4.2147 *     5.5870 *  0.0000     2          
    82  Li    c      5.8810 *    -3.6266 *    -2.2544 *  0.0000     2          
    83  Cl    c      1.9603 *    -5.5870 *    -4.2147 *  0.0000     2          
    84  O     c      3.9207 *     0.2941 *    -6.1751 *  0.0000     2          
    85  Cl    c      1.9603 *     6.1751 *     3.6266 *  0.0000     2          
    86  Cl    c      5.8810 *    -1.6663 *    -4.2147 *  0.0000     2          
    87  Li    c      1.9603 *    -3.6266 *    -6.1751 *  0.0000     2          
    88  Li    c      5.8810 *     4.2147 *     1.6663 *  0.0000     2          
    89  O     c      0.0000       4.2147 *    -6.1751 *  0.0000     1          
    90  Li    c      3.9207 *    -1.6663 *    -6.1751 *  0.0000     2          
    91  Li    c     -3.9207 *     6.1751 *     1.6663 *  0.0000     2          
    92  Li    c      0.0000       0.2941 *     7.5473 *  0.0000     1          
    93  Li    c      0.0000      -7.5473 *    -0.2941 *  0.0000     1          
    94  Cl    c      5.8810 *     2.2544 *    -4.2147 *  0.0000     2          
    95  Li    c      5.8810 *     4.2147 *    -2.2544 *  0.0000     2          
    96  Li    c      3.9207 *     2.2544 *    -6.1751 *  0.0000     2          
    97  Li    c     -3.9207 *     6.1751 *    -2.2544 *  0.0000     2          
    98  Cl    c      1.9603 *     6.1751 *    -4.2147 *  0.0000     2          
    99  O     c      3.9207 *    -3.6266 *     5.5870 *  0.0000     2          
   100  Li    c      1.9603 *     4.2147 *    -6.1751 *  0.0000     2          
   101  O     c      0.0000      -7.5473 *     1.6663 *  0.0000     1          
   102  Li    c     -7.8414 *     0.2941 *    -0.2941 *  0.0000     2          
   103  O     c      0.0000      -7.5473 *    -2.2544 *  0.0000     1          
   104  Li    c      0.0000      -5.5870 *     5.5870 *  0.0000     1          
   105  Cl    c      1.9603 *    -1.6663 *     7.5473 *  0.0000     2          
   106  Li    c      1.9603 *    -7.5473 *     1.6663 *  0.0000     2          
   107  O     c      3.9207 *     4.2147 *     5.5870 *  0.0000     2          
   108  O     c     -7.8414 *     0.2941 *     1.6663 *  0.0000     2          
   109  Cl    c      1.9603 *     2.2544 *     7.5473 *  0.0000     2          
   110  Li    c      1.9603 *    -7.5473 *    -2.2544 *  0.0000     2          
   111  Li    c      5.8810 *     0.2941 *     5.5870 *  0.0000     2          
   112  Cl    c      5.8810 *    -5.5870 *    -0.2941 *  0.0000     2          
   113  Li    c      0.0000       8.1354 *    -0.2941 *  0.0000     1          
   114  Li    c      0.0000       0.2941 *    -8.1354 *  0.0000     1          
   115  O     c     -7.8414 *     0.2941 *    -2.2544 *  0.0000     2          
   116  O     c      3.9207 *    -3.6266 *    -6.1751 *  0.0000     2          
   117  Li    c     -7.8414 *    -1.6663 *     1.6663 *  0.0000     2          
   118  O     c      0.0000       8.1354 *     1.6663 *  0.0000     1          
   119  Li    c     -7.8414 *     2.2544 *     1.6663 *  0.0000     2          
   120  Li    c     -7.8414 *    -1.6663 *    -2.2544 *  0.0000     2          
   121  Li    c      0.0000       6.1751 *     5.5870 *  0.0000     1          
   122  Li    c      0.0000      -5.5870 *    -6.1751 *  0.0000     1          
   123  Li    c      0.0000      -3.6266 *     7.5473 *  0.0000     1          
   124  Li    c      0.0000      -7.5473 *     3.6266 *  0.0000     1          
   125  O     c      0.0000       8.1354 *    -2.2544 *  0.0000     1          
   126  O     c      3.9207 *     4.2147 *    -6.1751 *  0.0000     2          
   127  Li    c     -7.8414 *     2.2544 *    -2.2544 *  0.0000     2          
   128  Li    c      3.9207 *     0.2941 *     7.5473 *  0.0000     2          
   129  Li    c      3.9207 *    -7.5473 *    -0.2941 *  0.0000     2          
   130  Li    c      1.9603 *     8.1354 *     1.6663 *  0.0000     2          
   131  Cl    c      1.9603 *    -1.6663 *    -8.1354 *  0.0000     2          
   132  Cl    c      5.8810 *     6.1751 *    -0.2941 *  0.0000     2          
   133  Li    c      5.8810 *     0.2941 *    -6.1751 *  0.0000     2          
   134  Li    c     -7.8414 *     0.2941 *     3.6266 *  0.0000     2          
   135  Li    c      0.0000       4.2147 *     7.5473 *  0.0000     1          
   136  Li    c      0.0000      -7.5473 *    -4.2147 *  0.0000     1          
   137  Li    c     -7.8414 *    -3.6266 *    -0.2941 *  0.0000     2          
   138  Li    c      1.9603 *     8.1354 *    -2.2544 *  0.0000     2          
   139  Cl    c      1.9603 *     2.2544 *    -8.1354 *  0.0000     2          
   140  O     c      3.9207 *    -7.5473 *     1.6663 *  0.0000     2          
   141  Li    c      0.0000       6.1751 *    -6.1751 *  0.0000     1          
   142  O     c      3.9207 *    -7.5473 *    -2.2544 *  0.0000     2          
   143  O     c     -7.8414 *    -3.6266 *     1.6663 *  0.0000     2          
   144  Li    c     -3.9207 *    -5.5870 *     5.5870 *  0.0000     2          
   145  Li    c      5.8810 *    -3.6266 *     5.5870 *  0.0000     2          
   146  Cl    c      5.8810 *    -5.5870 *     3.6266 *  0.0000     2          
   147  Li    c      0.0000       8.1354 *     3.6266 *  0.0000     1          
   148  Li    c      0.0000      -3.6266 *    -8.1354 *  0.0000     1          
   149  Li    c      7.8414 *     0.2941 *    -4.2147 *  0.0000     2          
   150  Li    c     -7.8414 *     4.2147 *    -0.2941 *  0.0000     2          
   151  O     c     -7.8414 *    -3.6266 *    -2.2544 *  0.0000     2          
   152  Li    c      3.9207 *     8.1354 *    -0.2941 *  0.0000     2          
   153  Li    c     -3.9207 *     0.2941 *    -8.1354 *  0.0000     2          
   154  O     c     -7.8414 *     4.2147 *     1.6663 *  0.0000     2          
   155  Cl    c      5.8810 *    -5.5870 *    -4.2147 *  0.0000     2          
   156  Li    c      5.8810 *     4.2147 *     5.5870 *  0.0000     2          
   157  Li    c      0.0000       8.1354 *    -4.2147 *  0.0000     1          
   158  Li    c      0.0000       4.2147 *    -8.1354 *  0.0000     1          
   159  O     c      3.9207 *     8.1354 *     1.6663 *  0.0000     2          
   160  O     c     -7.8414 *     4.2147 *    -2.2544 *  0.0000     2          
   161  Li    c      3.9207 *     6.1751 *     5.5870 *  0.0000     2          
   162  Li    c     -3.9207 *    -5.5870 *    -6.1751 *  0.0000     2          
   163  Li    c      3.9207 *    -3.6266 *     7.5473 *  0.0000     2          
   164  Li    c      3.9207 *    -7.5473 *     3.6266 *  0.0000     2          
   165  Cl    c      5.8810 *     6.1751 *     3.6266 *  0.0000     2          
   166  Li    c      5.8810 *    -3.6266 *    -6.1751 *  0.0000     2          
   167  O     c      3.9207 *     8.1354 *    -2.2544 *  0.0000     2          
   168  Li    c     -7.8414 *    -3.6266 *     3.6266 *  0.0000     2          
   169  O     c      0.0000      -7.5473 *     5.5870 *  0.0000     1          
   170  Li    c      3.9207 *    -7.5473 *    -4.2147 *  0.0000     2          
   171  Li    c     -3.9207 *     4.2147 *     7.5473 *  0.0000     2          
   172  Cl    c      5.8810 *     6.1751 *    -4.2147 *  0.0000     2          
   173  Li    c      5.8810 *     4.2147 *    -6.1751 *  0.0000     2          
   174  O     c      0.0000       0.2941 *     9.5076 *  0.0000     1          
   175  Li    c      3.9207 *     6.1751 *    -6.1751 *  0.0000     2          
   176  Li    c      1.9603 *    -7.5473 *     5.5870 *  0.0000     2          
   177  Cl    c      1.9603 *    -5.5870 *     7.5473 *  0.0000     2          
   178  Li    c     -7.8414 *     4.2147 *     3.6266 *  0.0000     2          
   179  Li    c      7.8414 *    -3.6266 *    -4.2147 *  0.0000     2          
   180  O     c     -7.8414 *     0.2941 *     5.5870 *  0.0000     2          
   181  Li    c      0.0000      -1.6663 *     9.5076 *  0.0000     1          
   182  Li    c      0.0000      -9.5076 *     1.6663 *  0.0000     1          
   183  Cl    c      5.8810 *    -1.6663 *     7.5473 *  0.0000     2          
   184  Li    c      1.9603 *     0.2941 *     9.5076 *  0.0000     2          
   185  Cl    c      1.9603 *    -9.5076 *    -0.2941 *  0.0000     2          
   186  Li    c      5.8810 *    -7.5473 *     1.6663 *  0.0000     2          
   187  Li    c      3.9207 *     8.1354 *     3.6266 *  0.0000     2          
   188  Li    c      3.9207 *    -3.6266 *    -8.1354 *  0.0000     2          
   189  O     c      0.0000      -7.5473 *    -6.1751 *  0.0000     1          
   190  Li    c     -7.8414 *    -1.6663 *     5.5870 *  0.0000     2          
   191  Li    c      0.0000       2.2544 *     9.5076 *  0.0000     1          
   192  Li    c      0.0000      -9.5076 *    -2.2544 *  0.0000     1          
   193  Li    c     -7.8414 *    -5.5870 *     1.6663 *  0.0000     2          
   194  Cl    c      5.8810 *     2.2544 *     7.5473 *  0.0000     2          
   195  Li    c      5.8810 *    -7.5473 *    -2.2544 *  0.0000     2          
   196  Li    c      7.8414 *     4.2147 *    -4.2147 *  0.0000     2          
   197  O     c      0.0000       8.1354 *     5.5870 *  0.0000     1          
   198  Li    c     -7.8414 *     2.2544 *     5.5870 *  0.0000     2          
   199  Li    c     -7.8414 *    -5.5870 *    -2.2544 *  0.0000     2          
   200  Cl    c      1.9603 *     6.1751 *     7.5473 *  0.0000     2          
   201  Li    c      1.9603 *    -7.5473 *    -6.1751 *  0.0000     2          
   202  Cl    c      9.8017 *    -1.6663 *    -0.2941 *  0.0000     2          
   203  Li    c      9.8017 *     0.2941 *     1.6663 *  0.0000     2          
   204  Li    c      3.9207 *     8.1354 *    -4.2147 *  0.0000     2          
   205  Li    c      3.9207 *     4.2147 *    -8.1354 *  0.0000     2          
   206  O     c      7.8414 *     0.2941 *    -6.1751 *  0.0000     2          
   207  Li    c      1.9603 *     8.1354 *     5.5870 *  0.0000     2          
   208  Cl    c      1.9603 *    -5.5870 *    -8.1354 *  0.0000     2          
   209  Cl    c      9.8017 *     2.2544 *    -0.2941 *  0.0000     2          
   210  Li    c      9.8017 *     0.2941 *    -2.2544 *  0.0000     2          
   211  O     c      0.0000       0.2941 *   -10.0957 *  0.0000     1          
   212  Li    c      7.8414 *    -1.6663 *    -6.1751 *  0.0000     2          
   213  Li    c     -7.8414 *     6.1751 *     1.6663 *  0.0000     2          
   214  Li    c      5.8810 *     8.1354 *     1.6663 *  0.0000     2          
   215  Cl    c      5.8810 *    -1.6663 *    -8.1354 *  0.0000     2          
   216  O     c      0.0000      -3.6266 *     9.5076 *  0.0000     1          
   217  O     c      3.9207 *    -7.5473 *     5.5870 *  0.0000     2          
   218  O     c      0.0000       8.1354 *    -6.1751 *  0.0000     1          
   219  Li    c      0.0000      10.0957 *     1.6663 *  0.0000     1          
   220  Li    c      0.0000      -1.6663 *   -10.0957 *  0.0000     1          
   221  Li    c     -7.8414 *     2.2544 *    -6.1751 *  0.0000     2          
   222  Li    c     -7.8414 *     6.1751 *    -2.2544 *  0.0000     2          
   223  Cl    c      1.9603 *    10.0957 *    -0.2941 *  0.0000     2          
   224  Li    c      5.8810 *     8.1354 *    -2.2544 *  0.0000     2          
   225  Li    c      1.9603 *     0.2941 *   -10.0957 *  0.0000     2          
   226  Cl    c      5.8810 *     2.2544 *    -8.1354 *  0.0000     2          
   227  O     c     -3.9207 *     0.2941 *     9.5076 *  0.0000     2          
   228  O     c     -7.8414 *    -3.6266 *     5.5870 *  0.0000     2          
   229  Li    c      0.0000      10.0957 *    -2.2544 *  0.0000     1          
   230  Li    c      0.0000       2.2544 *   -10.0957 *  0.0000     1          
   231  Cl    c      1.9603 *    -9.5076 *     3.6266 *  0.0000     2          
   232  Li    c      1.9603 *    -3.6266 *     9.5076 *  0.0000     2          
   233  Li    c      1.9603 *     8.1354 *    -6.1751 *  0.0000     2          
   234  Cl    c      1.9603 *     6.1751 *    -8.1354 *  0.0000     2          
   235  O     c      0.0000       4.2147 *     9.5076 *  0.0000     1          
   236  Li    c     -3.9207 *    -1.6663 *     9.5076 *  0.0000     2          
   237  Li    c      3.9207 *    -9.5076 *     1.6663 *  0.0000     2          
   238  O     c      3.9207 *    -7.5473 *    -6.1751 *  0.0000     2          
   239  O     c     -7.8414 *     4.2147 *     5.5870 *  0.0000     2          
   240  Li    c      3.9207 *     2.2544 *     9.5076 *  0.0000     2          
   241  Li    c      3.9207 *    -9.5076 *    -2.2544 *  0.0000     2          
   242  Cl    c      1.9603 *    -9.5076 *    -4.2147 *  0.0000     2          
   243  Li    c      1.9603 *     4.2147 *     9.5076 *  0.0000     2          
   244  Cl    c      9.8017 *    -1.6663 *     3.6266 *  0.0000     2          
   245  Li    c      9.8017 *    -3.6266 *     1.6663 *  0.0000     2          
   246  O     c      3.9207 *     8.1354 *     5.5870 *  0.0000     2          
   247  O     c      7.8414 *    -3.6266 *    -6.1751 *  0.0000     2          
   248  Li    c      0.0000      -7.5473 *     7.5473 *  0.0000     1          
   249  Cl    c      9.8017 *     2.2544 *     3.6266 *  0.0000     2          
   250  Li    c      9.8017 *    -3.6266 *    -2.2544 *  0.0000     2          
   251  O     c      0.0000      -3.6266 *   -10.0957 *  0.0000     1          
   252  Li    c      9.8017 *     4.2147 *     1.6663 *  0.0000     2          
   253  Cl    c      9.8017 *    -1.6663 *    -4.2147 *  0.0000     2          
   254  O     c     -3.9207 *     0.2941 *   -10.0957 *  0.0000     2          
   255  O     c      7.8414 *     4.2147 *    -6.1751 *  0.0000     2          
   256  Li    c     -7.8414 *     0.2941 *     7.5473 *  0.0000     2          
   257  Li    c     -7.8414 *    -7.5473 *    -0.2941 *  0.0000     2          
   258  Cl    c      1.9603 *    10.0957 *     3.6266 *  0.0000     2          
   259  Li    c      1.9603 *    -3.6266 *   -10.0957 *  0.0000     2          
   260  Cl    c      9.8017 *     2.2544 *    -4.2147 *  0.0000     2          
   261  O     c      3.9207 *    -3.6266 *     9.5076 *  0.0000     2          
   262  Li    c      9.8017 *     4.2147 *    -2.2544 *  0.0000     2          
   263  O     c      3.9207 *     8.1354 *    -6.1751 *  0.0000     2          
   264  O     c      0.0000       4.2147 *   -10.0957 *  0.0000     1          
   265  Li    c      3.9207 *    10.0957 *     1.6663 *  0.0000     2          
   266  Li    c     -3.9207 *    -1.6663 *   -10.0957 *  0.0000     2          
   267  O     c     -7.8414 *    -7.5473 *     1.6663 *  0.0000     2          
   268  Li    c      0.0000      -5.5870 *     9.5076 *  0.0000     1          
   269  Li    c      0.0000      -9.5076 *     5.5870 *  0.0000     1          
   270  Li    c      3.9207 *    10.0957 *    -2.2544 *  0.0000     2          
   271  Li    c      3.9207 *     2.2544 *   -10.0957 *  0.0000     2          
   272  Li    c      5.8810 *    -7.5473 *     5.5870 *  0.0000     2          
   273  Cl    c      5.8810 *    -5.5870 *     7.5473 *  0.0000     2          
   274  Li    c      0.0000       8.1354 *     7.5473 *  0.0000     1          
   275  Li    c      0.0000      -7.5473 *    -8.1354 *  0.0000     1          
   276  Cl    c      1.9603 *    10.0957 *    -4.2147 *  0.0000     2          
   277  Li    c      1.9603 *     4.2147 *   -10.0957 *  0.0000     2          
   278  O     c      3.9207 *     4.2147 *     9.5076 *  0.0000     2          
   279  O     c     -7.8414 *    -7.5473 *    -2.2544 *  0.0000     2          
   280  Li    c     -7.8414 *    -5.5870 *     5.5870 *  0.0000     2          
   281  Cl    c      5.8810 *    -9.5076 *    -0.2941 *  0.0000     2          
   282  Li    c      5.8810 *     0.2941 *     9.5076 *  0.0000     2          
   283  Li    c      9.8017 *     0.2941 *     5.5870 *  0.0000     2          
   284  Cl    c      9.8017 *    -5.5870 *    -0.2941 *  0.0000     2          
   285  Li    c      7.8414 *     8.1354 *    -0.2941 *  0.0000     2          
   286  Li    c     -7.8414 *     0.2941 *    -8.1354 *  0.0000     2          
   287  Li    c      0.0000       6.1751 *     9.5076 *  0.0000     1          
   288  Li    c      0.0000      -9.5076 *    -6.1751 *  0.0000     1          
   289  Li    c      3.9207 *    -7.5473 *     7.5473 *  0.0000     2          
   290  Cl    c      5.8810 *     6.1751 *     7.5473 *  0.0000     2          
   291  Li    c      5.8810 *    -7.5473 *    -6.1751 *  0.0000     2          
   292  O     c      7.8414 *     8.1354 *     1.6663 *  0.0000     2          
   293  O     c      3.9207 *    -3.6266 *   -10.0957 *  0.0000     2          
   294  Li    c      7.8414 *     6.1751 *     5.5870 *  0.0000     2          
   295  Li    c     -7.8414 *    -5.5870 *    -6.1751 *  0.0000     2          
   296  Li    c      0.0000       0.2941 *    11.4680 *  0.0000     1          
   297  Li    c      0.0000     -11.4680 *    -0.2941 *  0.0000     1          
   298  Li    c     -7.8414 *    -3.6266 *     7.5473 *  0.0000     2          
   299  Li    c     -7.8414 *    -7.5473 *     3.6266 *  0.0000     2          
   300  Li    c      5.8810 *     8.1354 *     5.5870 *  0.0000     2          
   301  Cl    c      5.8810 *    -5.5870 *    -8.1354 *  0.0000     2          
   302  Li    c      0.0000       8.1354 *    -8.1354 *  0.0000     1          
   303  O     c      7.8414 *     8.1354 *    -2.2544 *  0.0000     2          
   304  Li    c      0.0000      10.0957 *     5.5870 *  0.0000     1          
   305  Li    c      0.0000      -5.5870 *   -10.0957 *  0.0000     1          
   306  Cl    c      9.8017 *     6.1751 *    -0.2941 *  0.0000     2          
   307  O     c      0.0000     -11.4680 *     1.6663 *  0.0000     1          
   308  Li    c      9.8017 *     0.2941 *    -6.1751 *  0.0000     2          
   309  O     c      3.9207 *     4.2147 *   -10.0957 *  0.0000     2          
   310  Li    c     -7.8414 *     4.2147 *     7.5473 *  0.0000     2          
   311  Li    c     -7.8414 *    -7.5473 *    -4.2147 *  0.0000     2          
   312  Cl    c      5.8810 *    10.0957 *    -0.2941 *  0.0000     2          
   313  Li    c      5.8810 *     0.2941 *   -10.0957 *  0.0000     2          
   314  O     c      0.0000     -11.4680 *    -2.2544 *  0.0000     1          
   315  Li    c      3.9207 *    -5.5870 *     9.5076 *  0.0000     2          
   316  Li    c      3.9207 *    -9.5076 *     5.5870 *  0.0000     2          
   317  Li    c      7.8414 *     6.1751 *    -6.1751 *  0.0000     2          
   318  Li    c      1.9603 *   -11.4680 *     1.6663 *  0.0000     2          
   319  Cl    c      1.9603 *    -1.6663 *    11.4680 *  0.0000     2          
   320  Cl    c      5.8810 *    -9.5076 *     3.6266 *  0.0000     2          
   321  Li    c      5.8810 *    -3.6266 *     9.5076 *  0.0000     2          
   322  Li    c      3.9207 *     8.1354 *     7.5473 *  0.0000     2          
   323  Li    c      3.9207 *    -7.5473 *    -8.1354 *  0.0000     2          
   324  Li    c     11.7620 *     0.2941 *    -0.2941 *  0.0000     2          
   325  Li    c      5.8810 *     8.1354 *    -6.1751 *  0.0000     2          
   326  Cl    c      5.8810 *     6.1751 *    -8.1354 *  0.0000     2          
   327  Li    c      0.0000      10.0957 *    -6.1751 *  0.0000     1          
   328  Li    c      0.0000       6.1751 *   -10.0957 *  0.0000     1          
   329  Cl    c      1.9603 *     2.2544 *    11.4680 *  0.0000     2          
   330  Li    c      1.9603 *   -11.4680 *    -2.2544 *  0.0000     2          
   331  Li    c      9.8017 *    -3.6266 *     5.5870 *  0.0000     2          
   332  Cl    c      9.8017 *    -5.5870 *     3.6266 *  0.0000     2          
   333  Li    c      7.8414 *     8.1354 *     3.6266 *  0.0000     2          
   334  Li    c     -7.8414 *    -3.6266 *    -8.1354 *  0.0000     2          
   335  O     c     11.7620 *     0.2941 *     1.6663 *  0.0000     2          
   336  Cl    c      5.8810 *    -9.5076 *    -4.2147 *  0.0000     2          
   337  Li    c      5.8810 *     4.2147 *     9.5076 *  0.0000     2          
   338  O     c     11.7620 *     0.2941 *    -2.2544 *  0.0000     2          
   339  Li    c     11.7620 *    -1.6663 *     1.6663 *  0.0000     2          
   340  Li    c      3.9207 *     6.1751 *     9.5076 *  0.0000     2          
   341  Li    c      3.9207 *    -9.5076 *    -6.1751 *  0.0000     2          
   342  Li    c      0.0000      -3.6266 *    11.4680 *  0.0000     1          
   343  Li    c      0.0000     -11.4680 *     3.6266 *  0.0000     1          
   344  Cl    c      9.8017 *    -5.5870 *    -4.2147 *  0.0000     2          
   345  Li    c      9.8017 *     4.2147 *     5.5870 *  0.0000     2          
   346  Li    c      0.0000      12.0561 *    -0.2941 *  0.0000     1          
   347  Li    c      0.0000       0.2941 *   -12.0561 *  0.0000     1          
   348  Li    c      7.8414 *     8.1354 *    -4.2147 *  0.0000     2          
   349  Li    c      7.8414 *     4.2147 *    -8.1354 *  0.0000     2          
   350  Li    c     11.7620 *     2.2544 *     1.6663 *  0.0000     2          
   351  Li    c     11.7620 *    -1.6663 *    -2.2544 *  0.0000     2          
   352  Li    c      3.9207 *   -11.4680 *    -0.2941 *  0.0000     2          
   353  Li    c      3.9207 *     0.2941 *    11.4680 *  0.0000     2          
   354  Cl    c      9.8017 *     6.1751 *     3.6266 *  0.0000     2          
   355  O     c      0.0000      -7.5473 *     9.5076 *  0.0000     1          
   356  Li    c      9.8017 *    -3.6266 *    -6.1751 *  0.0000     2          
   357  Li    c      3.9207 *     8.1354 *    -8.1354 *  0.0000     2          
   358  O     c      0.0000      12.0561 *     1.6663 *  0.0000     1          
   359  Li    c      3.9207 *    10.0957 *     5.5870 *  0.0000     2          
   360  Li    c      3.9207 *    -5.5870 *   -10.0957 *  0.0000     2          
   361  Li    c     11.7620 *     2.2544 *    -2.2544 *  0.0000     2          
   362  Li    c      0.0000       4.2147 *    11.4680 *  0.0000     1          
   363  Li    c      0.0000     -11.4680 *    -4.2147 *  0.0000     1          
   364  Cl    c      5.8810 *    10.0957 *     3.6266 *  0.0000     2          
   365  O     c      3.9207 *   -11.4680 *     1.6663 *  0.0000     2          
   366  O     c     -7.8414 *    -7.5473 *     5.5870 *  0.0000     2          
   367  Li    c      5.8810 *    -3.6266 *   -10.0957 *  0.0000     2          
   368  O     c      0.0000      12.0561 *    -2.2544 *  0.0000     1          
   369  Li    c      1.9603 *    -7.5473 *     9.5076 *  0.0000     2          
   370  Cl    c      1.9603 *    -9.5076 *     7.5473 *  0.0000     2          
   371  Li    c     11.7620 *     0.2941 *     3.6266 *  0.0000     2          
   372  Li    c     11.7620 *    -3.6266 *    -0.2941 *  0.0000     2          
   373  Li    c      1.9603 *    12.0561 *     1.6663 *  0.0000     2          
   374  Cl    c      1.9603 *    -1.6663 *   -12.0561 *  0.0000     2          
   375  Cl    c      9.8017 *     6.1751 *    -4.2147 *  0.0000     2          
   376  O     c      3.9207 *   -11.4680 *    -2.2544 *  0.0000     2          
   377  O     c     -7.8414 *     0.2941 *     9.5076 *  0.0000     2          
   378  Li    c      9.8017 *     4.2147 *    -6.1751 *  0.0000     2          
   379  Li    c      1.9603 *    12.0561 *    -2.2544 *  0.0000     2          
   380  Cl    c      1.9603 *     2.2544 *   -12.0561 *  0.0000     2          
   381  Cl    c      5.8810 *    10.0957 *    -4.2147 *  0.0000     2          
   382  O     c     11.7620 *    -3.6266 *     1.6663 *  0.0000     2          
   383  Li    c      5.8810 *     4.2147 *   -10.0957 *  0.0000     2          
   384  Li    c      7.8414 *    -9.5076 *     1.6663 *  0.0000     2          
   385  Li    c     -7.8414 *    -1.6663 *     9.5076 *  0.0000     2          
   386  Li    c      3.9207 *    10.0957 *    -6.1751 *  0.0000     2          
   387  Li    c      3.9207 *     6.1751 *   -10.0957 *  0.0000     2          
   388  Cl    c      9.8017 *    -1.6663 *     7.5473 *  0.0000     2          
   389  Li    c      9.8017 *    -7.5473 *     1.6663 *  0.0000     2          
   390  Li    c     11.7620 *     0.2941 *    -4.2147 *  0.0000     2          
   391  Li    c     11.7620 *     4.2147 *    -0.2941 *  0.0000     2          
   392  O     c      0.0000       8.1354 *     9.5076 *  0.0000     1          
   393  O     c     11.7620 *    -3.6266 *    -2.2544 *  0.0000     2          
   394  O     c     -7.8414 *    -7.5473 *    -6.1751 *  0.0000     2          
   395  Li    c      7.8414 *     2.2544 *     9.5076 *  0.0000     2          
   396  Li    c      7.8414 *    -9.5076 *    -2.2544 *  0.0000     2          
   397  Cl    c      9.8017 *     2.2544 *     7.5473 *  0.0000     2          
   398  Li    c      9.8017 *    -7.5473 *    -2.2544 *  0.0000     2          
   399  Li    c      0.0000      12.0561 *     3.6266 *  0.0000     1          
   400  Li    c      0.0000      -3.6266 *   -12.0561 *  0.0000     1          
   401  O     c      0.0000      -7.5473 *   -10.0957 *  0.0000     1          
   402  O     c      7.8414 *     8.1354 *     5.5870 *  0.0000     2          
   403  O     c     11.7620 *     4.2147 *     1.6663 *  0.0000     2          
   404  Li    c      3.9207 *   -11.4680 *     3.6266 *  0.0000     2          
   405  Li    c      3.9207 *    -3.6266 *    11.4680 *  0.0000     2          
   406  Cl    c      1.9603 *    -9.5076 *    -8.1354 *  0.0000     2          
   407  Li    c      1.9603 *     8.1354 *     9.5076 *  0.0000     2          
   408  Li    c      3.9207 *    12.0561 *    -0.2941 *  0.0000     2          
   409  Li    c      3.9207 *     0.2941 *   -12.0561 *  0.0000     2          
   410  O     c     11.7620 *     4.2147 *    -2.2544 *  0.0000     2          
   411  Cl    c      1.9603 *    10.0957 *     7.5473 *  0.0000     2          
   412  Li    c      1.9603 *    -7.5473 *   -10.0957 *  0.0000     2          
   413  O     c      0.0000     -11.4680 *     5.5870 *  0.0000     1          
   414  O     c      3.9207 *    -7.5473 *     9.5076 *  0.0000     2          
   415  Li    c      0.0000      12.0561 *    -4.2147 *  0.0000     1          
   416  Li    c      0.0000       4.2147 *   -12.0561 *  0.0000     1          
   417  O     c      3.9207 *    12.0561 *     1.6663 *  0.0000     2          
   418  O     c     -7.8414 *     0.2941 *   -10.0957 *  0.0000     2          
   419  Li    c      3.9207 *   -11.4680 *    -4.2147 *  0.0000     2          
   420  Li    c     11.7620 *    -3.6266 *     3.6266 *  0.0000     2          
   421  Li    c     -3.9207 *     4.2147 *    11.4680 *  0.0000     2          
   422  Li    c      9.8017 *     8.1354 *     1.6663 *  0.0000     2          
   423  Cl    c      9.8017 *    -1.6663 *    -8.1354 *  0.0000     2          
   424  O     c      7.8414 *    -3.6266 *     9.5076 *  0.0000     2          
   425  O     c      3.9207 *    12.0561 *    -2.2544 *  0.0000     2          
   426  O     c      7.8414 *     8.1354 *    -6.1751 *  0.0000     2          
   427  Li    c      7.8414 *    10.0957 *     1.6663 *  0.0000     2          
   428  Li    c     -7.8414 *    -1.6663 *   -10.0957 *  0.0000     2          
   429  Cl    c      1.9603 *    -5.5870 *    11.4680 *  0.0000     2          
   430  Li    c      1.9603 *   -11.4680 *     5.5870 *  0.0000     2          
   431  Li    c      9.8017 *     8.1354 *    -2.2544 *  0.0000     2          
   432  Cl    c      9.8017 *     2.2544 *    -8.1354 *  0.0000     2          
   433  O     c      0.0000       8.1354 *   -10.0957 *  0.0000     1          
   434  Li    c      7.8414 *    10.0957 *    -2.2544 *  0.0000     2          
   435  Li    c      7.8414 *     2.2544 *   -10.0957 *  0.0000     2          
   436  Cl    c      5.8810 *    -1.6663 *    11.4680 *  0.0000     2          
   437  Li    c      5.8810 *   -11.4680 *     1.6663 *  0.0000     2          
   438  Li    c     11.7620 *     4.2147 *     3.6266 *  0.0000     2          
   439  Li    c     11.7620 *    -3.6266 *    -4.2147 *  0.0000     2          
   440  O     c     11.7620 *     0.2941 *     5.5870 *  0.0000     2          
   441  O     c      0.0000     -11.4680 *    -6.1751 *  0.0000     1          
   442  O     c     -7.8414 *     4.2147 *     9.5076 *  0.0000     2          
   443  Cl    c      5.8810 *     2.2544 *    11.4680 *  0.0000     2          
   444  Li    c      5.8810 *   -11.4680 *    -2.2544 *  0.0000     2          
   445  Cl    c      1.9603 *    10.0957 *    -8.1354 *  0.0000     2          
   446  O     c      3.9207 *     8.1354 *     9.5076 *  0.0000     2          
   447  Li    c      1.9603 *     8.1354 *   -10.0957 *  0.0000     2          
   448  Li    c     11.7620 *    -1.6663 *     5.5870 *  0.0000     2          
   449  Li    c     11.7620 *    -5.5870 *     1.6663 *  0.0000     2          
   450  Li    c      1.9603 *   -11.4680 *    -6.1751 *  0.0000     2          
   451  Cl    c      1.9603 *     6.1751 *    11.4680 *  0.0000     2          
   452  Li    c      3.9207 *    12.0561 *     3.6266 *  0.0000     2          
   453  Li    c      3.9207 *    -3.6266 *   -12.0561 *  0.0000     2          
   454  Li    c     11.7620 *     4.2147 *    -4.2147 *  0.0000     2          
   455  O     c      3.9207 *    -7.5473 *   -10.0957 *  0.0000     2          
   456  Li    c     11.7620 *     2.2544 *     5.5870 *  0.0000     2          
   457  Li    c     11.7620 *    -5.5870 *    -2.2544 *  0.0000     2          
   458  Li    c      7.8414 *    -7.5473 *     7.5473 *  0.0000     2          
   459  O     c      0.0000      12.0561 *     5.5870 *  0.0000     1          
   460  O     c      7.8414 *    -3.6266 *   -10.0957 *  0.0000     2          
   461  O     c     11.7620 *     0.2941 *    -6.1751 *  0.0000     2          
   462  O     c      3.9207 *   -11.4680 *     5.5870 *  0.0000     2          
   463  Li    c      3.9207 *    12.0561 *    -4.2147 *  0.0000     2          
   464  Li    c     -3.9207 *     4.2147 *   -12.0561 *  0.0000     2          
   465  Li    c     11.7620 *     6.1751 *     1.6663 *  0.0000     2          
   466  Li    c     11.7620 *    -1.6663 *    -6.1751 *  0.0000     2          
   467  Li    c      1.9603 *    12.0561 *     5.5870 *  0.0000     2          
   468  Cl    c      1.9603 *    -5.5870 *   -12.0561 *  0.0000     2          
   469  O     c      0.0000       0.2941 *    13.4283 *  0.0000     1          
   470  Li    c      0.0000      -9.5076 *     9.5076 *  0.0000     1          
   471  O     c     -7.8414 *     4.2147 *   -10.0957 *  0.0000     2          
   472  Li    c     11.7620 *     2.2544 *    -6.1751 *  0.0000     2          
   473  Li    c     11.7620 *     6.1751 *    -2.2544 *  0.0000     2          
   474  Cl    c      5.8810 *    -9.5076 *     7.5473 *  0.0000     2          
   475  Li    c      5.8810 *    -7.5473 *     9.5076 *  0.0000     2          
   476  Li    c      5.8810 *    12.0561 *     1.6663 *  0.0000     2          
   477  Cl    c      5.8810 *    -1.6663 *   -12.0561 *  0.0000     2          
   478  O     c     11.7620 *    -3.6266 *     5.5870 *  0.0000     2          
   479  Li    c      0.0000      -1.6663 *    13.4283 *  0.0000     1          
   480  Li    c      0.0000     -13.4283 *     1.6663 *  0.0000     1          
   481  Li    c      7.8414 *    -5.5870 *     9.5076 *  0.0000     2          
   482  Li    c      7.8414 *    -9.5076 *     5.5870 *  0.0000     2          
   483  O     c      0.0000      12.0561 *    -6.1751 *  0.0000     1          
   484  O     c      3.9207 *     8.1354 *   -10.0957 *  0.0000     2          
   485  Cl    c      1.9603 *   -13.4283 *    -0.2941 *  0.0000     2          
   486  Li    c      1.9603 *     0.2941 *    13.4283 *  0.0000     2          
   487  Li    c      9.8017 *    -7.5473 *     5.5870 *  0.0000     2          
   488  Cl    c      9.8017 *    -5.5870 *     7.5473 *  0.0000     2          
   489  Li    c      7.8414 *     8.1354 *     7.5473 *  0.0000     2          
   490  Li    c     -7.8414 *    -7.5473 *    -8.1354 *  0.0000     2          
   491  Li    c      5.8810 *    12.0561 *    -2.2544 *  0.0000     2          
   492  Cl    c      5.8810 *     2.2544 *   -12.0561 *  0.0000     2          
   493  O     c      3.9207 *   -11.4680 *    -6.1751 *  0.0000     2          
   494  Li    c      0.0000       2.2544 *    13.4283 *  0.0000     1          
   495  Li    c      0.0000     -13.4283 *    -2.2544 *  0.0000     1          
   496  Cl    c      9.8017 *    -9.5076 *    -0.2941 *  0.0000     2          
   497  Li    c      9.8017 *     0.2941 *     9.5076 *  0.0000     2          
   498  Li    c      1.9603 *    12.0561 *    -6.1751 *  0.0000     2          
   499  Cl    c      1.9603 *     6.1751 *   -12.0561 *  0.0000     2          
   500  O     c     11.7620 *     4.2147 *     5.5870 *  0.0000     2          
   501  Li    c      0.0000      -7.5473 *    11.4680 *  0.0000     1          
   502  Li    c      0.0000     -11.4680 *     7.5473 *  0.0000     1          
   503  O     c     11.7620 *    -3.6266 *    -6.1751 *  0.0000     2          
   504  Li    c      7.8414 *    -9.5076 *    -6.1751 *  0.0000     2          
   505  Li    c     -7.8414 *     6.1751 *     9.5076 *  0.0000     2          
   506  Li    c      5.8810 *     8.1354 *     9.5076 *  0.0000     2          
   507  Cl    c      5.8810 *    -9.5076 *    -8.1354 *  0.0000     2          
   508  Cl    c     13.7224 *    -1.6663 *    -0.2941 *  0.0000     2          
   509  Li    c     13.7224 *     0.2941 *     1.6663 *  0.0000     2          
   510  Cl    c      9.8017 *     6.1751 *     7.5473 *  0.0000     2          
   511  Li    c      9.8017 *    -7.5473 *    -6.1751 *  0.0000     2          
   512  O     c      3.9207 *    12.0561 *     5.5870 *  0.0000     2          
   513  Li    c      0.0000      10.0957 *     9.5076 *  0.0000     1          
   514  Li    c      0.0000      -9.5076 *   -10.0957 *  0.0000     1          
   515  Li    c     -7.8414 *     0.2941 *    11.4680 *  0.0000     2          
   516  Li    c     -7.8414 *   -11.4680 *    -0.2941 *  0.0000     2          
   517  Li    c      9.8017 *     8.1354 *     5.5870 *  0.0000     2          
   518  Cl    c      5.8810 *    10.0957 *     7.5473 *  0.0000     2          
   519  Cl    c      9.8017 *    -5.5870 *    -8.1354 *  0.0000     2          
   520  Cl    c     13.7224 *     2.2544 *    -0.2941 *  0.0000     2          
   521  O     c      0.0000      -3.6266 *    13.4283 *  0.0000     1          
   522  Li    c      5.8810 *    -7.5473 *   -10.0957 *  0.0000     2          
   523  Li    c     13.7224 *     0.2941 *    -2.2544 *  0.0000     2          
   524  Li    c      7.8414 *     8.1354 *    -8.1354 *  0.0000     2          
   525  O     c     11.7620 *     4.2147 *    -6.1751 *  0.0000     2          
   526  Li    c      7.8414 *    10.0957 *     5.5870 *  0.0000     2          
   527  Li    c      7.8414 *    -5.5870 *   -10.0957 *  0.0000     2          
   528  Li    c     11.7620 *     0.2941 *     7.5473 *  0.0000     2          
   529  Li    c     11.7620 *    -7.5473 *    -0.2941 *  0.0000     2          
   530  O     c     -7.8414 *   -11.4680 *     1.6663 *  0.0000     2          
   531  O     c      3.9207 *     0.2941 *    13.4283 *  0.0000     2          
   532  Li    c      3.9207 *    -9.5076 *     9.5076 *  0.0000     2          
   533  O     c      0.0000       0.2941 *   -14.0164 *  0.0000     1          
   534  Cl    c      1.9603 *   -13.4283 *     3.6266 *  0.0000     2          
   535  Li    c      1.9603 *    -3.6266 *    13.4283 *  0.0000     2          
   536  Li    c      5.8810 *   -11.4680 *     5.5870 *  0.0000     2          
   537  Cl    c      5.8810 *    -5.5870 *    11.4680 *  0.0000     2          
   538  Li    c      0.0000       8.1354 *    11.4680 *  0.0000     1          
   539  Li    c      0.0000     -11.4680 *    -8.1354 *  0.0000     1          
   540  Cl    c      9.8017 *    10.0957 *    -0.2941 *  0.0000     2          
   541  O     c      0.0000       4.2147 *    13.4283 *  0.0000     1          
   542  O     c     11.7620 *    -7.5473 *     1.6663 *  0.0000     2          
   543  O     c     -7.8414 *   -11.4680 *    -2.2544 *  0.0000     2          
   544  Li    c      9.8017 *     0.2941 *   -10.0957 *  0.0000     2          
   545  Li    c      3.9207 *   -13.4283 *     1.6663 *  0.0000     2          
   546  Li    c      3.9207 *    -1.6663 *    13.4283 *  0.0000     2          
   547  O     c      3.9207 *    12.0561 *    -6.1751 *  0.0000     2          
   548  Li    c      0.0000      14.0164 *     1.6663 *  0.0000     1          
   549  Li    c      0.0000      -1.6663 *   -14.0164 *  0.0000     1          
   550  Cl    c      9.8017 *    -9.5076 *     3.6266 *  0.0000     2          
   551  Li    c      9.8017 *    -3.6266 *     9.5076 *  0.0000     2          
   552  Cl    c      1.9603 *    14.0164 *    -0.2941 *  0.0000     2          
   553  Li    c      9.8017 *     8.1354 *    -6.1751 *  0.0000     2          
   554  Li    c      1.9603 *     0.2941 *   -14.0164 *  0.0000     2          
   555  Cl    c      9.8017 *     6.1751 *    -8.1354 *  0.0000     2          
   556  O     c     11.7620 *    -7.5473 *    -2.2544 *  0.0000     2          
   557  Li    c      3.9207 *     2.2544 *    13.4283 *  0.0000     2          
   558  Li    c      3.9207 *   -13.4283 *    -2.2544 *  0.0000     2          
   559  Li    c     11.7620 *    -5.5870 *     5.5870 *  0.0000     2          
   560  Li    c      0.0000      14.0164 *    -2.2544 *  0.0000     1          
   561  Li    c      7.8414 *    10.0957 *    -6.1751 *  0.0000     2          
   562  Li    c      0.0000       2.2544 *   -14.0164 *  0.0000     1          
   563  Li    c     -7.8414 *     6.1751 *   -10.0957 *  0.0000     2          
   564  Cl    c      1.9603 *   -13.4283 *    -4.2147 *  0.0000     2          
   565  Li    c      1.9603 *     4.2147 *    13.4283 *  0.0000     2          
   566  Li    c      0.0000      12.0561 *     7.5473 *  0.0000     1          
   567  Li    c      0.0000      -7.5473 *   -12.0561 *  0.0000     1          
   568  Cl    c      5.8810 *    10.0957 *    -8.1354 *  0.0000     2          
   569  Li    c      5.8810 *     8.1354 *   -10.0957 *  0.0000     2          
   570  Li    c      0.0000      10.0957 *   -10.0957 *  0.0000     1          
   571  Li    c      3.9207 *    -7.5473 *    11.4680 *  0.0000     2          
   572  Li    c      3.9207 *   -11.4680 *     7.5473 *  0.0000     2          
   573  Cl    c      5.8810 *     6.1751 *    11.4680 *  0.0000     2          
   574  Cl    c      9.8017 *    -9.5076 *    -4.2147 *  0.0000     2          
   575  Cl    c     13.7224 *    -1.6663 *     3.6266 *  0.0000     2          
   576  Li    c      5.8810 *   -11.4680 *    -6.1751 *  0.0000     2          
   577  Li    c      9.8017 *     4.2147 *     9.5076 *  0.0000     2          
   578  Li    c     13.7224 *    -3.6266 *     1.6663 *  0.0000     2          
   579  Li    c     11.7620 *     0.2941 *    -8.1354 *  0.0000     2          
   580  Li    c     11.7620 *     8.1354 *    -0.2941 *  0.0000     2          
   581  Li    c     -7.8414 *   -11.4680 *     3.6266 *  0.0000     2          
   582  Li    c      7.8414 *    -3.6266 *    11.4680 *  0.0000     2          
   583  Cl    c     13.7224 *     2.2544 *     3.6266 *  0.0000     2          
   584  Li    c     13.7224 *    -3.6266 *    -2.2544 *  0.0000     2          
   585  Li    c     -7.8414 *    12.0561 *    -0.2941 *  0.0000     2          
   586  Li    c     -7.8414 *     0.2941 *   -12.0561 *  0.0000     2          
   587  O     c     11.7620 *     8.1354 *     1.6663 *  0.0000     2          
   588  Li    c      3.9207 *    10.0957 *     9.5076 *  0.0000     2          
   589  Li    c      3.9207 *    -9.5076 *   -10.0957 *  0.0000     2          
   590  Li    c     11.7620 *     6.1751 *     5.5870 *  0.0000     2          
   591  Li    c     11.7620 *    -5.5870 *    -6.1751 *  0.0000     2          
   592  Li    c     11.7620 *    -3.6266 *     7.5473 *  0.0000     2          
   593  Li    c     11.7620 *    -7.5473 *     3.6266 *  0.0000     2          
   594  Cl    c     13.7224 *    -1.6663 *    -4.2147 *  0.0000     2          
   595  Li    c     13.7224 *     4.2147 *     1.6663 *  0.0000     2          
   596  O     c      3.9207 *    -3.6266 *    13.4283 *  0.0000     2          
   597  O     c      7.8414 *    -7.5473 *     9.5076 *  0.0000     2          
   598  O     c     -7.8414 *    12.0561 *     1.6663 *  0.0000     2          
   599  O     c      0.0000      -3.6266 *   -14.0164 *  0.0000     1          
   600  O     c     11.7620 *     8.1354 *    -2.2544 *  0.0000     2          
   601  Li    c     -7.8414 *     4.2147 *    11.4680 *  0.0000     2          
   602  Li    c     -7.8414 *   -11.4680 *    -4.2147 *  0.0000     2          
   603  Li    c      5.8810 *    12.0561 *     5.5870 *  0.0000     2          
   604  Cl    c      5.8810 *    -5.5870 *   -12.0561 *  0.0000     2          
   605  Cl    c      9.8017 *    10.0957 *     3.6266 *  0.0000     2          
   606  Cl    c     13.7224 *     2.2544 *    -4.2147 *  0.0000     2          
   607  Li    c      9.8017 *    -3.6266 *   -10.0957 *  0.0000     2          
   608  Li    c     13.7224 *     4.2147 *    -2.2544 *  0.0000     2          
   609  Li    c      0.0000       8.1354 *   -12.0561 *  0.0000     1          
   610  Li    c      0.0000      12.0561 *    -8.1354 *  0.0000     1          
   611  Li    c      0.0000      -5.5870 *    13.4283 *  0.0000     1          
   612  Li    c      0.0000     -13.4283 *     5.5870 *  0.0000     1          
   613  O     c     -7.8414 *    12.0561 *    -2.2544 *  0.0000     2          
   614  O     c      3.9207 *     0.2941 *   -14.0164 *  0.0000     2          
   615  Li    c      3.9207 *     8.1354 *    11.4680 *  0.0000     2          
   616  Li    c      3.9207 *   -11.4680 *    -8.1354 *  0.0000     2          
   617  Li    c     11.7620 *     4.2147 *     7.5473 *  0.0000     2          
   618  Li    c     11.7620 *    -7.5473 *    -4.2147 *  0.0000     2          
   619  Cl    c      1.9603 *    14.0164 *     3.6266 *  0.0000     2          
   620  O     c     -3.9207 *     4.2147 *    13.4283 *  0.0000     2          
   621  Li    c      1.9603 *    -3.6266 *   -14.0164 *  0.0000     2          
   622  O     c      0.0000       4.2147 *   -14.0164 *  0.0000     1          
   623  Li    c      3.9207 *    14.0164 *     1.6663 *  0.0000     2          
   624  Li    c      3.9207 *    -1.6663 *   -14.0164 *  0.0000     2          
   625  Li    c     11.7620 *     6.1751 *    -6.1751 *  0.0000     2          
   626  Cl    c      5.8810 *   -13.4283 *    -0.2941 *  0.0000     2          
   627  Li    c      5.8810 *     0.2941 *    13.4283 *  0.0000     2          
   628  Cl    c      9.8017 *    10.0957 *    -4.2147 *  0.0000     2          
   629  Li    c      9.8017 *     4.2147 *   -10.0957 *  0.0000     2          
   630  Li    c      3.9207 *    14.0164 *    -2.2544 *  0.0000     2          
   631  Li    c      3.9207 *     2.2544 *   -14.0164 *  0.0000     2          
   632  Li    c      3.9207 *    12.0561 *     7.5473 *  0.0000     2          
   633  Li    c      3.9207 *    -7.5473 *   -12.0561 *  0.0000     2          
   634  Li    c     11.7620 *     8.1354 *     3.6266 *  0.0000     2          
   635  Li    c     11.7620 *    -3.6266 *    -8.1354 *  0.0000     2          
   636  Cl    c      1.9603 *    14.0164 *    -4.2147 *  0.0000     2          
   637  Li    c      5.8810 *    12.0561 *    -6.1751 *  0.0000     2          
   638  Cl    c      5.8810 *     6.1751 *   -12.0561 *  0.0000     2          
   639  O     c      7.8414 *     8.1354 *     9.5076 *  0.0000     2          
   640  Li    c      1.9603 *     4.2147 *   -14.0164 *  0.0000     2          
   641  Li    c      0.0000       6.1751 *    13.4283 *  0.0000     1          
   642  Li    c      0.0000     -13.4283 *    -6.1751 *  0.0000     1          
   643  Li    c      3.9207 *    10.0957 *   -10.0957 *  0.0000     2          
   644  Cl    c     13.7224 *    -5.5870 *    -0.2941 *  0.0000     2          
   645  Li    c     13.7224 *     0.2941 *     5.5870 *  0.0000     2          
   646  Li    c     -7.8414 *    12.0561 *     3.6266 *  0.0000     2          
   647  Li    c      7.8414 *    -3.6266 *   -12.0561 *  0.0000     2          
   648  O     c      7.8414 *    -7.5473 *   -10.0957 *  0.0000     2          
   649  O     c      0.0000     -11.4680 *     9.5076 *  0.0000     1          
   650  Li    c     11.7620 *     4.2147 *    -8.1354 *  0.0000     2          
   651  Li    c     11.7620 *     8.1354 *    -4.2147 *  0.0000     2          
   652  O     c     -7.8414 *   -11.4680 *     5.5870 *  0.0000     2          
   653  Li    c     -7.8414 *    12.0561 *    -4.2147 *  0.0000     2          
   654  Li    c     -7.8414 *     4.2147 *   -12.0561 *  0.0000     2          
   655  O     c      3.9207 *    -3.6266 *   -14.0164 *  0.0000     2          
   656  Li    c      1.9603 *   -11.4680 *     9.5076 *  0.0000     2          
   657  Cl    c      1.9603 *    -9.5076 *    11.4680 *  0.0000     2          
   658  Cl    c     13.7224 *     6.1751 *    -0.2941 *  0.0000     2          
   659  Li    c     13.7224 *     0.2941 *    -6.1751 *  0.0000     2          
   660  O     c     11.7620 *    -7.5473 *     5.5870 *  0.0000     2          
   661  Li    c      3.9207 *     8.1354 *   -12.0561 *  0.0000     2          
   662  Li    c      3.9207 *    12.0561 *    -8.1354 *  0.0000     2          
   663  Li    c      3.9207 *   -13.4283 *     5.5870 *  0.0000     2          
   664  Li    c      3.9207 *    -5.5870 *    13.4283 *  0.0000     2          
   665  Li    c      0.0000      14.0164 *     5.5870 *  0.0000     1          
   666  Li    c      0.0000      -5.5870 *   -14.0164 *  0.0000     1          
   667  Cl    c      5.8810 *   -13.4283 *     3.6266 *  0.0000     2          
   668  Li    c      5.8810 *    -3.6266 *    13.4283 *  0.0000     2          
   669  O     c     11.7620 *     0.2941 *     9.5076 *  0.0000     2          
   670  O     c      7.8414 *     8.1354 *   -10.0957 *  0.0000     2          
   671  O     c      3.9207 *     4.2147 *   -14.0164 *  0.0000     2          
   672  Cl    c      9.8017 *    -1.6663 *    11.4680 *  0.0000     2          
   673  Li    c      9.8017 *   -11.4680 *     1.6663 *  0.0000     2          
   674  Cl    c      5.8810 *    14.0164 *    -0.2941 *  0.0000     2          
   675  Li    c      5.8810 *     0.2941 *   -14.0164 *  0.0000     2          
   676  O     c     -7.8414 *   -11.4680 *    -6.1751 *  0.0000     2          
   677  Li    c     11.7620 *    -1.6663 *     9.5076 *  0.0000     2          
   678  Li    c     11.7620 *    -9.5076 *     1.6663 *  0.0000     2          
   679  Cl    c      5.8810 *   -13.4283 *    -4.2147 *  0.0000     2          
   680  Li    c      5.8810 *     4.2147 *    13.4283 *  0.0000     2          
   681  Li    c     13.7224 *    -3.6266 *     5.5870 *  0.0000     2          
   682  Cl    c      9.8017 *     2.2544 *    11.4680 *  0.0000     2          
   683  Cl    c     13.7224 *    -5.5870 *     3.6266 *  0.0000     2          
   684  Li    c      9.8017 *   -11.4680 *    -2.2544 *  0.0000     2          
   685  O     c      0.0000     -11.4680 *   -10.0957 *  0.0000     1          
   686  O     c     11.7620 *    -7.5473 *    -6.1751 *  0.0000     2          
   687  Li    c      3.9207 *   -13.4283 *    -6.1751 *  0.0000     2          
   688  Li    c     11.7620 *     2.2544 *     9.5076 *  0.0000     2          
   689  Li    c     -3.9207 *     6.1751 *    13.4283 *  0.0000     2          
   690  Li    c     11.7620 *    -9.5076 *    -2.2544 *  0.0000     2          
   691  Li    c      0.0000      14.0164 *    -6.1751 *  0.0000     1          
   692  Li    c      0.0000       6.1751 *   -14.0164 *  0.0000     1          
   693  O     c      0.0000      12.0561 *     9.5076 *  0.0000     1          
   694  O     c     11.7620 *     8.1354 *     5.5870 *  0.0000     2          
   695  Li    c      0.0000       0.2941 *    15.3887 *  0.0000     1          
   696  Li    c      0.0000     -15.3887 *    -0.2941 *  0.0000     1          
   697  Cl    c      1.9603 *    10.0957 *    11.4680 *  0.0000     2          
   698  Li    c      1.9603 *   -11.4680 *   -10.0957 *  0.0000     2          
   699  Cl    c     13.7224 *    -5.5870 *    -4.2147 *  0.0000     2          
[...]
   2016 y          7.841351      7.843141     0.001790    Cartesian    0.02
   2016 z         11.762026     11.764474     0.002448    Cartesian    0.02
   2017 x         11.762026     11.763659     0.001632    Cartesian    0.01
   2017 y         15.682702     15.685066     0.002364    Cartesian    0.02
   2017 z         -7.841351     -7.843125    -0.001774    Cartesian    0.02
   2018 x          7.841351      7.842452     0.001101    Cartesian    0.01
   2018 y        -11.762026    -11.763772    -0.001746    Cartesian    0.01
   2018 z        -11.762026    -11.765224    -0.003197    Cartesian    0.03
   2019 x         19.603377     19.607564     0.004187    Cartesian    0.02
   2019 y         -3.920675     -3.921170    -0.000495    Cartesian    0.01
   2019 z         -3.920675     -3.921772    -0.001096    Cartesian    0.03
   2020 x         13.722364     13.724679     0.002314    Cartesian    0.02
   2020 y         -9.801689     -9.803569    -0.001880    Cartesian    0.02
   2020 z          9.801689      9.803404     0.001715    Cartesian    0.02
   2021 x          3.920675      3.920973     0.000297    Cartesian    0.01
   2021 y         11.762026     11.763651     0.001625    Cartesian    0.01
   2021 z        -15.682702    -15.685656    -0.002954    Cartesian    0.02
   2022 x          5.881013      5.881285     0.000272    Cartesian    0.00
   2022 y         17.643040     17.644748     0.001708    Cartesian    0.01
   2022 z          9.801689      9.802667     0.000979    Cartesian    0.01
   2023 x        -13.722364    -13.723237    -0.000873    Cartesian    0.01
   2023 y         -1.960338     -1.960258     0.000080    Cartesian   -0.00
   2023 z         -9.801689     -9.802329    -0.000640    Cartesian    0.01
   2024 x          3.920675      3.921223     0.000547    Cartesian    0.01
   2024 y        -15.682702    -15.688086    -0.005384    Cartesian    0.03
   2024 z          7.841351      7.843444     0.002093    Cartesian    0.03
   2025 x          7.841351      7.842994     0.001643    Cartesian    0.02
   2025 y         -7.841351     -7.843305    -0.001954    Cartesian    0.02
   2025 z         15.682702     15.686656     0.003954    Cartesian    0.03
   2026 x          7.841351      7.842930     0.001579    Cartesian    0.02
   2026 y         15.682702     15.686517     0.003815    Cartesian    0.02
   2026 z         11.762026     11.764748     0.002722    Cartesian    0.02
   2027 x          9.801689      9.801970     0.000281    Cartesian    0.00
   2027 y          1.960338      1.960535     0.000198    Cartesian    0.01
   2027 z         17.643040     17.644108     0.001068    Cartesian    0.01
   2028 x         19.603377     19.607708     0.004331    Cartesian    0.02
   2028 y          7.841351      7.843009     0.001658    Cartesian    0.02
   2028 z          3.920675      3.920986     0.000310    Cartesian    0.01
   2029 x         11.762026     11.764755     0.002729    Cartesian    0.02
   2029 y         -3.920675     -3.921514    -0.000838    Cartesian    0.02
   2029 z         15.682702     15.686405     0.003703    Cartesian    0.02
   2030 x         15.682702     15.685074     0.002372    Cartesian    0.02
   2030 y         -3.920675     -3.921166    -0.000491    Cartesian    0.01
   2030 z        -11.762026    -11.764843    -0.002817    Cartesian    0.02
   2031 x        -13.722364    -13.723284    -0.000919    Cartesian    0.01
   2031 y          5.881013      5.881099     0.000086    Cartesian    0.00
   2031 z         -9.801689     -9.802365    -0.000677    Cartesian    0.01
   2032 x          1.960338      1.960338     0.000000    Cartesian    0.00
   2032 y          9.801689      9.802910     0.001221    Cartesian    0.01
   2032 z         17.643040     17.644875     0.001836    Cartesian    0.01
   2033 x         19.603377     19.607365     0.003988    Cartesian    0.02
   2033 y          7.841351      7.842805     0.001454    Cartesian    0.02
   2033 z         -3.920675     -3.921683    -0.001008    Cartesian    0.03
   2034 x         15.682702     15.686016     0.003314    Cartesian    0.02
   2034 y        -11.762026    -11.764331    -0.002305    Cartesian    0.02
   2034 z          0.000000     -0.000610    -0.000610    Cartesian    0.00
   2035 x          7.841351      7.842781     0.001430    Cartesian    0.02
   2035 y         19.603377     19.608333     0.004955    Cartesian    0.03
   2035 z          3.920675      3.921278     0.000603    Cartesian    0.02
   2036 x          3.920675      3.921313     0.000638    Cartesian    0.02
   2036 y        -15.682702    -15.687699    -0.004997    Cartesian    0.03
   2036 z         -7.841351     -7.844372    -0.003021    Cartesian    0.04
   2037 x         11.762026     11.764838     0.002812    Cartesian    0.02
   2037 y          7.841351      7.843481     0.002130    Cartesian    0.03
   2037 z         15.682702     15.686600     0.003898    Cartesian    0.02
   2038 x         19.603377     19.608242     0.004865    Cartesian    0.02
   2038 y          0.000000      0.000077     0.000077    Cartesian    0.00
   2038 z          7.841351      7.842823     0.001472    Cartesian    0.02
   2039 x         15.682702     15.685533     0.002831    Cartesian    0.02
   2039 y          7.841351      7.842706     0.001355    Cartesian    0.02
   2039 z        -11.762026    -11.764733    -0.002707    Cartesian    0.02
   2040 x         13.722364     13.724232     0.001868    Cartesian    0.01
   2040 y         -9.801689     -9.803146    -0.001457    Cartesian    0.01
   2040 z         -9.801689     -9.803528    -0.001839    Cartesian    0.02
   2041 x          5.881013      5.881037     0.000024    Cartesian    0.00
   2041 y         17.643040     17.644234     0.001195    Cartesian    0.01
   2041 z         -9.801689     -9.802578    -0.000889    Cartesian    0.01
   2042 x          7.841351      7.842944     0.001593    Cartesian    0.02
   2042 y         11.762026     11.765253     0.003227    Cartesian    0.03
   2042 z         15.682702     15.686540     0.003838    Cartesian    0.02
   2043 x         19.603377     19.608481     0.005104    Cartesian    0.03
   2043 y          3.920675      3.921743     0.001067    Cartesian    0.03
   2043 z          7.841351      7.842906     0.001555    Cartesian    0.02
   2044 x          5.881013      5.881310     0.000297    Cartesian    0.01
   2044 y         -5.881013     -5.881849    -0.000836    Cartesian    0.01
   2044 z         17.643040     17.644696     0.001657    Cartesian    0.01
   2045 x          9.801689      9.803524     0.001836    Cartesian    0.02
   2045 y         -9.801689     -9.803679    -0.001991    Cartesian    0.02
   2045 z         13.722364     13.724798     0.002433    Cartesian    0.02
   2046 x          7.841351      7.842561     0.001210    Cartesian    0.02
   2046 y         19.603377     19.607998     0.004621    Cartesian    0.02
   2046 z         -3.920675     -3.921925    -0.001249    Cartesian    0.03
   2047 x         13.722364     13.724564     0.002200    Cartesian    0.02
   2047 y         13.722364     13.724613     0.002249    Cartesian    0.02
   2047 z          9.801689      9.803337     0.001649    Cartesian    0.02
   2048 x          1.960338      1.960338     0.000000    Cartesian    0.00
   2048 y        -17.643040    -17.644682    -0.001642    Cartesian    0.01
   2048 z          1.960338      1.960178    -0.000160    Cartesian   -0.01
   2049 x         -5.881013     -5.881930    -0.000916    Cartesian    0.02
   2049 y         -1.960338     -1.960474    -0.000137    Cartesian    0.01
   2049 z         17.643040     17.644684     0.001644    Cartesian    0.01
   2050 x         13.722364     13.724609     0.002245    Cartesian    0.02
   2050 y         -5.881013     -5.882395    -0.001382    Cartesian    0.02
   2050 z         13.722364     13.724628     0.002264    Cartesian    0.02
   2051 x          7.841351      7.842432     0.001081    Cartesian    0.01
   2051 y         15.682702     15.685812     0.003110    Cartesian    0.02
   2051 z        -11.762026    -11.764723    -0.002697    Cartesian    0.02
   2052 x         13.722364     13.723519     0.001155    Cartesian    0.01
   2052 y        -13.722364    -13.724017    -0.001653    Cartesian    0.01
   2052 z          1.960338      1.960170    -0.000168    Cartesian   -0.01
   2053 x          1.960338      1.960338     0.000000    Cartesian    0.00
   2053 y        -17.643040    -17.644630    -0.001590    Cartesian    0.01
   2053 z         -1.960338     -1.960590    -0.000253    Cartesian    0.01
   2054 x          1.960338      1.960338     0.000000    Cartesian    0.00
   2054 y         -5.881013     -5.881780    -0.000767    Cartesian    0.01
   2054 z        -17.643040    -17.644731    -0.001691    Cartesian    0.01
   2055 x          3.920675      3.921243     0.000568    Cartesian    0.01
   2055 y          0.000000     -0.000002    -0.000002    Cartesian    0.00
   2055 z         19.603377     19.608948     0.005570    Cartesian    0.03
   2056 x          7.841351      7.842741     0.001390    Cartesian    0.02
   2056 y         -7.841351     -7.843104    -0.001753    Cartesian    0.02
   2056 z        -15.682702    -15.686946    -0.004244    Cartesian    0.03
   2057 x         19.603377     19.608018     0.004641    Cartesian    0.02
   2057 y          0.000000     -0.000220    -0.000220    Cartesian    0.00
   2057 z         -7.841351     -7.843444    -0.002093    Cartesian    0.03
   2058 x          9.801689      9.802920     0.001231    Cartesian    0.01
   2058 y          5.881013      5.882128     0.001115    Cartesian    0.02
   2058 z         17.643040     17.645450     0.002410    Cartesian    0.01
   2059 x         13.722364     13.723778     0.001414    Cartesian    0.01
   2059 y        -13.722364    -13.723851    -0.001487    Cartesian    0.01
   2059 z         -1.960338     -1.960591    -0.000254    Cartesian    0.01
   2060 x        -13.722364    -13.723846    -0.001482    Cartesian    0.01
   2060 y         -9.801689     -9.802718    -0.001030    Cartesian    0.01
   2060 z          1.960338      1.960273    -0.000065    Cartesian   -0.00
   2061 x          3.920675      3.921244     0.000569    Cartesian    0.01
   2061 y          3.920675      3.921785     0.001110    Cartesian    0.03
   2061 z         19.603377     19.608715     0.005338    Cartesian    0.03
   2062 x         15.682702     15.686626     0.003924    Cartesian    0.03
   2062 y        -11.762026    -11.765111    -0.003084    Cartesian    0.03
   2062 z          3.920675      3.921330     0.000655    Cartesian    0.02
   2063 x          3.920675      3.921402     0.000727    Cartesian    0.02
   2063 y         19.603377     19.609017     0.005639    Cartesian    0.03
   2063 z          7.841351      7.843143     0.001792    Cartesian    0.02
   2064 x         11.762026     11.764213     0.002186    Cartesian    0.02
   2064 y         -3.920675     -3.921556    -0.000880    Cartesian    0.02
   2064 z        -15.682702    -15.686767    -0.004065    Cartesian    0.03
   2065 x         19.603377     19.607975     0.004597    Cartesian    0.02
   2065 y          3.920675      3.921619     0.000944    Cartesian    0.02
   2065 z         -7.841351     -7.843428    -0.002077    Cartesian    0.03
   2066 x          5.881013      5.881902     0.000889    Cartesian    0.02
   2066 y          9.801689      9.803165     0.001476    Cartesian    0.02
   2066 z         17.643040     17.645529     0.002489    Cartesian    0.01
   2067 x        -13.722364    -13.723889    -0.001525    Cartesian    0.01
   2067 y         -9.801689     -9.802581    -0.000892    Cartesian    0.01
   2067 z         -1.960338     -1.960538    -0.000200    Cartesian    0.01
   2068 x          9.801689      9.802410     0.000721    Cartesian    0.01
   2068 y          1.960338      1.960329    -0.000008    Cartesian   -0.00
   2068 z        -17.643040    -17.644458    -0.001419    Cartesian    0.01
   2069 x         15.682702     15.685682     0.002980    Cartesian    0.02
   2069 y         15.682702     15.686127     0.003425    Cartesian    0.02
   2069 z          0.000000     -0.000667    -0.000667    Cartesian    0.00
   2070 x         13.722364     13.724542     0.002178    Cartesian    0.02
   2070 y          9.801689      9.803516     0.001828    Cartesian    0.02
   2070 z         13.722364     13.724657     0.002293    Cartesian    0.02
   2071 x         13.722364     13.724021     0.001656    Cartesian    0.01
   2071 y         13.722364     13.724047     0.001682    Cartesian    0.01
   2071 z         -9.801689     -9.803408    -0.001719    Cartesian    0.02
   2072 x         15.682702     15.686479     0.003777    Cartesian    0.02
   2072 y        -11.762026    -11.764951    -0.002924    Cartesian    0.02
   2072 z         -3.920675     -3.922258    -0.001582    Cartesian    0.04
   2073 x          9.801689      9.803396     0.001707    Cartesian    0.02
   2073 y         13.722364     13.724598     0.002234    Cartesian    0.02
   2073 z         13.722364     13.724683     0.002319    Cartesian    0.02
   2074 x         21.563715     21.564285     0.000570    Cartesian    0.00
   2074 y          1.960338      1.960285    -0.000053    Cartesian   -0.00
   2074 z          1.960338      1.960133    -0.000205    Cartesian   -0.01
   2075 x          1.960338      1.960338     0.000000    Cartesian    0.00
   2075 y          9.801689      9.802316     0.000627    Cartesian    0.01
   2075 z        -17.643040    -17.644323    -0.001283    Cartesian    0.01
   2076 x          9.801689      9.803747     0.002058    Cartesian    0.02
   2076 y        -13.722364    -13.725113    -0.002749    Cartesian    0.02
   2076 z          9.801689      9.803770     0.002081    Cartesian    0.02
   2077 x         11.762026     11.764158     0.002131    Cartesian    0.02
   2077 y          7.841351      7.843022     0.001671    Cartesian    0.02
   2077 z        -15.682702    -15.687045    -0.004343    Cartesian    0.03
   2078 x         -5.881013     -5.882518    -0.001505    Cartesian    0.03
   2078 y         -9.801689     -9.803249    -0.001560    Cartesian    0.02
   2078 z        -13.722364    -13.724457    -0.002092    Cartesian    0.02
   2079 x         21.563715     21.565071     0.001356    Cartesian    0.01
   2079 y          1.960338      1.960396     0.000059    Cartesian    0.00
   2079 z         -1.960338     -1.960909    -0.000571    Cartesian    0.03
   2080 x          5.881013      5.882021     0.001008    Cartesian    0.02
   2080 y        -17.643040    -17.646056    -0.003016    Cartesian    0.02
   2080 z          1.960338      1.960724     0.000387    Cartesian    0.02
   2081 x          7.841351      7.842757     0.001406    Cartesian    0.02
   2081 y         11.762026     11.764446     0.002419    Cartesian    0.02
   2081 z        -15.682702    -15.686995    -0.004293    Cartesian    0.03
   2082 x          3.920675      3.921281     0.000605    Cartesian    0.02
   2082 y         19.603377     19.608526     0.005148    Cartesian    0.03
   2082 z         -7.841351     -7.843642    -0.002291    Cartesian    0.03
   2083 x         13.722364     13.724074     0.001710    Cartesian    0.01
   2083 y         -5.881013     -5.882229    -0.001216    Cartesian    0.02
   2083 z        -13.722364    -13.724401    -0.002037    Cartesian    0.01
   2084 x          7.841351      7.843747     0.002396    Cartesian    0.03
   2084 y        -15.682702    -15.688937    -0.006235    Cartesian    0.04
   2084 z          7.841351      7.843728     0.002377    Cartesian    0.03
   2085 x          5.881013      5.882003     0.000990    Cartesian    0.02
   2085 y        -17.643040    -17.645986    -0.002946    Cartesian    0.02
   2085 z         -1.960338     -1.961286    -0.000948    Cartesian    0.05
   2086 x        -13.722364    -13.724853    -0.002489    Cartesian    0.02
   2086 y         -5.881013     -5.882454    -0.001440    Cartesian    0.02
   2086 z          9.801689      9.803356     0.001667    Cartesian    0.02
   2087 x         17.643040     17.645249     0.002209    Cartesian    0.01
   2087 y         13.722364     13.723948     0.001584    Cartesian    0.01
   2087 z          1.960338      1.960698     0.000360    Cartesian    0.02
   2088 x          5.881013      5.881844     0.000831    Cartesian    0.01
   2088 y         -5.881013     -5.881959    -0.000946    Cartesian    0.02
   2088 z        -17.643040    -17.645429    -0.002389    Cartesian    0.01
   2089 x         13.722364     13.724047     0.001683    Cartesian    0.01
   2089 y         17.643040     17.645427     0.002387    Cartesian    0.01
   2089 z          1.960338      1.960687     0.000350    Cartesian    0.02
   2090 x          9.801689      9.802763     0.001074    Cartesian    0.01
   2090 y         -1.960338     -1.961003    -0.000665    Cartesian    0.03
   2090 z        -17.643040    -17.645385    -0.002346    Cartesian    0.01
   2091 x         17.643040     17.645303     0.002264    Cartesian    0.01
   2091 y         13.722364     13.724076     0.001712    Cartesian    0.01
   2091 z         -1.960338     -1.961243    -0.000905    Cartesian    0.05
   2092 x         11.762026     11.765487     0.003460    Cartesian    0.03
   2092 y        -15.682702    -15.688661    -0.005959    Cartesian    0.04
   2092 z          0.000000     -0.000492    -0.000492    Cartesian    0.00
   2093 x         15.682702     15.686923     0.004221    Cartesian    0.03
   2093 y         15.682702     15.687214     0.004512    Cartesian    0.03
   2093 z          3.920675      3.921431     0.000756    Cartesian    0.02
   2094 x          1.960338      1.960338     0.000000    Cartesian    0.00
   2094 y         21.563715     21.566969     0.003254    Cartesian    0.02
   2094 z          1.960338      1.960890     0.000552    Cartesian    0.03
   2095 x         13.722364     13.724103     0.001738    Cartesian    0.01
   2095 y         17.643040     17.645457     0.002417    Cartesian    0.01
   2095 z         -1.960338     -1.961334    -0.000996    Cartesian    0.05
   2096 x         19.603377     19.609058     0.005681    Cartesian    0.03
   2096 y         -3.920675     -3.922049    -0.001374    Cartesian    0.04
   2096 z          7.841351      7.843228     0.001877    Cartesian    0.02
--------------------------------------------------------------------------------


  Time to end of optimisation  =      404.8884 seconds


  Peak dynamic memory used =    1729.07 MB 


  Timing analysis for GULP :

--------------------------------------------------------------------------------
  Task / Subroutine                                          Time (Seconds)
--------------------------------------------------------------------------------
  Calculation of reciprocal space energy and derivatives          0.0005
  Calculation of reciprocal space energy using symmetry           0.0006
  Calculation of real space energy and derivatives                0.0031
  Calculation of real space energy using symmetry                 0.0075
  Calculation for region 1 energy and derivatives (2-b)         161.8581
  Calculation for region 2a energy                               52.1087
  Calculation for region 2b energy                                0.0031
  Calculation and manipulation of Hessian matrix                  1.8880
  Calculation of matrix inversion                               186.5013
  Symmetry generation of equivalent positions                     0.0056
--------------------------------------------------------------------------------
  Total CPU time                                                404.8886
--------------------------------------------------------------------------------


  Dump file written as Li3OCl.grs


  Job Finished at 15:07.02 23rd October    2020                               

