********************************************************************************
*                       GENERAL UTILITY LATTICE PROGRAM                        *
*                                 Julian Gale                                  *
*                       Curtin Institute for Computation                       *
*                    School of Molecular and Life Sciences                     *
*                    Curtin University, Western Australia                      *
********************************************************************************
* Version = 5.2.0 * Last modified =  10th September 2020                       *
********************************************************************************
*  optimise     - perform optimisation run                                     *
*  conp         - constant pressure calculation                                *
*  property     - calculate properties for final geometry                      *
*  defect       - perform defect calculation after bulk run                    *
*  compare      - compare initial and final structures                         *
********************************************************************************

  Job Started  at 11:56.46 23rd October    2020                               

  Number of CPUs =     1


  Total number of configurations input =      1

********************************************************************************
*  Input for Configuration =   1                                               *
********************************************************************************

  Formula = ClOLi3                                                      

  Number of irreducible atoms/shells =       5


  Total number atoms/shells =       7

  Dimensionality = 3               :  Bulk   


  Symmetry :

  Crystal family                   :  Cubic       
  Crystal class  (Groth - 1921)    :  Cubic Hexakisoctahedral              

  Space group (centrosymmetric)    :  P M 3 M         

  Patterson group                  :  P m -3 m 

  Cartesian lattice vectors (Angstroms) :

        3.918873    0.000000    0.000000
        0.000000    3.918873    0.000000
        0.000000    0.000000    3.918873

  Cell parameters (Angstroms/Degrees):

  a =       3.9189    alpha =  90.0000
  b =       3.9189    beta  =  90.0000
  c =       3.9189    gamma =  90.0000

  Initial cell volume =          60.184349 Angs**3

  Temperature of configuration =   0.00     K 

  Pressure of configuration =         0.000 GPa 

  Fractional coordinates of asymmetric unit :

--------------------------------------------------------------------------------
   No.  Atomic       x           y          z         Charge      Occupancy
        Label      (Frac)      (Frac)     (Frac)        (e)         (Frac)  
--------------------------------------------------------------------------------
      1 Cl    c    0.000000    0.000000    0.000000     1.48500    1.000000    
      2 O     c    0.500000    0.500000    0.500000     0.18300    1.000000    
      3 Li    c    0.500000    0.500000    0.000000     1.00000    1.000000    
      4 Cl    s    0.000000    0.000000    0.000000    -2.48500    1.000000    
      5 O     s    0.500000    0.500000    0.500000    -2.18300    1.000000    
--------------------------------------------------------------------------------


  Constraints : 

--------------------------------------------------------------------------------
  Constraint no.      Unconstrained     Constrained    Coefficient    Offset
                         Variable         Variable
--------------------------------------------------------------------------------
           1              Strain 1        Strain 2       1.00000      0.0000
           2              Strain 1        Strain 3       1.00000      0.0000
--------------------------------------------------------------------------------


********************************************************************************
*  General input information                                                   *
********************************************************************************

  Species output for all configurations : 

--------------------------------------------------------------------------------
  Species    Type    Atomic    Atomic    Charge       Radii (Angs)     Library
                     Number     Mass       (e)     Cova   Ionic  VDW   Symbol
--------------------------------------------------------------------------------
    Li       Core        3       6.94   1.000000   0.680  0.000  1.800          
    O        Core        8      16.00   0.183000   0.730  0.000  1.360          
    O        Shell       8       0.00  -2.183000   0.730  0.000  1.360          
    Cl       Core       17      35.45   1.485000   0.990  0.000  1.650          
    Cl       Shell      17       0.00  -2.485000   0.990  0.000  1.650          
--------------------------------------------------------------------------------


  Lattice summation method               =    Ewald          (3-D)
                                         =    Parry          (2-D)
                                         =    Saunders et al (1-D)
  Accuracy factor for lattice sums       =   12.000


  Analytic derivatives to be used

  Time limit = Infinity

  Maximum range for interatomic potentials =    100000.000000 Angstroms

  General interatomic potentials :

--------------------------------------------------------------------------------
Atom  Types   Potential      Parameter       Value         Units   Cutoffs(Ang)
  1     2                                                            Min /  Max 
--------------------------------------------------------------------------------
O    c O    s Spring (c-s)  Spring k 2       593.72000    eV*Ang^-2 0.000  0.800
                            Spring k 4       0.0000000    eV*Ang^-4 
--------------------------------------------------------------------------------
Cl   c Cl   s Spring (c-s)  Spring k 2       29.380000    eV*Ang^-2 0.000  0.800
                            Spring k 4       0.0000000    eV*Ang^-4 
--------------------------------------------------------------------------------
Li   c Li   c Buckingham    Buckingham A     360.53000    eV        0.000 12.000
                            Buckingham rho  0.16100000    Ang       
                            Buckingham C     0.0000000    eV*Ang^6  
--------------------------------------------------------------------------------
Li   c O    s Buckingham    Buckingham A     292.30000    eV        0.000 12.000
                            Buckingham rho  0.34720000    Ang       
                            Buckingham C     0.0000000    eV*Ang^6  
--------------------------------------------------------------------------------
Li   c Cl   s Buckingham    Buckingham A     421.04000    eV        0.000 12.000
                            Buckingham rho  0.33400000    Ang       
                            Buckingham C     0.0000000    eV*Ang^6  
--------------------------------------------------------------------------------
O    s O    s Buckingham    Buckingham A     22764.300    eV        0.000 12.000
                            Buckingham rho  0.14900000    Ang       
                            Buckingham C     13.190000    eV*Ang^6  
--------------------------------------------------------------------------------
O    s Cl   s Buckingham    Buckingham A     8286.9100    eV        0.000 12.000
                            Buckingham rho  0.25900000    Ang       
                            Buckingham C     62.200000    eV*Ang^6  
--------------------------------------------------------------------------------
Cl   s Cl   s Buckingham    Buckingham A     1227.2000    eV        0.000 12.000
                            Buckingham rho  0.32100000    Ang       
                            Buckingham C     14.530000    eV*Ang^6  
--------------------------------------------------------------------------------

********************************************************************************
*  Output for configuration   1                                                *
********************************************************************************


  Components of energy : 

--------------------------------------------------------------------------------
  Interatomic potentials     =           7.26836263 eV    
  Monopole - monopole (real) =         -11.53475722 eV    
  Monopole - monopole (recip)=         -33.94580548 eV    
  Monopole - monopole (total)=         -45.48056271 eV    
--------------------------------------------------------------------------------
  Total lattice energy       =         -38.21220008 eV    
--------------------------------------------------------------------------------
  Total lattice energy       =           -3686.8932 kJ/(mole unit cells)
--------------------------------------------------------------------------------


  Number of variables =        1

  Maximum number of calculations  =          1000
  Maximum Hessian update interval =            10
  Maximum step size               =   1.000000000
  Maximum parameter tolerance     =   0.000010000
  Maximum function  tolerance     =   0.000010000
  Maximum gradient  tolerance     =   0.001000000
  Maximum gradient  component     =   0.010000000

  Symmetry constrained optimisation

  Symmetry used for second derivatives

  Cell parameters to be optimised using strains

  Newton-Raphson optimiser to be used

  BFGS hessian update to be used

  Lower half triangular hessian to be used

  Start of bulk optimisation :

  Cycle:      0 Energy:       -38.212200  Gnorm:      0.095699  CPU:    0.006
  ** Hessian calculated **
  Cycle:      1 Energy:       -38.212222  Gnorm:      0.000105  CPU:    0.007


  **** Optimisation achieved ****


  Final energy =     -38.21222207 eV
  Final Gnorm  =       0.00000016

  Components of energy : 

--------------------------------------------------------------------------------
  Interatomic potentials     =           7.24743141 eV    
  Monopole - monopole (real) =         -11.52945423 eV    
  Monopole - monopole (recip)=         -33.93019924 eV    
  Monopole - monopole (total)=         -45.45965348 eV    
--------------------------------------------------------------------------------
  Total lattice energy       =         -38.21222207 eV    
--------------------------------------------------------------------------------
  Total lattice energy       =           -3686.8953 kJ/(mole unit cells)
--------------------------------------------------------------------------------

  Final asymmetric unit coordinates :

--------------------------------------------------------------------------------
   No.  Atomic        x           y           z         Radius
        Label       (Frac)      (Frac)      (Frac)       (Angs) 
--------------------------------------------------------------------------------
     1  Cl    c     0.000000    0.000000    0.000000    0.000000
     2  O     c     0.500000    0.500000    0.500000    0.000000
     3  Li    c     0.500000    0.500000    0.000000    0.000000
     4  Cl    s     0.000000    0.000000    0.000000    0.000000
     5  O     s     0.500000    0.500000    0.500000    0.000000
--------------------------------------------------------------------------------

  Final Cartesian lattice vectors (Angstroms) :

        3.920675    0.000000    0.000000
        0.000000    3.920675    0.000000
        0.000000    0.000000    3.920675


  Final cell parameters and derivatives :

--------------------------------------------------------------------------------
       a            3.920675 Angstrom     dE/de1(xx)    -0.000000 eV/strain
       b            3.920675 Angstrom     dE/de2(yy)     0.000000 eV/strain
       c            3.920675 Angstrom     dE/de3(zz)     0.000000 eV/strain
       alpha       90.000000 Degrees      dE/de4(yz)     0.000000 eV/strain
       beta        90.000000 Degrees      dE/de5(xz)     0.000000 eV/strain
       gamma       90.000000 Degrees      dE/de6(xy)     0.000000 eV/strain
--------------------------------------------------------------------------------

  Primitive cell volume =            60.267433 Angs**3

  Density of cell =      1.991276 g/cm**3

  Non-primitive cell volume =            60.267433 Angs**3


  Final internal derivatives :

--------------------------------------------------------------------------------
   No.  Atomic          a             b             c           Radius
        Label          (eV)          (eV)          (eV)        (eV/Angs)
--------------------------------------------------------------------------------
      1 Cl    c       0.000000      0.000000      0.000000      0.000000
      2 O     c       0.000000      0.000000      0.000000      0.000000
      3 Li    c       0.000000      0.000000      0.000000      0.000000
      4 Cl    s       0.000000      0.000000      0.000000      0.000000
      5 O     s       0.000000      0.000000      0.000000      0.000000
--------------------------------------------------------------------------------
  Maximum abs         0.000000      0.000000      0.000000      0.000000
--------------------------------------------------------------------------------

  Comparison of initial and final structures : 

--------------------------------------------------------------------------------
  Parameter   Initial value   Final value   Difference    Units      Percent
--------------------------------------------------------------------------------
    Volume        60.184349     60.267433     0.083084    Angs**3      0.14
    a              3.918873      3.920675     0.001802    Angstroms    0.05
    b              3.918873      3.920675     0.001802    Angstroms    0.05
    c              3.918873      3.920675     0.001802    Angstroms    0.05
    alpha         90.000000     90.000000     0.000000    Degrees      0.00
    beta          90.000000     90.000000     0.000000    Degrees      0.00
    gamma         90.000000     90.000000     0.000000    Degrees      0.00
      1 x          0.000000      0.000000     0.000000    Fractional   0.00
      1 y          0.000000      0.000000     0.000000    Fractional   0.00
      1 z          0.000000      0.000000     0.000000    Fractional   0.00
      2 x          0.500000      0.500000     0.000000    Fractional   0.00
      2 y          0.500000      0.500000     0.000000    Fractional   0.00
      2 z          0.500000      0.500000     0.000000    Fractional   0.00
      3 x          0.500000      0.500000     0.000000    Fractional   0.00
      3 y          0.500000      0.500000     0.000000    Fractional   0.00
      3 z          0.000000      0.000000     0.000000    Fractional   0.00
      4 x          0.000000      0.000000     0.000000    Fractional   0.00
      4 y          0.000000      0.000000     0.000000    Fractional   0.00
      4 z          0.000000      0.000000     0.000000    Fractional   0.00
      5 x          0.500000      0.500000     0.000000    Fractional   0.00
      5 y          0.500000      0.500000     0.000000    Fractional   0.00
      5 z          0.500000      0.500000     0.000000    Fractional   0.00
--------------------------------------------------------------------------------


  Born effective charge tensors : 

-------------------------------------------------------------------------------
  Atom             x           y             z
-------------------------------------------------------------------------------
    1 Cl    x      -0.9489     -0.0000     -0.0000
            y      -0.0000     -0.9489     -0.0000
            z      -0.0000     -0.0000     -0.9489
-------------------------------------------------------------------------------
    2 O     x      -2.4688      0.0000      0.0000
            y       0.0000     -2.4688      0.0000
            z       0.0000      0.0000     -2.4688
-------------------------------------------------------------------------------
    3 Li    x       1.3129      0.0000     -0.0000
            y       0.0000      1.3129      0.0000
            z      -0.0000      0.0000      0.7919
-------------------------------------------------------------------------------




  Elastic Constant Matrix: (Units=GPa)

-------------------------------------------------------------------------------
  Indices      1         2         3         4         5         6    
-------------------------------------------------------------------------------
       1     94.3368   44.9178   44.9178    0.0000   -0.0000    0.0000
       2     44.9178   94.3368   44.9178   -0.0000    0.0000   -0.0000
       3     44.9178   44.9178   94.3368    0.0000   -0.0000    0.0000
       4      0.0000   -0.0000    0.0000   44.9178   -0.0000    0.0000
       5     -0.0000    0.0000   -0.0000   -0.0000   44.9178    0.0000
       6      0.0000   -0.0000    0.0000    0.0000    0.0000   44.9178
-------------------------------------------------------------------------------


  Elastic Compliance Matrix: (Units=1/GPa)

-------------------------------------------------------------------------------
  Indices      1         2         3         4         5         6    
-------------------------------------------------------------------------------
       1    0.015300 -0.004935 -0.004935 -0.000000  0.000000 -0.000000
       2   -0.004935  0.015300 -0.004935  0.000000 -0.000000  0.000000
       3   -0.004935 -0.004935  0.015300 -0.000000  0.000000 -0.000000
       4   -0.000000  0.000000 -0.000000  0.022263  0.000000 -0.000000
       5    0.000000 -0.000000  0.000000  0.000000  0.022263 -0.000000
       6   -0.000000  0.000000 -0.000000 -0.000000 -0.000000  0.022263
-------------------------------------------------------------------------------

  Mechanical properties :

-------------------------------------------------------------------------------
  Convention :                    Reuss         Voigt         Hill
-------------------------------------------------------------------------------
  Bulk  Modulus (GPa)     =      61.39080      61.39080      61.39080
  Shear Modulus (GPa)     =      33.84570      36.83448      35.34009
-------------------------------------------------------------------------------
  Velocity S-wave (km/s)  =       4.12274       4.30092       4.21277
  Velocity P-wave (km/s)  =       7.31386       7.44942       7.38195
-------------------------------------------------------------------------------
  Compressibility (1/GPa) =    0.01628909
-------------------------------------------------------------------------------
  Stress axis :                     x             y             z
-------------------------------------------------------------------------------
  Youngs Moduli (GPa)     =      65.35947      65.35947      65.35947
-------------------------------------------------------------------------------
  Poissons Ratio (x)      =                     0.32256       0.32256
  Poissons Ratio (y)      =       0.32256                     0.32256
  Poissons Ratio (z)      =       0.32256       0.32256
-------------------------------------------------------------------------------


  Piezoelectric Strain Matrix: (Units=C/m**2)

-------------------------------------------------------------------------------
  Indices      1         2         3         4         5         6    
-------------------------------------------------------------------------------
       x    -0.00000   0.00000   0.00000  -0.00000  -0.00000   0.00000
       y    -0.00000   0.00000   0.00000  -0.00000  -0.00000  -0.00000
       z     0.00000   0.00000   0.00000   0.00000  -0.00000  -0.00000
-------------------------------------------------------------------------------


  Piezoelectric Stress Matrix: (Units=10**-11 C/N)

-------------------------------------------------------------------------------
  Indices      1         2         3         4         5         6    
-------------------------------------------------------------------------------
       x    -0.00000   0.00000   0.00000  -0.00000  -0.00000   0.00000
       y    -0.00000   0.00000   0.00000  -0.00000  -0.00000  -0.00000
       z    -0.00000  -0.00000   0.00000   0.00000  -0.00000  -0.00000
-------------------------------------------------------------------------------


  Static dielectric constant tensor : 

-------------------------------------------------------------------------------
              x         y         z
-------------------------------------------------------------------------------
       x    12.11703   0.00000  -0.00000
       y     0.00000  12.11703  -0.00000
       z    -0.00000  -0.00000  12.11703
--------------------------------------------------------------------------------

  High frequency dielectric constant tensor : 

-------------------------------------------------------------------------------
              x         y         z
-------------------------------------------------------------------------------
       x     1.74104   0.00000   0.00000
       y     0.00000   1.74104   0.00000
       z     0.00000   0.00000   1.74104
-------------------------------------------------------------------------------

  Static refractive indices : 

-------------------------------------------------------------------------------
    1 =    3.48095      2 =    3.48095      3 =    3.48095
-------------------------------------------------------------------------------

  High frequency refractive indices : 

-------------------------------------------------------------------------------
    1 =    1.31948      2 =    1.31948      3 =    1.31948
-------------------------------------------------------------------------------


  Time to end of optimisation =       0.0101 seconds

********************************************************************************
*  Defect calculation for configuration   1 :                                  *
********************************************************************************

  Total number of defects =      3

  Total charge on defect  =  -1.00

  Defect centre is at   0.5000   0.0500   0.4500  Frac

  Region 1 radius =  20.0000      Number of ions =   3886

  Number of symmetry inequivalent region 1 ions  =   2108

  Region 2 radius =  24.0000      Number of ions =   2866

  Number of symmetry inequivalent region 2a ions =   1505

  Region 2a mode = 4 : screened electrostatics due to region 1 
                       neglect correction to region 1 forces from 2a
                       region 2a displacements based on defects only

  Region 2a ions will only interact with defects in region 1

  Vacancies:

--------------------------------------------------------------------------------
    Specification type     Symbol/Number         x          y          z
--------------------------------------------------------------------------------
    Fractional                               0.500000   0.500000   0.000000
    Fractional                               0.500000   0.000000   0.500000
--------------------------------------------------------------------------------

  Interstitials:

--------------------------------------------------------------------------------
    Specification type     Symbol/Number         x          y          z
--------------------------------------------------------------------------------
    Atom/Fractional         Li               0.500000   0.050000   0.450000
--------------------------------------------------------------------------------


  Symmetry reduced region 1 (Relative to defect centre) :

--------------------------------------------------------------------------------
   No.   Atomic       x            y             z       Radius  Multiplicity   
         Label      (Angs)       (Angs)        (Angs)    (Angs)     
--------------------------------------------------------------------------------
     1  Li    c      0.0000       0.0000       0.0000    0.0000     1    Defect
     2  O     c      0.0000       1.7643 *     0.1960 *  0.0000     1          
     3  O     c      0.0000      -2.1564 *     0.1960 *  0.0000     1          
     4  Cl    c      1.9603 *    -0.1960 *    -1.7643 *  0.0000     2          
     5  Li    c      1.9603 *     1.7643 *     0.1960 *  0.0000     2          
     6  Li    c      0.0000      -2.1564 *    -1.7643 *  0.0000     1          
     7  Li    c      0.0000       1.7643 *     2.1564 *  0.0000     1          
     8  Cl    c      1.9603 *    -0.1960 *     2.1564 *  0.0000     2          
     9  Li    c      1.9603 *    -2.1564 *     0.1960 *  0.0000     2          
    10  Li    c      0.0000      -2.1564 *     2.1564 *  0.0000     1          
    11  Li    c      0.0000      -0.1960 *    -3.7246 *  0.0000     1          
    12  Li    c      0.0000       3.7246 *     0.1960 *  0.0000     1          
    13  Li    c     -3.9207 *    -0.1960 *     0.1960 *  0.0000     2          
    14  O     c      0.0000       1.7643 *    -3.7246 *  0.0000     1          
    15  Li    c      0.0000      -0.1960 *     4.1167 *  0.0000     1          
    16  Li    c      0.0000      -4.1167 *     0.1960 *  0.0000     1          
    17  O     c      0.0000      -2.1564 *    -3.7246 *  0.0000     1          
    18  O     c      3.9207 *     1.7643 *     0.1960 *  0.0000     2          
    19  O     c      0.0000       1.7643 *     4.1167 *  0.0000     1          
    20  O     c     -3.9207 *    -2.1564 *     0.1960 *  0.0000     2          
    21  Cl    c      1.9603 *     3.7246 *    -1.7643 *  0.0000     2          
    22  Li    c      1.9603 *     1.7643 *    -3.7246 *  0.0000     2          
    23  Li    c      3.9207 *     1.7643 *    -1.7643 *  0.0000     2          
    24  O     c      0.0000      -2.1564 *     4.1167 *  0.0000     1          
    25  Cl    c      1.9603 *     3.7246 *     2.1564 *  0.0000     2          
    26  Li    c      1.9603 *    -2.1564 *    -3.7246 *  0.0000     2          
    27  Li    c     -3.9207 *    -2.1564 *    -1.7643 *  0.0000     2          
    28  Li    c      3.9207 *     1.7643 *     2.1564 *  0.0000     2          
    29  Cl    c      1.9603 *    -4.1167 *    -1.7643 *  0.0000     2          
    30  Li    c      1.9603 *     1.7643 *     4.1167 *  0.0000     2          
    31  Li    c      3.9207 *    -2.1564 *     2.1564 *  0.0000     2          
    32  Cl    c      1.9603 *    -4.1167 *     2.1564 *  0.0000     2          
    33  Li    c      1.9603 *    -2.1564 *     4.1167 *  0.0000     2          
    34  Li    c      0.0000       3.7246 *    -3.7246 *  0.0000     1          
    35  Li    c     -3.9207 *    -0.1960 *    -3.7246 *  0.0000     2          
    36  Li    c     -3.9207 *     3.7246 *     0.1960 *  0.0000     2          
    37  Li    c      0.0000       3.7246 *     4.1167 *  0.0000     1          
    38  Li    c      0.0000      -4.1167 *    -3.7246 *  0.0000     1          
    39  O     c      0.0000       5.6850 *     0.1960 *  0.0000     1          
    40  O     c      3.9207 *     1.7643 *    -3.7246 *  0.0000     2          
    41  Li    c     -3.9207 *    -0.1960 *     4.1167 *  0.0000     2          
    42  Li    c     -3.9207 *    -4.1167 *     0.1960 *  0.0000     2          
    43  O     c      3.9207 *    -2.1564 *    -3.7246 *  0.0000     2          
    44  Li    c      0.0000      -4.1167 *     4.1167 *  0.0000     1          
    45  Li    c      0.0000       1.7643 *    -5.6850 *  0.0000     1          
    46  Li    c      0.0000       5.6850 *    -1.7643 *  0.0000     1          
    47  O     c      3.9207 *     1.7643 *     4.1167 *  0.0000     2          
    48  Cl    c      1.9603 *    -0.1960 *    -5.6850 *  0.0000     2          
    49  Li    c      1.9603 *     5.6850 *     0.1960 *  0.0000     2          
    50  O     c      3.9207 *    -2.1564 *     4.1167 *  0.0000     2          
    51  Li    c      0.0000      -2.1564 *    -5.6850 *  0.0000     1          
    52  Li    c      0.0000       5.6850 *     2.1564 *  0.0000     1          
    53  O     c      0.0000      -6.0770 *     0.1960 *  0.0000     1          
    54  Cl    c      5.8810 *    -0.1960 *    -1.7643 *  0.0000     2          
    55  Li    c      5.8810 *     1.7643 *     0.1960 *  0.0000     2          
    56  Cl    c      5.8810 *    -0.1960 *     2.1564 *  0.0000     2          
    57  Li    c      5.8810 *    -2.1564 *     0.1960 *  0.0000     2          
    58  Li    c      0.0000       1.7643 *     6.0770 *  0.0000     1          
    59  Li    c      0.0000      -6.0770 *    -1.7643 *  0.0000     1          
    60  Cl    c      1.9603 *    -0.1960 *     6.0770 *  0.0000     2          
    61  Li    c      1.9603 *    -6.0770 *     0.1960 *  0.0000     2          
    62  Li    c      0.0000      -2.1564 *     6.0770 *  0.0000     1          
    63  Li    c      0.0000      -6.0770 *     2.1564 *  0.0000     1          
    64  Li    c     -3.9207 *     3.7246 *    -3.7246 *  0.0000     2          
    65  O     c      0.0000       5.6850 *    -3.7246 *  0.0000     1          
    66  Li    c     -3.9207 *     3.7246 *     4.1167 *  0.0000     2          
    67  Li    c     -3.9207 *    -4.1167 *    -3.7246 *  0.0000     2          
    68  O     c     -3.9207 *     5.6850 *     0.1960 *  0.0000     2          
    69  O     c      0.0000       5.6850 *     4.1167 *  0.0000     1          
    70  Li    c     -3.9207 *    -4.1167 *     4.1167 *  0.0000     2          
    71  Cl    c      1.9603 *     3.7246 *    -5.6850 *  0.0000     2          
    72  Li    c      1.9603 *     5.6850 *    -3.7246 *  0.0000     2          
    73  Li    c      3.9207 *     1.7643 *    -5.6850 *  0.0000     2          
    74  Li    c      3.9207 *     5.6850 *    -1.7643 *  0.0000     2          
    75  O     c      0.0000      -6.0770 *    -3.7246 *  0.0000     1          
    76  Cl    c      5.8810 *     3.7246 *    -1.7643 *  0.0000     2          
    77  Li    c      5.8810 *     1.7643 *    -3.7246 *  0.0000     2          
    78  Li    c     -3.9207 *    -2.1564 *    -5.6850 *  0.0000     2          
    79  Li    c     -3.9207 *     5.6850 *     2.1564 *  0.0000     2          
    80  O     c     -3.9207 *    -6.0770 *     0.1960 *  0.0000     2          
    81  Cl    c      1.9603 *    -4.1167 *    -5.6850 *  0.0000     2          
    82  Li    c      1.9603 *     5.6850 *     4.1167 *  0.0000     2          
    83  Cl    c      5.8810 *     3.7246 *     2.1564 *  0.0000     2          
    84  Li    c      5.8810 *    -2.1564 *    -3.7246 *  0.0000     2          
    85  O     c      0.0000      -6.0770 *     4.1167 *  0.0000     1          
    86  Cl    c      1.9603 *     3.7246 *     6.0770 *  0.0000     2          
    87  Cl    c      5.8810 *    -4.1167 *    -1.7643 *  0.0000     2          
    88  Li    c      1.9603 *    -6.0770 *    -3.7246 *  0.0000     2          
    89  Li    c      5.8810 *     1.7643 *     4.1167 *  0.0000     2          
    90  Li    c      3.9207 *     1.7643 *     6.0770 *  0.0000     2          
    91  Li    c      3.9207 *    -6.0770 *    -1.7643 *  0.0000     2          
    92  Cl    c      5.8810 *    -4.1167 *     2.1564 *  0.0000     2          
    93  Li    c      5.8810 *    -2.1564 *     4.1167 *  0.0000     2          
    94  Li    c     -3.9207 *    -2.1564 *     6.0770 *  0.0000     2          
    95  Li    c     -3.9207 *    -6.0770 *     2.1564 *  0.0000     2          
    96  Cl    c      1.9603 *    -4.1167 *     6.0770 *  0.0000     2          
    97  Li    c      1.9603 *    -6.0770 *     4.1167 *  0.0000     2          
    98  Li    c      0.0000      -0.1960 *    -7.6453 *  0.0000     1          
    99  Li    c      0.0000       7.6453 *     0.1960 *  0.0000     1          
   100  O     c      0.0000       1.7643 *    -7.6453 *  0.0000     1          
   101  O     c     -3.9207 *     5.6850 *    -3.7246 *  0.0000     2          
   102  Li    c     -7.8414 *    -0.1960 *     0.1960 *  0.0000     2          
   103  O     c      0.0000      -2.1564 *    -7.6453 *  0.0000     1          
   104  O     c     -3.9207 *     5.6850 *     4.1167 *  0.0000     2          
   105  O     c     -7.8414 *     1.7643 *     0.1960 *  0.0000     2          
   106  Li    c      0.0000       5.6850 *    -5.6850 *  0.0000     1          
   107  Li    c      0.0000      -0.1960 *     8.0374 *  0.0000     1          
   108  Li    c      0.0000      -8.0374 *     0.1960 *  0.0000     1          
   109  Cl    c      1.9603 *     7.6453 *    -1.7643 *  0.0000     2          
   110  Li    c      1.9603 *     1.7643 *    -7.6453 *  0.0000     2          
   111  O     c     -3.9207 *    -6.0770 *    -3.7246 *  0.0000     2          
   112  O     c     -7.8414 *    -2.1564 *     0.1960 *  0.0000     2          
   113  Cl    c      1.9603 *     7.6453 *     2.1564 *  0.0000     2          
   114  Cl    c      5.8810 *    -0.1960 *    -5.6850 *  0.0000     2          
   115  Li    c      1.9603 *    -2.1564 *    -7.6453 *  0.0000     2          
   116  Li    c      5.8810 *     5.6850 *     0.1960 *  0.0000     2          
   117  Li    c     -7.8414 *     1.7643 *    -1.7643 *  0.0000     2          
   118  O     c      0.0000       1.7643 *     8.0374 *  0.0000     1          
   119  Li    c     -7.8414 *     1.7643 *     2.1564 *  0.0000     2          
   120  O     c      0.0000      -2.1564 *     8.0374 *  0.0000     1          
   121  O     c      3.9207 *    -6.0770 *     4.1167 *  0.0000     2          
   122  Li    c      0.0000       5.6850 *     6.0770 *  0.0000     1          
   123  Li    c      0.0000      -6.0770 *    -5.6850 *  0.0000     1          
   124  Li    c     -7.8414 *    -2.1564 *    -1.7643 *  0.0000     2          
   125  Li    c     -7.8414 *    -2.1564 *     2.1564 *  0.0000     2          
   126  Li    c      1.9603 *     1.7643 *     8.0374 *  0.0000     2          
   127  Cl    c      1.9603 *    -8.0374 *    -1.7643 *  0.0000     2          
   128  Cl    c      5.8810 *    -0.1960 *     6.0770 *  0.0000     2          
   129  Li    c      5.8810 *    -6.0770 *     0.1960 *  0.0000     2          
   130  Li    c      0.0000       3.7246 *    -7.6453 *  0.0000     1          
   131  Li    c      0.0000       7.6453 *    -3.7246 *  0.0000     1          
   132  Cl    c      1.9603 *    -8.0374 *     2.1564 *  0.0000     2          
   133  Li    c      1.9603 *    -2.1564 *     8.0374 *  0.0000     2          
   134  Li    c      3.9207 *    -0.1960 *    -7.6453 *  0.0000     2          
   135  Li    c      3.9207 *     7.6453 *     0.1960 *  0.0000     2          
   136  Li    c      0.0000      -6.0770 *     6.0770 *  0.0000     1          
   137  Li    c      0.0000       7.6453 *     4.1167 *  0.0000     1          
   138  Li    c      0.0000      -4.1167 *    -7.6453 *  0.0000     1          
   139  Li    c      7.8414 *    -0.1960 *    -3.7246 *  0.0000     2          
   140  Li    c      7.8414 *     3.7246 *     0.1960 *  0.0000     2          
   141  O     c      3.9207 *     1.7643 *    -7.6453 *  0.0000     2          
   142  O     c      3.9207 *    -2.1564 *    -7.6453 *  0.0000     2          
   143  O     c     -7.8414 *     1.7643 *    -3.7246 *  0.0000     2          
   144  Li    c     -7.8414 *    -0.1960 *     4.1167 *  0.0000     2          
   145  Li    c     -7.8414 *    -4.1167 *     0.1960 *  0.0000     2          
   146  Li    c      0.0000       3.7246 *     8.0374 *  0.0000     1          
   147  Li    c      0.0000      -8.0374 *    -3.7246 *  0.0000     1          
   148  O     c     -7.8414 *    -2.1564 *    -3.7246 *  0.0000     2          
   149  Li    c      3.9207 *     5.6850 *    -5.6850 *  0.0000     2          
   150  Li    c     -3.9207 *    -0.1960 *     8.0374 *  0.0000     2          
   151  Li    c      3.9207 *    -8.0374 *     0.1960 *  0.0000     2          
   152  Li    c      5.8810 *     5.6850 *    -3.7246 *  0.0000     2          
   153  Cl    c      5.8810 *     3.7246 *    -5.6850 *  0.0000     2          
   154  O     c     -7.8414 *     1.7643 *     4.1167 *  0.0000     2          
   155  Li    c      0.0000      -4.1167 *     8.0374 *  0.0000     1          
   156  Li    c      0.0000      -8.0374 *     4.1167 *  0.0000     1          
   157  O     c     -7.8414 *    -2.1564 *     4.1167 *  0.0000     2          
   158  O     c      3.9207 *     1.7643 *     8.0374 *  0.0000     2          
   159  Cl    c      5.8810 *    -4.1167 *    -5.6850 *  0.0000     2          
   160  Li    c      5.8810 *     5.6850 *     4.1167 *  0.0000     2          
   161  Li    c     -3.9207 *     5.6850 *     6.0770 *  0.0000     2          
   162  Li    c     -3.9207 *    -6.0770 *    -5.6850 *  0.0000     2          
   163  O     c      3.9207 *    -2.1564 *     8.0374 *  0.0000     2          
   164  Cl    c      5.8810 *     3.7246 *     6.0770 *  0.0000     2          
   165  Li    c      5.8810 *    -6.0770 *    -3.7246 *  0.0000     2          
   166  Li    c     -3.9207 *     3.7246 *    -7.6453 *  0.0000     2          
   167  Li    c      3.9207 *     7.6453 *    -3.7246 *  0.0000     2          
   168  Cl    c      5.8810 *    -4.1167 *     6.0770 *  0.0000     2          
   169  Li    c      5.8810 *    -6.0770 *     4.1167 *  0.0000     2          
   170  Li    c      7.8414 *     3.7246 *    -3.7246 *  0.0000     2          
   171  Li    c      3.9207 *    -6.0770 *     6.0770 *  0.0000     2          
   172  O     c      0.0000       5.6850 *    -7.6453 *  0.0000     1          
   173  Li    c      3.9207 *     7.6453 *     4.1167 *  0.0000     2          
   174  Li    c      3.9207 *    -4.1167 *    -7.6453 *  0.0000     2          
   175  O     c      0.0000       9.6057 *     0.1960 *  0.0000     1          
   176  Li    c     -7.8414 *    -4.1167 *    -3.7246 *  0.0000     2          
   177  Li    c      7.8414 *     3.7246 *     4.1167 *  0.0000     2          
   178  O     c     -7.8414 *     5.6850 *     0.1960 *  0.0000     2          
   179  Li    c      3.9207 *     3.7246 *     8.0374 *  0.0000     2          
   180  Li    c      3.9207 *    -8.0374 *    -3.7246 *  0.0000     2          
   181  Cl    c      1.9603 *     7.6453 *    -5.6850 *  0.0000     2          
   182  Li    c      1.9603 *     5.6850 *    -7.6453 *  0.0000     2          
   183  O     c      0.0000      -6.0770 *    -7.6453 *  0.0000     1          
   184  Li    c      0.0000       1.7643 *    -9.6057 *  0.0000     1          
   185  Li    c      0.0000       9.6057 *    -1.7643 *  0.0000     1          
   186  Li    c     -7.8414 *    -4.1167 *     4.1167 *  0.0000     2          
   187  Cl    c      1.9603 *    -0.1960 *    -9.6057 *  0.0000     2          
   188  Cl    c      5.8810 *     7.6453 *    -1.7643 *  0.0000     2          
   189  Li    c      1.9603 *     9.6057 *     0.1960 *  0.0000     2          
   190  Li    c      5.8810 *     1.7643 *    -7.6453 *  0.0000     2          
   191  Li    c      0.0000      -2.1564 *    -9.6057 *  0.0000     1          
   192  Li    c      0.0000       9.6057 *     2.1564 *  0.0000     1          
   193  O     c      0.0000       5.6850 *     8.0374 *  0.0000     1          
   194  Li    c      7.8414 *     1.7643 *    -5.6850 *  0.0000     2          
   195  Li    c     -7.8414 *     5.6850 *    -1.7643 *  0.0000     2          
   196  Li    c     -3.9207 *    -4.1167 *     8.0374 *  0.0000     2          
   197  Li    c      3.9207 *    -8.0374 *     4.1167 *  0.0000     2          
   198  Cl    c      5.8810 *     7.6453 *     2.1564 *  0.0000     2          
   199  Li    c      5.8810 *    -2.1564 *    -7.6453 *  0.0000     2          
   200  Li    c     -7.8414 *     5.6850 *     2.1564 *  0.0000     2          
   201  O     c     -7.8414 *    -6.0770 *     0.1960 *  0.0000     2          
   202  Li    c      7.8414 *    -2.1564 *    -5.6850 *  0.0000     2          
   203  Cl    c      1.9603 *     7.6453 *     6.0770 *  0.0000     2          
   204  Li    c      1.9603 *    -6.0770 *    -7.6453 *  0.0000     2          
   205  Cl    c      9.8017 *    -0.1960 *    -1.7643 *  0.0000     2          
   206  Li    c      9.8017 *     1.7643 *     0.1960 *  0.0000     2          
   207  O     c      0.0000      -9.9977 *     0.1960 *  0.0000     1          
   208  Li    c      1.9603 *     5.6850 *     8.0374 *  0.0000     2          
   209  Cl    c      1.9603 *    -8.0374 *    -5.6850 *  0.0000     2          
   210  Cl    c      9.8017 *    -0.1960 *     2.1564 *  0.0000     2          
   211  Li    c      9.8017 *    -2.1564 *     0.1960 *  0.0000     2          
   212  Li    c     -7.8414 *     1.7643 *     6.0770 *  0.0000     2          
   213  Li    c     -7.8414 *    -6.0770 *    -1.7643 *  0.0000     2          
   214  O     c      0.0000      -6.0770 *     8.0374 *  0.0000     1          
   215  Cl    c      5.8810 *    -8.0374 *    -1.7643 *  0.0000     2          
   216  Li    c      5.8810 *     1.7643 *     8.0374 *  0.0000     2          
   217  Li    c     -7.8414 *    -2.1564 *     6.0770 *  0.0000     2          
   218  Li    c     -7.8414 *    -6.0770 *     2.1564 *  0.0000     2          
   219  Li    c      0.0000       1.7643 *     9.9977 *  0.0000     1          
   220  Li    c      0.0000      -9.9977 *    -1.7643 *  0.0000     1          
   221  Cl    c      5.8810 *    -8.0374 *     2.1564 *  0.0000     2          
   222  Li    c      5.8810 *    -2.1564 *     8.0374 *  0.0000     2          
   223  Cl    c      1.9603 *    -0.1960 *     9.9977 *  0.0000     2          
   224  Li    c      1.9603 *    -9.9977 *     0.1960 *  0.0000     2          
   225  Li    c      0.0000      -2.1564 *     9.9977 *  0.0000     1          
   226  Li    c      0.0000      -9.9977 *     2.1564 *  0.0000     1          
   227  Cl    c      1.9603 *    -8.0374 *     6.0770 *  0.0000     2          
   228  Li    c      1.9603 *    -6.0770 *     8.0374 *  0.0000     2          
   229  O     c      0.0000       9.6057 *    -3.7246 *  0.0000     1          
   230  O     c      3.9207 *     5.6850 *    -7.6453 *  0.0000     2          
   231  O     c      3.9207 *     9.6057 *     0.1960 *  0.0000     2          
   232  O     c     -7.8414 *     5.6850 *    -3.7246 *  0.0000     2          
   233  O     c      0.0000       9.6057 *     4.1167 *  0.0000     1          
   234  Cl    c      1.9603 *     3.7246 *    -9.6057 *  0.0000     2          
   235  Li    c      1.9603 *     9.6057 *    -3.7246 *  0.0000     2          
   236  Li    c      3.9207 *     1.7643 *    -9.6057 *  0.0000     2          
   237  O     c     -3.9207 *    -6.0770 *    -7.6453 *  0.0000     2          
   238  O     c     -7.8414 *     5.6850 *     4.1167 *  0.0000     2          
   239  Li    c      3.9207 *     9.6057 *    -1.7643 *  0.0000     2          
   240  Li    c      3.9207 *    -2.1564 *    -9.6057 *  0.0000     2          
   241  Li    c      3.9207 *     9.6057 *     2.1564 *  0.0000     2          
   242  O     c     -3.9207 *     5.6850 *     8.0374 *  0.0000     2          
   243  O     c     -7.8414 *    -6.0770 *    -3.7246 *  0.0000     2          
   244  Cl    c      1.9603 *    -4.1167 *    -9.6057 *  0.0000     2          
   245  Li    c      1.9603 *     9.6057 *     4.1167 *  0.0000     2          
   246  Cl    c      9.8017 *     3.7246 *    -1.7643 *  0.0000     2          
   247  Li    c      9.8017 *     1.7643 *    -3.7246 *  0.0000     2          
   248  O     c      0.0000      -9.9977 *    -3.7246 *  0.0000     1          
   249  Cl    c      9.8017 *     3.7246 *     2.1564 *  0.0000     2          
   250  Li    c      9.8017 *    -2.1564 *    -3.7246 *  0.0000     2          
   251  O     c     -7.8414 *    -6.0770 *     4.1167 *  0.0000     2          
   252  O     c      3.9207 *    -9.9977 *     0.1960 *  0.0000     2          
   253  Cl    c      9.8017 *    -4.1167 *    -1.7643 *  0.0000     2          
   254  Li    c      9.8017 *     1.7643 *     4.1167 *  0.0000     2          
   255  Li    c      0.0000       7.6453 *    -7.6453 *  0.0000     1          
   256  O     c      0.0000      -9.9977 *     4.1167 *  0.0000     1          
   257  O     c      3.9207 *    -6.0770 *     8.0374 *  0.0000     2          
   258  Cl    c      1.9603 *     3.7246 *     9.9977 *  0.0000     2          
   259  Cl    c      9.8017 *    -4.1167 *     2.1564 *  0.0000     2          
   260  Li    c      1.9603 *    -9.9977 *    -3.7246 *  0.0000     2          
   261  Li    c      9.8017 *    -2.1564 *     4.1167 *  0.0000     2          
   262  Li    c      3.9207 *     1.7643 *     9.9977 *  0.0000     2          
   263  Li    c      3.9207 *    -9.9977 *    -1.7643 *  0.0000     2          
   264  Li    c      7.8414 *    -0.1960 *    -7.6453 *  0.0000     2          
   265  Li    c      7.8414 *     7.6453 *     0.1960 *  0.0000     2          
   266  Li    c      3.9207 *    -2.1564 *     9.9977 *  0.0000     2          
   267  Li    c      3.9207 *    -9.9977 *     2.1564 *  0.0000     2          
   268  Cl    c      1.9603 *    -4.1167 *     9.9977 *  0.0000     2          
   269  Li    c      1.9603 *    -9.9977 *     4.1167 *  0.0000     2          
   270  O     c      3.9207 *     9.6057 *    -3.7246 *  0.0000     2          
   271  O     c     -7.8414 *     1.7643 *    -7.6453 *  0.0000     2          
   272  Li    c      0.0000       7.6453 *     8.0374 *  0.0000     1          
   273  Li    c      0.0000      -8.0374 *    -7.6453 *  0.0000     1          
   274  O     c      3.9207 *     9.6057 *     4.1167 *  0.0000     2          
   275  O     c     -7.8414 *    -2.1564 *    -7.6453 *  0.0000     2          
   276  Li    c      0.0000       5.6850 *    -9.6057 *  0.0000     1          
   277  Li    c      0.0000       9.6057 *    -5.6850 *  0.0000     1          
   278  Li    c      5.8810 *     5.6850 *    -7.6453 *  0.0000     2          
   279  Cl    c      5.8810 *     7.6453 *    -5.6850 *  0.0000     2          
   280  Li    c      7.8414 *     5.6850 *    -5.6850 *  0.0000     2          
   281  Li    c     -7.8414 *    -0.1960 *     8.0374 *  0.0000     2          
   282  Li    c     -7.8414 *    -8.0374 *     0.1960 *  0.0000     2          
   283  Cl    c      5.8810 *    -0.1960 *    -9.6057 *  0.0000     2          
   284  Li    c      5.8810 *     9.6057 *     0.1960 *  0.0000     2          
   285  Cl    c      9.8017 *    -0.1960 *    -5.6850 *  0.0000     2          
   286  Li    c      9.8017 *     5.6850 *     0.1960 *  0.0000     2          
   287  Li    c      0.0000       9.6057 *     6.0770 *  0.0000     1          
   288  Li    c      0.0000      -6.0770 *    -9.6057 *  0.0000     1          
   289  O     c      3.9207 *    -9.9977 *    -3.7246 *  0.0000     2          
   290  O     c      7.8414 *     1.7643 *     8.0374 *  0.0000     2          
   291  Li    c      0.0000      -8.0374 *     8.0374 *  0.0000     1          
   292  Cl    c      5.8810 *     7.6453 *     6.0770 *  0.0000     2          
   293  Li    c      5.8810 *    -6.0770 *    -7.6453 *  0.0000     2          
   294  Li    c     -7.8414 *     5.6850 *     6.0770 *  0.0000     2          
   295  Li    c     -7.8414 *    -6.0770 *    -5.6850 *  0.0000     2          
   296  O     c      7.8414 *    -2.1564 *     8.0374 *  0.0000     2          
   297  Cl    c      5.8810 *    -8.0374 *    -5.6850 *  0.0000     2          
   298  Li    c      5.8810 *     5.6850 *     8.0374 *  0.0000     2          
   299  Li    c      3.9207 *     7.6453 *    -7.6453 *  0.0000     2          
   300  Li    c      0.0000       5.6850 *     9.9977 *  0.0000     1          
   301  Li    c      0.0000      -9.9977 *    -5.6850 *  0.0000     1          
   302  O     c      3.9207 *    -9.9977 *     4.1167 *  0.0000     2          
   303  Cl    c      9.8017 *    -0.1960 *     6.0770 *  0.0000     2          
   304  Li    c      9.8017 *    -6.0770 *     0.1960 *  0.0000     2          
   305  Li    c      0.0000      -0.1960 *   -11.5660 *  0.0000     1          
   306  Li    c      0.0000      11.5660 *     0.1960 *  0.0000     1          
   307  Li    c      7.8414 *     3.7246 *    -7.6453 *  0.0000     2          
   308  Li    c      7.8414 *     7.6453 *    -3.7246 *  0.0000     2          
   309  Cl    c      5.8810 *    -0.1960 *     9.9977 *  0.0000     2          
   310  Li    c      5.8810 *    -9.9977 *     0.1960 *  0.0000     2          
   311  Li    c      7.8414 *    -6.0770 *     6.0770 *  0.0000     2          
   312  Cl    c      5.8810 *    -8.0374 *     6.0770 *  0.0000     2          
   313  Li    c      5.8810 *    -6.0770 *     8.0374 *  0.0000     2          
   314  O     c      0.0000       1.7643 *   -11.5660 *  0.0000     1          
   315  Li    c      7.8414 *     7.6453 *     4.1167 *  0.0000     2          
   316  Li    c      7.8414 *    -4.1167 *    -7.6453 *  0.0000     2          
   317  Li    c      0.0000      -6.0770 *     9.9977 *  0.0000     1          
   318  Li    c      0.0000      -9.9977 *     6.0770 *  0.0000     1          
   319  O     c      0.0000      -2.1564 *   -11.5660 *  0.0000     1          
   320  Li    c      3.9207 *     7.6453 *     8.0374 *  0.0000     2          
   321  Li    c      3.9207 *    -8.0374 *    -7.6453 *  0.0000     2          
   322  Li    c     11.7620 *    -0.1960 *     0.1960 *  0.0000     2          
   323  Li    c      3.9207 *     5.6850 *    -9.6057 *  0.0000     2          
   324  Li    c      3.9207 *     9.6057 *    -5.6850 *  0.0000     2          
   325  Li    c      7.8414 *     3.7246 *     8.0374 *  0.0000     2          
   326  Li    c      7.8414 *    -8.0374 *    -3.7246 *  0.0000     2          
   327  Cl    c      1.9603 *    11.5660 *    -1.7643 *  0.0000     2          
   328  Cl    c      5.8810 *     3.7246 *    -9.6057 *  0.0000     2          
   329  Li    c      1.9603 *     1.7643 *   -11.5660 *  0.0000     2          
   330  Li    c      5.8810 *     9.6057 *    -3.7246 *  0.0000     2          
   331  O     c     11.7620 *     1.7643 *     0.1960 *  0.0000     2          
   332  Cl    c      1.9603 *    11.5660 *     2.1564 *  0.0000     2          
   333  Li    c      1.9603 *    -2.1564 *   -11.5660 *  0.0000     2          
   334  Li    c      9.8017 *     5.6850 *    -3.7246 *  0.0000     2          
   335  Cl    c      9.8017 *     3.7246 *    -5.6850 *  0.0000     2          
   336  O     c     11.7620 *    -2.1564 *     0.1960 *  0.0000     2          
   337  Li    c      0.0000      -0.1960 *    11.9581 *  0.0000     1          
   338  Li    c      0.0000     -11.9581 *     0.1960 *  0.0000     1          
   339  Li    c     -7.8414 *    -4.1167 *     8.0374 *  0.0000     2          
   340  Li    c     -7.8414 *    -8.0374 *     4.1167 *  0.0000     2          
   341  Cl    c      5.8810 *    -4.1167 *    -9.6057 *  0.0000     2          
   342  Li    c      5.8810 *     9.6057 *     4.1167 *  0.0000     2          
   343  Li    c     11.7620 *     1.7643 *    -1.7643 *  0.0000     2          
   344  Li    c     -3.9207 *    -6.0770 *    -9.6057 *  0.0000     2          
   345  Li    c      3.9207 *     9.6057 *     6.0770 *  0.0000     2          
   346  Li    c      3.9207 *    -8.0374 *     8.0374 *  0.0000     2          
   347  Cl    c      9.8017 *    -4.1167 *    -5.6850 *  0.0000     2          
   348  Li    c      9.8017 *     5.6850 *     4.1167 *  0.0000     2          
   349  O     c      0.0000       1.7643 *    11.9581 *  0.0000     1          
   350  Li    c     11.7620 *    -2.1564 *    -1.7643 *  0.0000     2          
   351  Li    c     11.7620 *     1.7643 *     2.1564 *  0.0000     2          
   352  Cl    c      9.8017 *     3.7246 *     6.0770 *  0.0000     2          
   353  Li    c      9.8017 *    -6.0770 *    -3.7246 *  0.0000     2          
   354  O     c      0.0000      -2.1564 *    11.9581 *  0.0000     1          
   355  Li    c     11.7620 *    -2.1564 *     2.1564 *  0.0000     2          
   356  Li    c     -3.9207 *     5.6850 *     9.9977 *  0.0000     2          
   357  Li    c      0.0000       3.7246 *   -11.5660 *  0.0000     1          
   358  Li    c      0.0000      11.5660 *    -3.7246 *  0.0000     1          
   359  Li    c      3.9207 *    -9.9977 *    -5.6850 *  0.0000     2          
   360  Cl    c      5.8810 *     3.7246 *     9.9977 *  0.0000     2          
   361  Li    c      5.8810 *    -9.9977 *    -3.7246 *  0.0000     2          
   362  Li    c      3.9207 *    -0.1960 *   -11.5660 *  0.0000     2          
   363  Li    c      3.9207 *    11.5660 *     0.1960 *  0.0000     2          
   364  Cl    c      1.9603 *   -11.9581 *    -1.7643 *  0.0000     2          
   365  Li    c      1.9603 *     1.7643 *    11.9581 *  0.0000     2          
   366  Cl    c      9.8017 *    -4.1167 *     6.0770 *  0.0000     2          
   367  Li    c      9.8017 *    -6.0770 *     4.1167 *  0.0000     2          
   368  O     c      0.0000       9.6057 *    -7.6453 *  0.0000     1          
   369  Li    c      0.0000      11.5660 *     4.1167 *  0.0000     1          
   370  Li    c      0.0000      -4.1167 *   -11.5660 *  0.0000     1          
   371  Cl    c      1.9603 *   -11.9581 *     2.1564 *  0.0000     2          
   372  Li    c      1.9603 *    -2.1564 *    11.9581 *  0.0000     2          
   373  Cl    c      5.8810 *    -4.1167 *     9.9977 *  0.0000     2          
   374  Li    c      5.8810 *    -9.9977 *     4.1167 *  0.0000     2          
   375  O     c      3.9207 *     1.7643 *   -11.5660 *  0.0000     2          
   376  O     c     -7.8414 *     5.6850 *    -7.6453 *  0.0000     2          
   377  Li    c      3.9207 *    -6.0770 *     9.9977 *  0.0000     2          
   378  Li    c      3.9207 *    -9.9977 *     6.0770 *  0.0000     2          
   379  Li    c     11.7620 *    -0.1960 *    -3.7246 *  0.0000     2          
   380  Li    c     11.7620 *     3.7246 *     0.1960 *  0.0000     2          
   381  O     c     -3.9207 *    -2.1564 *   -11.5660 *  0.0000     2          
   382  O     c      7.8414 *     9.6057 *     0.1960 *  0.0000     2          
   383  Cl    c      1.9603 *     7.6453 *    -9.6057 *  0.0000     2          
   384  Li    c      1.9603 *     9.6057 *    -7.6453 *  0.0000     2          
   385  O     c     11.7620 *     1.7643 *    -3.7246 *  0.0000     2          
   386  Li    c     11.7620 *    -0.1960 *     4.1167 *  0.0000     2          
   387  Li    c     11.7620 *    -4.1167 *     0.1960 *  0.0000     2          
   388  O     c      0.0000       9.6057 *     8.0374 *  0.0000     1          
   389  O     c     11.7620 *    -2.1564 *    -3.7246 *  0.0000     2          
   390  O     c     -7.8414 *    -6.0770 *    -7.6453 *  0.0000     2          
   391  Li    c      7.8414 *     1.7643 *    -9.6057 *  0.0000     2          
   392  Li    c      7.8414 *     9.6057 *    -1.7643 *  0.0000     2          
   393  Li    c      0.0000       3.7246 *    11.9581 *  0.0000     1          
   394  Li    c      0.0000     -11.9581 *    -3.7246 *  0.0000     1          
   395  Cl    c      9.8017 *     7.6453 *    -1.7643 *  0.0000     2          
   396  Li    c      9.8017 *     1.7643 *    -7.6453 *  0.0000     2          
   397  O     c      0.0000      -9.9977 *    -7.6453 *  0.0000     1          
   398  O     c     11.7620 *     1.7643 *     4.1167 *  0.0000     2          
   399  O     c     -7.8414 *     5.6850 *     8.0374 *  0.0000     2          
   400  Li    c      7.8414 *    -2.1564 *    -9.6057 *  0.0000     2          
   401  Li    c      7.8414 *     9.6057 *     2.1564 *  0.0000     2          
   402  Li    c      3.9207 *    -0.1960 *    11.9581 *  0.0000     2          
   403  Li    c      3.9207 *   -11.9581 *     0.1960 *  0.0000     2          
   404  Cl    c      9.8017 *     7.6453 *     2.1564 *  0.0000     2          
   405  Li    c      9.8017 *    -2.1564 *    -7.6453 *  0.0000     2          
   406  O     c     11.7620 *    -2.1564 *     4.1167 *  0.0000     2          
   407  Li    c      0.0000      -4.1167 *    11.9581 *  0.0000     1          
   408  Li    c      0.0000     -11.9581 *     4.1167 *  0.0000     1          
   409  Cl    c      1.9603 *    -8.0374 *    -9.6057 *  0.0000     2          
   410  Li    c      1.9603 *     9.6057 *     8.0374 *  0.0000     2          
   411  O     c      3.9207 *     1.7643 *    11.9581 *  0.0000     2          
   412  O     c     -7.8414 *    -9.9977 *     0.1960 *  0.0000     2          
   413  Cl    c      1.9603 *     7.6453 *     9.9977 *  0.0000     2          
   414  Li    c      1.9603 *    -9.9977 *    -7.6453 *  0.0000     2          
   415  Li    c      3.9207 *    11.5660 *    -3.7246 *  0.0000     2          
   416  Li    c      3.9207 *     3.7246 *   -11.5660 *  0.0000     2          
   417  O     c      3.9207 *    -2.1564 *    11.9581 *  0.0000     2          
   418  O     c      7.8414 *    -6.0770 *     8.0374 *  0.0000     2          
   419  Cl    c      9.8017 *    -8.0374 *    -1.7643 *  0.0000     2          
   420  Li    c      9.8017 *     1.7643 *     8.0374 *  0.0000     2          
   421  Li    c     -7.8414 *    -9.9977 *    -1.7643 *  0.0000     2          
   422  O     c      0.0000      -9.9977 *     8.0374 *  0.0000     1          
   423  Li    c      7.8414 *     1.7643 *     9.9977 *  0.0000     2          
   424  Cl    c      9.8017 *    -8.0374 *     2.1564 *  0.0000     2          
   425  Li    c      9.8017 *    -2.1564 *     8.0374 *  0.0000     2          
   426  O     c      0.0000       5.6850 *   -11.5660 *  0.0000     1          
   427  O     c      3.9207 *     9.6057 *    -7.6453 *  0.0000     2          
   428  Li    c      3.9207 *    11.5660 *     4.1167 *  0.0000     2          
   429  Li    c      3.9207 *    -4.1167 *   -11.5660 *  0.0000     2          
   430  Li    c     -7.8414 *    -9.9977 *     2.1564 *  0.0000     2          
   431  Li    c      7.8414 *    -2.1564 *     9.9977 *  0.0000     2          
   432  Li    c     11.7620 *     3.7246 *    -3.7246 *  0.0000     2          
   433  O     c      7.8414 *     9.6057 *    -3.7246 *  0.0000     2          
   434  Cl    c      1.9603 *    -8.0374 *     9.9977 *  0.0000     2          
   435  Li    c      1.9603 *    -9.9977 *     8.0374 *  0.0000     2          
   436  Li    c     11.7620 *    -4.1167 *    -3.7246 *  0.0000     2          
   437  Li    c     11.7620 *     3.7246 *     4.1167 *  0.0000     2          
   438  Cl    c      1.9603 *    11.5660 *    -5.6850 *  0.0000     2          
   439  Li    c      1.9603 *     5.6850 *   -11.5660 *  0.0000     2          
   440  O     c      0.0000      -6.0770 *   -11.5660 *  0.0000     1          
   441  O     c      7.8414 *     9.6057 *     4.1167 *  0.0000     2          
   442  O     c     11.7620 *     5.6850 *     0.1960 *  0.0000     2          
   443  Cl    c      5.8810 *    11.5660 *    -1.7643 *  0.0000     2          
   444  Li    c      5.8810 *     1.7643 *   -11.5660 *  0.0000     2          
   445  O     c      3.9207 *     9.6057 *     8.0374 *  0.0000     2          
   446  Li    c      3.9207 *     3.7246 *    11.9581 *  0.0000     2          
   447  Li    c      3.9207 *   -11.9581 *    -3.7246 *  0.0000     2          
   448  Li    c     11.7620 *    -4.1167 *     4.1167 *  0.0000     2          
   449  Cl    c      5.8810 *    11.5660 *     2.1564 *  0.0000     2          
   450  Li    c      5.8810 *    -2.1564 *   -11.5660 *  0.0000     2          
   451  Li    c     11.7620 *     1.7643 *    -5.6850 *  0.0000     2          
   452  Li    c     11.7620 *     5.6850 *    -1.7643 *  0.0000     2          
   453  O     c      3.9207 *    -9.9977 *    -7.6453 *  0.0000     2          
   454  Cl    c      1.9603 *    11.5660 *     6.0770 *  0.0000     2          
   455  Li    c      1.9603 *    -6.0770 *   -11.5660 *  0.0000     2          
   456  O     c      0.0000       5.6850 *    11.9581 *  0.0000     1          
   457  Li    c     11.7620 *    -2.1564 *    -5.6850 *  0.0000     2          
   458  Li    c     11.7620 *     5.6850 *     2.1564 *  0.0000     2          
   459  Li    c      3.9207 *   -11.9581 *     4.1167 *  0.0000     2          
   460  Li    c     -3.9207 *    -4.1167 *    11.9581 *  0.0000     2          
   461  O     c      7.8414 *    -9.9977 *    -3.7246 *  0.0000     2          
   462  O     c     11.7620 *    -6.0770 *     0.1960 *  0.0000     2          
   463  Li    c      7.8414 *     7.6453 *    -7.6453 *  0.0000     2          
   464  O     c     -7.8414 *    -9.9977 *     4.1167 *  0.0000     2          
   465  Li    c     11.7620 *     1.7643 *     6.0770 *  0.0000     2          
   466  Li    c     11.7620 *    -6.0770 *    -1.7643 *  0.0000     2          
   467  Cl    c      1.9603 *   -11.9581 *    -5.6850 *  0.0000     2          
   468  Li    c      1.9603 *     5.6850 *    11.9581 *  0.0000     2          
   469  O     c      0.0000      -6.0770 *    11.9581 *  0.0000     1          
   470  Li    c     11.7620 *    -2.1564 *     6.0770 *  0.0000     2          
   471  Li    c     11.7620 *    -6.0770 *     2.1564 *  0.0000     2          
   472  O     c      3.9207 *    -9.9977 *     8.0374 *  0.0000     2          
   473  Cl    c      5.8810 *   -11.9581 *    -1.7643 *  0.0000     2          
   474  Li    c      5.8810 *     1.7643 *    11.9581 *  0.0000     2          
   475  O     c      3.9207 *     5.6850 *   -11.5660 *  0.0000     2          
   476  Cl    c      5.8810 *   -11.9581 *     2.1564 *  0.0000     2          
   477  Li    c      5.8810 *    -2.1564 *    11.9581 *  0.0000     2          
   478  O     c      0.0000      13.5263 *     0.1960 *  0.0000     1          
   479  Cl    c      1.9603 *   -11.9581 *     6.0770 *  0.0000     2          
   480  Li    c      1.9603 *    -6.0770 *    11.9581 *  0.0000     2          
   481  Li    c      0.0000       9.6057 *    -9.6057 *  0.0000     1          
   482  O     c     11.7620 *     5.6850 *    -3.7246 *  0.0000     2          
   483  Li    c      7.8414 *     7.6453 *     8.0374 *  0.0000     2          
   484  Li    c      7.8414 *    -8.0374 *    -7.6453 *  0.0000     2          
   485  Cl    c      5.8810 *     7.6453 *    -9.6057 *  0.0000     2          
   486  Li    c      5.8810 *     9.6057 *    -7.6453 *  0.0000     2          
   487  Li    c      0.0000       1.7643 *   -13.5263 *  0.0000     1          
   488  Li    c      0.0000      13.5263 *    -1.7643 *  0.0000     1          
   489  O     c      3.9207 *    -6.0770 *   -11.5660 *  0.0000     2          
   490  Li    c      7.8414 *     9.6057 *    -5.6850 *  0.0000     2          
   491  Li    c     -7.8414 *     5.6850 *    -9.6057 *  0.0000     2          
   492  Cl    c      1.9603 *    -0.1960 *   -13.5263 *  0.0000     2          
   493  Li    c      1.9603 *    13.5263 *     0.1960 *  0.0000     2          
   494  Cl    c      9.8017 *     7.6453 *    -5.6850 *  0.0000     2          
   495  Li    c      9.8017 *     5.6850 *    -7.6453 *  0.0000     2          
   496  Li    c      0.0000      -2.1564 *   -13.5263 *  0.0000     1          
   497  Li    c      0.0000      13.5263 *     2.1564 *  0.0000     1          
   498  O     c     11.7620 *     5.6850 *     4.1167 *  0.0000     2          
   499  Cl    c      9.8017 *    -0.1960 *    -9.6057 *  0.0000     2          
   500  Li    c      9.8017 *     9.6057 *     0.1960 *  0.0000     2          
   501  O     c     11.7620 *    -6.0770 *    -3.7246 *  0.0000     2          
   502  O     c     -3.9207 *     5.6850 *    11.9581 *  0.0000     2          
   503  Li    c     -7.8414 *    -6.0770 *    -9.6057 *  0.0000     2          
   504  Li    c      7.8414 *     9.6057 *     6.0770 *  0.0000     2          
   505  Li    c     -7.8414 *    -8.0374 *     8.0374 *  0.0000     2          
   506  Cl    c      5.8810 *    -8.0374 *    -9.6057 *  0.0000     2          
   507  Cl    c      9.8017 *     7.6453 *     6.0770 *  0.0000     2          
   508  Cl    c     13.7224 *    -0.1960 *    -1.7643 *  0.0000     2          
   509  Li    c      5.8810 *     9.6057 *     8.0374 *  0.0000     2          
   510  Li    c      9.8017 *    -6.0770 *    -7.6453 *  0.0000     2          
   511  Li    c     13.7224 *     1.7643 *     0.1960 *  0.0000     2          
   512  Li    c      0.0000       9.6057 *     9.9977 *  0.0000     1          
   513  Li    c      0.0000      -9.9977 *    -9.6057 *  0.0000     1          
   514  Li    c      0.0000       7.6453 *   -11.5660 *  0.0000     1          
   515  Li    c      0.0000      11.5660 *    -7.6453 *  0.0000     1          
   516  O     c     11.7620 *    -6.0770 *     4.1167 *  0.0000     2          
   517  Cl    c      5.8810 *     7.6453 *     9.9977 *  0.0000     2          
   518  Cl    c      9.8017 *    -8.0374 *    -5.6850 *  0.0000     2          
   519  Cl    c     13.7224 *    -0.1960 *     2.1564 *  0.0000     2          
   520  Li    c      5.8810 *    -9.9977 *    -7.6453 *  0.0000     2          
   521  Li    c      9.8017 *     5.6850 *     8.0374 *  0.0000     2          
   522  Li    c     13.7224 *    -2.1564 *     0.1960 *  0.0000     2          
   523  O     c      0.0000     -13.9184 *     0.1960 *  0.0000     1          
   524  Li    c     -7.8414 *     5.6850 *     9.9977 *  0.0000     2          
   525  Li    c     -7.8414 *    -9.9977 *    -5.6850 *  0.0000     2          
   526  Li    c     -7.8414 *    -0.1960 *   -11.5660 *  0.0000     2          
   527  Li    c     -7.8414 *    11.5660 *     0.1960 *  0.0000     2          
   528  O     c      3.9207 *    -6.0770 *    11.9581 *  0.0000     2          
   529  Cl    c      9.8017 *    -0.1960 *     9.9977 *  0.0000     2          
   530  Li    c      9.8017 *    -9.9977 *     0.1960 *  0.0000     2          
   531  O     c      0.0000      13.5263 *    -3.7246 *  0.0000     1          
   532  Li    c      0.0000       1.7643 *    13.9184 *  0.0000     1          
   533  Li    c      0.0000     -13.9184 *    -1.7643 *  0.0000     1          
   534  Li    c     11.7620 *    -0.1960 *    -7.6453 *  0.0000     2          
   535  Li    c     11.7620 *     7.6453 *     0.1960 *  0.0000     2          
   536  Cl    c      1.9603 *    -0.1960 *    13.9184 *  0.0000     2          
   537  Li    c      1.9603 *   -13.9184 *     0.1960 *  0.0000     2          
   538  Cl    c      9.8017 *    -8.0374 *     6.0770 *  0.0000     2          
   539  Li    c      9.8017 *    -6.0770 *     8.0374 *  0.0000     2          
   540  O     c      3.9207 *    13.5263 *     0.1960 *  0.0000     2          
   541  O     c     -7.8414 *     1.7643 *   -11.5660 *  0.0000     2          
   542  Li    c      0.0000      -2.1564 *    13.9184 *  0.0000     1          
   543  Li    c      0.0000     -13.9184 *     2.1564 *  0.0000     1          
   544  Li    c      0.0000      11.5660 *     8.0374 *  0.0000     1          
   545  Li    c      0.0000      -8.0374 *   -11.5660 *  0.0000     1          
   546  Li    c      7.8414 *    -6.0770 *     9.9977 *  0.0000     2          
   547  Li    c     -7.8414 *    -9.9977 *     6.0770 *  0.0000     2          
   548  Cl    c      5.8810 *    -8.0374 *     9.9977 *  0.0000     2          
   549  Li    c      5.8810 *    -9.9977 *     8.0374 *  0.0000     2          
   550  O     c      0.0000      13.5263 *     4.1167 *  0.0000     1          
   551  O     c     11.7620 *     1.7643 *    -7.6453 *  0.0000     2          
   552  O     c     -7.8414 *    -2.1564 *   -11.5660 *  0.0000     2          
   553  Li    c      3.9207 *     9.6057 *    -9.6057 *  0.0000     2          
   554  Li    c      0.0000      -9.9977 *     9.9977 *  0.0000     1          
   555  Li    c      1.9603 *    13.5263 *    -3.7246 *  0.0000     2          
   556  Cl    c      1.9603 *     3.7246 *   -13.5263 *  0.0000     2          
   557  Cl    c      5.8810 *    11.5660 *    -5.6850 *  0.0000     2          
   558  Li    c      5.8810 *     5.6850 *   -11.5660 *  0.0000     2          
   559  Li    c      3.9207 *    13.5263 *    -1.7643 *  0.0000     2          
   560  O     c     11.7620 *    -2.1564 *    -7.6453 *  0.0000     2          
   561  Li    c      3.9207 *     1.7643 *   -13.5263 *  0.0000     2          
   562  Li    c      0.0000       7.6453 *    11.9581 *  0.0000     1          
   563  Li    c      0.0000     -11.9581 *    -7.6453 *  0.0000     1          
   564  Cl    c      9.8017 *     3.7246 *    -9.6057 *  0.0000     2          
   565  Li    c      9.8017 *     9.6057 *    -3.7246 *  0.0000     2          
   566  Li    c      3.9207 *    13.5263 *     2.1564 *  0.0000     2          
   567  Li    c      3.9207 *    -2.1564 *   -13.5263 *  0.0000     2          
   568  Li    c     11.7620 *     5.6850 *    -5.6850 *  0.0000     2          
   569  Li    c     11.7620 *    -0.1960 *     8.0374 *  0.0000     2          
   570  Li    c     11.7620 *    -8.0374 *     0.1960 *  0.0000     2          
   571  Cl    c      1.9603 *    -4.1167 *   -13.5263 *  0.0000     2          
   572  Li    c      1.9603 *    13.5263 *     4.1167 *  0.0000     2          
   573  Li    c     -7.8414 *    -0.1960 *    11.9581 *  0.0000     2          
   574  Li    c     -7.8414 *   -11.9581 *     0.1960 *  0.0000     2          
   575  Cl    c      5.8810 *    11.5660 *     6.0770 *  0.0000     2          
   576  Cl    c     13.7224 *     3.7246 *    -1.7643 *  0.0000     2          
   577  Li    c      5.8810 *    -6.0770 *   -11.5660 *  0.0000     2          
   578  Li    c      9.8017 *     9.6057 *     4.1167 *  0.0000     2          
   579  Cl    c      9.8017 *    -4.1167 *    -9.6057 *  0.0000     2          
   580  Li    c     13.7224 *     1.7643 *    -3.7246 *  0.0000     2          
   581  O     c     11.7620 *     1.7643 *     8.0374 *  0.0000     2          
   582  Cl    c     13.7224 *     3.7246 *     2.1564 *  0.0000     2          
   583  Li    c     13.7224 *    -2.1564 *    -3.7246 *  0.0000     2          
   584  Li    c      3.9207 *    11.5660 *    -7.6453 *  0.0000     2          
   585  Li    c      3.9207 *     7.6453 *   -11.5660 *  0.0000     2          
   586  O     c      0.0000     -13.9184 *    -3.7246 *  0.0000     1          
   587  O     c      7.8414 *     1.7643 *    11.9581 *  0.0000     2          
   588  O     c     11.7620 *    -2.1564 *     8.0374 *  0.0000     2          
   589  Li    c      3.9207 *     9.6057 *     9.9977 *  0.0000     2          
   590  Li    c      3.9207 *    -9.9977 *    -9.6057 *  0.0000     2          
   591  Li    c     11.7620 *     5.6850 *     6.0770 *  0.0000     2          
   592  Li    c     11.7620 *    -6.0770 *    -5.6850 *  0.0000     2          
   593  Li    c      0.0000      -8.0374 *    11.9581 *  0.0000     1          
   594  Li    c      0.0000     -11.9581 *     8.0374 *  0.0000     1          
   595  Cl    c     13.7224 *    -4.1167 *    -1.7643 *  0.0000     2          
   596  Li    c     13.7224 *     1.7643 *     4.1167 *  0.0000     2          
   597  Li    c     -7.8414 *    11.5660 *    -3.7246 *  0.0000     2          
   598  O     c      3.9207 *   -13.9184 *     0.1960 *  0.0000     2          
   599  Li    c      7.8414 *     3.7246 *   -11.5660 *  0.0000     2          
   600  O     c      7.8414 *    -2.1564 *    11.9581 *  0.0000     2          
   601  Cl    c      5.8810 *   -11.9581 *    -5.6850 *  0.0000     2          
   602  Li    c      5.8810 *     5.6850 *    11.9581 *  0.0000     2          
   603  Cl    c     13.7224 *    -4.1167 *     2.1564 *  0.0000     2          
   604  Li    c     13.7224 *    -2.1564 *     4.1167 *  0.0000     2          
   605  Cl    c      9.8017 *     3.7246 *     9.9977 *  0.0000     2          
   606  Li    c      9.8017 *    -9.9977 *    -3.7246 *  0.0000     2          
   607  O     c      0.0000     -13.9184 *     4.1167 *  0.0000     1          
   608  Li    c     11.7620 *     3.7246 *    -7.6453 *  0.0000     2          
   609  Li    c     11.7620 *     7.6453 *    -3.7246 *  0.0000     2          
   610  Cl    c      1.9603 *     3.7246 *    13.9184 *  0.0000     2          
   611  Li    c      1.9603 *   -13.9184 *    -3.7246 *  0.0000     2          
   612  O     c      3.9207 *    13.5263 *    -3.7246 *  0.0000     2          
   613  O     c      7.8414 *     9.6057 *    -7.6453 *  0.0000     2          
   614  Li    c      3.9207 *   -13.9184 *    -1.7643 *  0.0000     2          
   615  Li    c     -7.8414 *    11.5660 *     4.1167 *  0.0000     2          
   616  Li    c     -7.8414 *    -4.1167 *   -11.5660 *  0.0000     2          
   617  Li    c      3.9207 *     1.7643 *    13.9184 *  0.0000     2          
   618  Li    c     11.7620 *    -6.0770 *     6.0770 *  0.0000     2          
   619  Cl    c      9.8017 *    -4.1167 *     9.9977 *  0.0000     2          
   620  Li    c      9.8017 *    -9.9977 *     4.1167 *  0.0000     2          
   621  Li    c      3.9207 *   -13.9184 *     2.1564 *  0.0000     2          
   622  Li    c     -3.9207 *    -2.1564 *    13.9184 *  0.0000     2          
   623  Li    c      3.9207 *    11.5660 *     8.0374 *  0.0000     2          
   624  Li    c      3.9207 *    -8.0374 *   -11.5660 *  0.0000     2          
   625  Li    c     11.7620 *    -4.1167 *    -7.6453 *  0.0000     2          
   626  Li    c     11.7620 *     7.6453 *     4.1167 *  0.0000     2          
   627  Cl    c      1.9603 *    -4.1167 *    13.9184 *  0.0000     2          
   628  Li    c      1.9603 *   -13.9184 *     4.1167 *  0.0000     2          
   629  Cl    c      5.8810 *   -11.9581 *     6.0770 *  0.0000     2          
   630  Li    c      5.8810 *    -6.0770 *    11.9581 *  0.0000     2          
   631  O     c      3.9207 *    13.5263 *     4.1167 *  0.0000     2          
   632  Li    c      0.0000       5.6850 *   -13.5263 *  0.0000     1          
   633  Li    c      0.0000      13.5263 *    -5.6850 *  0.0000     1          
   634  Li    c      3.9207 *    -9.9977 *     9.9977 *  0.0000     2          
   635  Li    c      3.9207 *     7.6453 *    11.9581 *  0.0000     2          
   636  Li    c      3.9207 *   -11.9581 *    -7.6453 *  0.0000     2          
   637  Li    c     11.7620 *    -8.0374 *    -3.7246 *  0.0000     2          
   638  Li    c     11.7620 *     3.7246 *     8.0374 *  0.0000     2          
   639  Cl    c      5.8810 *    -0.1960 *   -13.5263 *  0.0000     2          
   640  Li    c      5.8810 *    13.5263 *     0.1960 *  0.0000     2          
   641  O     c      7.8414 *     9.6057 *     8.0374 *  0.0000     2          
   642  Li    c      7.8414 *     3.7246 *    11.9581 *  0.0000     2          
   643  Li    c      7.8414 *   -11.9581 *    -3.7246 *  0.0000     2          
   644  Li    c      0.0000      13.5263 *     6.0770 *  0.0000     1          
   645  Li    c      0.0000      -6.0770 *   -13.5263 *  0.0000     1          
   646  O     c      7.8414 *    -9.9977 *    -7.6453 *  0.0000     2          
   647  Li    c     11.7620 *    -4.1167 *     8.0374 *  0.0000     2          
   648  Li    c     11.7620 *    -8.0374 *     4.1167 *  0.0000     2          
   649  Cl    c     13.7224 *    -0.1960 *    -5.6850 *  0.0000     2          
   650  Li    c     13.7224 *     5.6850 *     0.1960 *  0.0000     2          
   651  Li    c     -7.8414 *    -4.1167 *    11.9581 *  0.0000     2          
   652  Li    c     -7.8414 *   -11.9581 *     4.1167 *  0.0000     2          
   653  O     c      3.9207 *   -13.9184 *    -3.7246 *  0.0000     2          
   654  Li    c      3.9207 *   -11.9581 *     8.0374 *  0.0000     2          
   655  Li    c      3.9207 *    -8.0374 *    11.9581 *  0.0000     2          
   656  Cl    c     13.7224 *    -0.1960 *     6.0770 *  0.0000     2          
   657  Li    c     13.7224 *    -6.0770 *     0.1960 *  0.0000     2          
   658  O     c      0.0000       9.6057 *   -11.5660 *  0.0000     1          
   659  O     c      3.9207 *   -13.9184 *     4.1167 *  0.0000     2          
   660  Li    c      0.0000       5.6850 *    13.9184 *  0.0000     1          
   661  Li    c      0.0000     -13.9184 *    -5.6850 *  0.0000     1          
   662  O     c     -7.8414 *    -9.9977 *     8.0374 *  0.0000     2          
   663  O     c      7.8414 *     5.6850 *   -11.5660 *  0.0000     2          
   664  Cl    c      5.8810 *    -0.1960 *    13.9184 *  0.0000     2          
   665  Li    c      5.8810 *   -13.9184 *     0.1960 *  0.0000     2          
   666  O     c     11.7620 *     5.6850 *    -7.6453 *  0.0000     2          
   667  Cl    c      1.9603 *    11.5660 *    -9.6057 *  0.0000     2          
   668  Li    c      1.9603 *     9.6057 *   -11.5660 *  0.0000     2          
   669  Li    c      3.9207 *    13.5263 *    -5.6850 *  0.0000     2          
   670  Li    c     -3.9207 *     5.6850 *   -13.5263 *  0.0000     2          
   671  O     c     11.7620 *     9.6057 *     0.1960 *  0.0000     2          
   672  Li    c      0.0000      -6.0770 *    13.9184 *  0.0000     1          
   673  Li    c      0.0000     -13.9184 *     6.0770 *  0.0000     1          
   674  Cl    c      5.8810 *     3.7246 *   -13.5263 *  0.0000     2          
   675  Li    c      5.8810 *    13.5263 *    -3.7246 *  0.0000     2          
   676  O     c     -7.8414 *    -6.0770 *   -11.5660 *  0.0000     2          
   677  Cl    c      9.8017 *    11.5660 *    -1.7643 *  0.0000     2          
   678  Li    c      9.8017 *     1.7643 *   -11.5660 *  0.0000     2          
   679  Li    c     11.7620 *     1.7643 *    -9.6057 *  0.0000     2          
   680  O     c      0.0000      -9.9977 *   -11.5660 *  0.0000     1          
   681  Li    c     11.7620 *     9.6057 *    -1.7643 *  0.0000     2          
   682  O     c     11.7620 *    -6.0770 *    -7.6453 *  0.0000     2          
   683  Cl    c      5.8810 *    -4.1167 *   -13.5263 *  0.0000     2          
   684  Li    c      5.8810 *    13.5263 *     4.1167 *  0.0000     2          
   685  Cl    c      9.8017 *    11.5660 *     2.1564 *  0.0000     2          
   686  Cl    c     13.7224 *     3.7246 *    -5.6850 *  0.0000     2          
   687  Li    c      9.8017 *    -2.1564 *   -11.5660 *  0.0000     2          
   688  Li    c     13.7224 *     5.6850 *    -3.7246 *  0.0000     2          
   689  O     c      0.0000       9.6057 *    11.9581 *  0.0000     1          
   690  Li    c      3.9207 *    13.5263 *     6.0770 *  0.0000     2          
   691  Li    c      3.9207 *    -6.0770 *   -13.5263 *  0.0000     2          
   692  Li    c     11.7620 *    -2.1564 *    -9.6057 *  0.0000     2          
   693  O     c     11.7620 *     5.6850 *     8.0374 *  0.0000     2          
   694  Li    c     11.7620 *     9.6057 *     2.1564 *  0.0000     2          
   695  O     c     -7.8414 *     5.6850 *    11.9581 *  0.0000     2          
   696  Cl    c      1.9603 *    11.5660 *     9.9977 *  0.0000     2          
   697  Cl    c     13.7224 *    -4.1167 *    -5.6850 *  0.0000     2          
   698  Li    c      1.9603 *    -9.9977 *   -11.5660 *  0.0000     2          
   699  Li    c     13.7224 *     5.6850 *     4.1167 *  0.0000     2          
[...]
   2028 y         -3.920675     -3.921897    -0.001222    Cartesian    0.03
   2028 z         -3.920675     -3.921151    -0.000476    Cartesian    0.01
   2029 x          7.841351      7.842871     0.001520    Cartesian    0.02
   2029 y         11.762026     11.764541     0.002514    Cartesian    0.02
   2029 z         15.682702     15.686430     0.003728    Cartesian    0.02
   2030 x         19.603377     19.607668     0.004291    Cartesian    0.02
   2030 y          3.920675      3.920883     0.000208    Cartesian    0.01
   2030 z          7.841351      7.843020     0.001669    Cartesian    0.02
   2031 x        -13.722364    -13.723228    -0.000864    Cartesian    0.01
   2031 y         -9.801689     -9.802559    -0.000870    Cartesian    0.01
   2031 z          5.881013      5.881228     0.000214    Cartesian    0.00
   2032 x          1.960338      1.960338     0.000000    Cartesian    0.00
   2032 y         17.643040     17.643765     0.000725    Cartesian    0.00
   2032 z         -5.881013     -5.880955     0.000059    Cartesian   -0.00
   2033 x         15.682702     15.685124     0.002422    Cartesian    0.02
   2033 y        -11.762026    -11.765047    -0.003020    Cartesian    0.03
   2033 z         -3.920675     -3.921164    -0.000489    Cartesian    0.01
   2034 x         13.722364     13.724624     0.002260    Cartesian    0.02
   2034 y          9.801689      9.803367     0.001678    Cartesian    0.02
   2034 z         -9.801689     -9.803508    -0.001819    Cartesian    0.02
   2035 x         19.603377     19.607355     0.003978    Cartesian    0.02
   2035 y         -3.920675     -3.921794    -0.001119    Cartesian    0.03
   2035 z          7.841351      7.842870     0.001519    Cartesian    0.02
   2036 x          9.801689      9.802676     0.000988    Cartesian    0.01
   2036 y         17.643040     17.644715     0.001675    Cartesian    0.01
   2036 z          1.960338      1.960619     0.000281    Cartesian    0.01
   2037 x          7.841351      7.842757     0.001406    Cartesian    0.02
   2037 y          3.920675      3.921058     0.000383    Cartesian    0.01
   2037 z         19.603377     19.608210     0.004832    Cartesian    0.02
   2038 x          7.841351      7.842927     0.001576    Cartesian    0.02
   2038 y         15.682702     15.686452     0.003751    Cartesian    0.02
   2038 z         -7.841351     -7.843157    -0.001806    Cartesian    0.02
   2039 x          3.920675      3.921202     0.000526    Cartesian    0.01
   2039 y          7.841351      7.843369     0.002018    Cartesian    0.03
   2039 z        -15.682702    -15.688036    -0.005334    Cartesian    0.03
   2040 x          5.881013      5.881158     0.000144    Cartesian    0.00
   2040 y         -9.801689     -9.802631    -0.000942    Cartesian    0.01
   2040 z         17.643040     17.644247     0.001207    Cartesian    0.01
   2041 x         11.762026     11.764657     0.002631    Cartesian    0.02
   2041 y         15.682702     15.686192     0.003490    Cartesian    0.02
   2041 z         -3.920675     -3.921436    -0.000760    Cartesian    0.02
   2042 x         15.682702     15.684897     0.002195    Cartesian    0.01
   2042 y        -11.762026    -11.764849    -0.002822    Cartesian    0.02
   2042 z          7.841351      7.842746     0.001395    Cartesian    0.02
   2043 x          1.960338      1.960338     0.000000    Cartesian    0.00
   2043 y         17.643040     17.644727     0.001687    Cartesian    0.01
   2043 z          9.801689      9.802862     0.001173    Cartesian    0.01
   2044 x          7.841351      7.842583     0.001232    Cartesian    0.02
   2044 y         -3.920675     -3.922027    -0.001351    Cartesian    0.03
   2044 z         19.603377     19.607977     0.004600    Cartesian    0.02
   2045 x          7.841351      7.842653     0.001302    Cartesian    0.02
   2045 y        -11.762026    -11.765016    -0.002989    Cartesian    0.03
   2045 z         15.682702     15.685553     0.002851    Cartesian    0.02
   2046 x         15.682702     15.685991     0.003289    Cartesian    0.02
   2046 y          0.000000     -0.000720    -0.000720    Cartesian    0.00
   2046 z        -11.762026    -11.764372    -0.002346    Cartesian    0.02
   2047 x         13.722364     13.724253     0.001888    Cartesian    0.01
   2047 y         -9.801689     -9.803634    -0.001946    Cartesian    0.02
   2047 z         -9.801689     -9.803163    -0.001474    Cartesian    0.02
   2048 x         11.762026     11.764737     0.002710    Cartesian    0.02
   2048 y         15.682702     15.686380     0.003678    Cartesian    0.02
   2048 z          7.841351      7.843452     0.002101    Cartesian    0.03
   2049 x          3.920675      3.921310     0.000634    Cartesian    0.02
   2049 y         -7.841351     -7.844498    -0.003147    Cartesian    0.04
   2049 z        -15.682702    -15.687711    -0.005009    Cartesian    0.03
   2050 x         19.603377     19.608568     0.005190    Cartesian    0.03
   2050 y          7.841351      7.842760     0.001409    Cartesian    0.02
   2050 z          0.000000     -0.000063    -0.000063    Cartesian *******
   2051 x         13.722364     13.724476     0.002112    Cartesian    0.02
   2051 y          9.801689      9.803244     0.001555    Cartesian    0.02
   2051 z         13.722364     13.724521     0.002157    Cartesian    0.02
   2052 x          7.841351      7.842899     0.001548    Cartesian    0.02
   2052 y         15.682702     15.686335     0.003633    Cartesian    0.02
   2052 z         11.762026     11.765162     0.003135    Cartesian    0.03
   2053 x         19.603377     19.608451     0.005074    Cartesian    0.03
   2053 y          7.841351      7.842780     0.001429    Cartesian    0.02
   2053 z          3.920675      3.921733     0.001058    Cartesian    0.03
   2054 x          1.960338      1.960338     0.000000    Cartesian    0.00
   2054 y        -17.643040    -17.644805    -0.001765    Cartesian    0.01
   2054 z         -5.881013     -5.881667    -0.000653    Cartesian    0.01
   2055 x          9.801689      9.803483     0.001795    Cartesian    0.02
   2055 y         13.722364     13.724695     0.002331    Cartesian    0.02
   2055 z         -9.801689     -9.803584    -0.001896    Cartesian    0.02
   2056 x          5.881013      5.881292     0.000279    Cartesian    0.00
   2056 y         17.643040     17.644556     0.001516    Cartesian    0.01
   2056 z         -5.881013     -5.881775    -0.000762    Cartesian    0.01
   2057 x          7.841351      7.842696     0.001345    Cartesian    0.02
   2057 y        -15.682702    -15.687019    -0.004317    Cartesian    0.03
   2057 z         -7.841351     -7.843019    -0.001668    Cartesian    0.02
   2058 x         19.603377     19.608023     0.004645    Cartesian    0.02
   2058 y         -7.841351     -7.843604    -0.002253    Cartesian    0.03
   2058 z          0.000000     -0.000156    -0.000156    Cartesian *******
   2059 x          1.960338      1.960338     0.000000    Cartesian    0.00
   2059 y          1.960338      1.960137    -0.000200    Cartesian   -0.01
   2059 z        -17.643040    -17.644644    -0.001604    Cartesian    0.01
   2060 x          9.801689      9.802434     0.000745    Cartesian    0.01
   2060 y        -17.643040    -17.644731    -0.001692    Cartesian    0.01
   2060 z          1.960338      1.960492     0.000155    Cartesian    0.01
   2061 x         13.722364     13.724539     0.002175    Cartesian    0.02
   2061 y         13.722364     13.724509     0.002145    Cartesian    0.02
   2061 z         -5.881013     -5.882325    -0.001312    Cartesian    0.02
   2062 x          9.801689      9.802674     0.000985    Cartesian    0.01
   2062 y         17.643040     17.644604     0.001564    Cartesian    0.01
   2062 z         -1.960338     -1.960398    -0.000060    Cartesian    0.00
   2063 x          3.920675      3.921380     0.000705    Cartesian    0.02
   2063 y          7.841351      7.842980     0.001629    Cartesian    0.02
   2063 z         19.603377     19.608937     0.005559    Cartesian    0.03
   2064 x         11.762026     11.764153     0.002126    Cartesian    0.02
   2064 y        -15.682702    -15.686851    -0.004149    Cartesian    0.03
   2064 z         -3.920675     -3.921505    -0.000830    Cartesian    0.02
   2065 x         19.603377     19.607938     0.004560    Cartesian    0.02
   2065 y         -7.841351     -7.843593    -0.002242    Cartesian    0.03
   2065 z          3.920675      3.921691     0.001016    Cartesian    0.03
   2066 x         13.722364     13.723624     0.001259    Cartesian    0.01
   2066 y          1.960338      1.960208    -0.000129    Cartesian   -0.01
   2066 z        -13.722364    -13.724103    -0.001739    Cartesian    0.01
   2067 x          1.960338      1.960338     0.000000    Cartesian    0.00
   2067 y         -1.960338     -1.960643    -0.000305    Cartesian    0.02
   2067 z        -17.643040    -17.644615    -0.001575    Cartesian    0.01
   2068 x         13.722364     13.724082     0.001718    Cartesian    0.01
   2068 y         -9.801689     -9.803411    -0.001723    Cartesian    0.02
   2068 z         13.722364     13.724126     0.001762    Cartesian    0.01
   2069 x         15.682702     15.685535     0.002833    Cartesian    0.02
   2069 y          0.000000     -0.000588    -0.000588    Cartesian    0.00
   2069 z         15.682702     15.686000     0.003298    Cartesian    0.02
   2070 x         13.722364     13.723815     0.001450    Cartesian    0.01
   2070 y         -1.960338     -1.960653    -0.000315    Cartesian    0.02
   2070 z        -13.722364    -13.724043    -0.001679    Cartesian    0.01
   2071 x        -13.722364    -13.723866    -0.001502    Cartesian    0.01
   2071 y          1.960338      1.960256    -0.000082    Cartesian   -0.00
   2071 z         -9.801689     -9.802721    -0.001032    Cartesian    0.01
   2072 x          1.960338      1.960338     0.000000    Cartesian    0.00
   2072 y        -17.643040    -17.644705    -0.001665    Cartesian    0.01
   2072 z          9.801689      9.802533     0.000844    Cartesian    0.01
   2073 x          9.801689      9.802961     0.001272    Cartesian    0.01
   2073 y         17.643040     17.645395     0.002355    Cartesian    0.01
   2073 z          5.881013      5.882129     0.001116    Cartesian    0.02
   2074 x          3.920675      3.921239     0.000564    Cartesian    0.01
   2074 y         19.603377     19.608864     0.005486    Cartesian    0.03
   2074 z          0.000000      0.000036     0.000036    Cartesian *******
   2075 x        -13.722364    -13.723920    -0.001556    Cartesian    0.01
   2075 y         -1.960338     -1.960573    -0.000235    Cartesian    0.01
   2075 z         -9.801689     -9.802598    -0.000909    Cartesian    0.01
   2076 x          5.881013      5.881902     0.000888    Cartesian    0.02
   2076 y         17.643040     17.645417     0.002378    Cartesian    0.01
   2076 z          9.801689      9.803127     0.001438    Cartesian    0.01
   2077 x          3.920675      3.921241     0.000566    Cartesian    0.01
   2077 y         19.603377     19.608626     0.005248    Cartesian    0.03
   2077 z          3.920675      3.921794     0.001119    Cartesian    0.03
   2078 x         11.762026     11.764098     0.002071    Cartesian    0.02
   2078 y        -15.682702    -15.686533    -0.003831    Cartesian    0.02
   2078 z          7.841351      7.842985     0.001634    Cartesian    0.02
   2079 x         15.682702     15.686675     0.003973    Cartesian    0.03
   2079 y          3.920675      3.921295     0.000619    Cartesian    0.02
   2079 z        -11.762026    -11.765086    -0.003059    Cartesian    0.03
   2080 x         13.722364     13.724443     0.002079    Cartesian    0.02
   2080 y         13.722364     13.724508     0.002144    Cartesian    0.02
   2080 z          9.801689      9.803448     0.001759    Cartesian    0.02
   2081 x          3.920675      3.921332     0.000656    Cartesian    0.02
   2081 y         -7.841351     -7.843697    -0.002346    Cartesian    0.03
   2081 z         19.603377     19.608426     0.005048    Cartesian    0.03
   2082 x          7.841351      7.842643     0.001292    Cartesian    0.02
   2082 y        -15.682702    -15.686510    -0.003808    Cartesian    0.02
   2082 z         11.762026     11.764455     0.002429    Cartesian    0.02
   2083 x          9.801689      9.803361     0.001672    Cartesian    0.02
   2083 y         13.722364     13.724564     0.002200    Cartesian    0.02
   2083 z         13.722364     13.724511     0.002146    Cartesian    0.02
   2084 x         21.563715     21.564272     0.000557    Cartesian    0.00
   2084 y          1.960338      1.960061    -0.000276    Cartesian   -0.01
   2084 z          1.960338      1.960330    -0.000008    Cartesian   -0.00
   2085 x         15.682702     15.686519     0.003818    Cartesian    0.02
   2085 y         -3.920675     -3.922315    -0.001640    Cartesian    0.04
   2085 z        -11.762026    -11.764998    -0.002971    Cartesian    0.03
   2086 x         -5.881013     -5.882497    -0.001484    Cartesian    0.03
   2086 y        -13.722364    -13.724514    -0.002150    Cartesian    0.02
   2086 z         -9.801689     -9.803239    -0.001551    Cartesian    0.02
   2087 x         21.563715     21.565074     0.001359    Cartesian    0.01
   2087 y         -1.960338     -1.960949    -0.000611    Cartesian    0.03
   2087 z          1.960338      1.960416     0.000078    Cartesian    0.00
   2088 x         13.722364     13.724079     0.001715    Cartesian    0.01
   2088 y        -13.722364    -13.724476    -0.002112    Cartesian    0.02
   2088 z         -5.881013     -5.882227    -0.001213    Cartesian    0.02
   2089 x        -13.722364    -13.724568    -0.002203    Cartesian    0.02
   2089 y          1.960338      1.960715     0.000378    Cartesian    0.02
   2089 z         13.722364     13.723888     0.001524    Cartesian    0.01
   2090 x          5.881013      5.881817     0.000804    Cartesian    0.01
   2090 y        -17.643040    -17.645438    -0.002398    Cartesian    0.01
   2090 z         -5.881013     -5.881896    -0.000883    Cartesian    0.02
   2091 x         13.722364     13.724027     0.001663    Cartesian    0.01
   2091 y          1.960338      1.960705     0.000368    Cartesian    0.02
   2091 z         17.643040     17.645428     0.002388    Cartesian    0.01
   2092 x          9.801689      9.803719     0.002031    Cartesian    0.02
   2092 y          9.801689      9.803742     0.002054    Cartesian    0.02
   2092 z        -13.722364    -13.725055    -0.002691    Cartesian    0.02
   2093 x          9.801689      9.802712     0.001023    Cartesian    0.01
   2093 y        -17.643040    -17.645415    -0.002375    Cartesian    0.01
   2093 z         -1.960338     -1.960966    -0.000628    Cartesian    0.03
   2094 x         17.643040     17.645156     0.002116    Cartesian    0.01
   2094 y         -1.960338     -1.961082    -0.000744    Cartesian    0.04
   2094 z         13.722364     13.723884     0.001520    Cartesian    0.01
   2095 x          1.960338      1.960338     0.000000    Cartesian    0.00
   2095 y          1.960338      1.960690     0.000352    Cartesian    0.02
   2095 z         21.563715     21.565442     0.001727    Cartesian    0.01
   2096 x          5.881013      5.882040     0.001027    Cartesian    0.02
   2096 y          1.960338      1.960695     0.000358    Cartesian    0.02
   2096 z        -17.643040    -17.646062    -0.003022    Cartesian    0.02
   2097 x         13.722364     13.723895     0.001531    Cartesian    0.01
   2097 y         -1.960338     -1.961142    -0.000804    Cartesian    0.04
   2097 z         17.643040     17.645343     0.002303    Cartesian    0.01
   2098 x         15.682702     15.686844     0.004142    Cartesian    0.03
   2098 y          3.920675      3.921388     0.000713    Cartesian    0.02
   2098 z         15.682702     15.687150     0.004448    Cartesian    0.03
   2099 x          1.960338      1.960338     0.000000    Cartesian    0.00
   2099 y         -1.960338     -1.961144    -0.000807    Cartesian    0.04
   2099 z         21.563715     21.566997     0.003281    Cartesian    0.02
   2100 x          5.881013      5.882025     0.001012    Cartesian    0.02
   2100 y         -1.960338     -1.961336    -0.000998    Cartesian    0.05
   2100 z        -17.643040    -17.646000    -0.002961    Cartesian    0.02
   2101 x        -13.722364    -13.725075    -0.002711    Cartesian    0.02
   2101 y          9.801689      9.803387     0.001698    Cartesian    0.02
   2101 z         -5.881013     -5.882531    -0.001517    Cartesian    0.03
   2102 x          9.801689      9.802694     0.001005    Cartesian    0.01
   2102 y        -17.643040    -17.645329    -0.002289    Cartesian    0.01
   2102 z          5.881013      5.881935     0.000922    Cartesian    0.02
   2103 x         13.722364     13.723980     0.001615    Cartesian    0.01
   2103 y        -13.722364    -13.724353    -0.001989    Cartesian    0.01
   2103 z          9.801689      9.803158     0.001469    Cartesian    0.01
   2104 x          7.841351      7.843730     0.002379    Cartesian    0.03
   2104 y          7.841351      7.843685     0.002334    Cartesian    0.03
   2104 z        -15.682702    -15.688906    -0.006204    Cartesian    0.04
   2105 x          5.881013      5.881780     0.000766    Cartesian    0.01
   2105 y        -17.643040    -17.645331    -0.002291    Cartesian    0.01
   2105 z          9.801689      9.802850     0.001161    Cartesian    0.01
   2106 x          9.801689      9.803070     0.001381    Cartesian    0.01
   2106 y        -13.722364    -13.724431    -0.002067    Cartesian    0.02
   2106 z         13.722364     13.724139     0.001775    Cartesian    0.01
   2107 x          3.920675      3.921354     0.000678    Cartesian    0.02
   2107 y        -19.603377    -19.609863    -0.006486    Cartesian    0.03
   2107 z          0.000000     -0.000120    -0.000120    Cartesian *******
   2108 x         15.682702     15.686579     0.003877    Cartesian    0.02
   2108 y         -3.920675     -3.922316    -0.001641    Cartesian    0.04
   2108 z         15.682702     15.686798     0.004096    Cartesian    0.03
--------------------------------------------------------------------------------


  Time to end of optimisation  =      353.9969 seconds


  Peak dynamic memory used =    1747.69 MB 


  Timing analysis for GULP :

--------------------------------------------------------------------------------
  Task / Subroutine                                          Time (Seconds)
--------------------------------------------------------------------------------
  Calculation of reciprocal space energy and derivatives          0.0002
  Calculation of reciprocal space energy using symmetry           0.0003
  Calculation of real space energy and derivatives                0.0015
  Calculation of real space energy using symmetry                 0.0031
  Calculation for region 1 energy and derivatives (2-b)         144.1490
  Calculation for region 2a energy                               46.8537
  Calculation for region 2b energy                                0.0026
  Calculation and manipulation of Hessian matrix                  1.5249
  Calculation of matrix inversion                               159.2516
  Symmetry generation of equivalent positions                     0.0016
--------------------------------------------------------------------------------
  Total CPU time                                                353.9970
--------------------------------------------------------------------------------


  Dump file written as Li3OCl.grs


  Job Finished at 12:02.40 23rd October    2020                               

