********************************************************************************
*                       GENERAL UTILITY LATTICE PROGRAM                        *
*                                 Julian Gale                                  *
*                       Curtin Institute for Computation                       *
*                    School of Molecular and Life Sciences                     *
*                    Curtin University, Western Australia                      *
********************************************************************************
* Version = 5.2.0 * Last modified =  10th September 2020                       *
********************************************************************************
*  optimise     - perform optimisation run                                     *
*  conp         - constant pressure calculation                                *
*  property     - calculate properties for final geometry                      *
*  defect       - perform defect calculation after bulk run                    *
*  compare      - compare initial and final structures                         *
********************************************************************************

  Job Started  at 15:21.00 23rd October    2020                               

  Number of CPUs =     1


  Total number of configurations input =      1

********************************************************************************
*  Input for Configuration =   1                                               *
********************************************************************************

  Formula = ClOLi3                                                      

  Number of irreducible atoms/shells =       5


  Total number atoms/shells =       7

  Dimensionality = 3               :  Bulk   


  Symmetry :

  Crystal family                   :  Cubic       
  Crystal class  (Groth - 1921)    :  Cubic Hexakisoctahedral              

  Space group (centrosymmetric)    :  P M 3 M         

  Patterson group                  :  P m -3 m 

  Cartesian lattice vectors (Angstroms) :

        3.918873    0.000000    0.000000
        0.000000    3.918873    0.000000
        0.000000    0.000000    3.918873

  Cell parameters (Angstroms/Degrees):

  a =       3.9189    alpha =  90.0000
  b =       3.9189    beta  =  90.0000
  c =       3.9189    gamma =  90.0000

  Initial cell volume =          60.184349 Angs**3

  Temperature of configuration =   0.00     K 

  Pressure of configuration =         0.000 GPa 

  Fractional coordinates of asymmetric unit :

--------------------------------------------------------------------------------
   No.  Atomic       x           y          z         Charge      Occupancy
        Label      (Frac)      (Frac)     (Frac)        (e)         (Frac)  
--------------------------------------------------------------------------------
      1 Cl    c    0.000000    0.000000    0.000000     1.48500    1.000000    
      2 O     c    0.500000    0.500000    0.500000     0.18300    1.000000    
      3 Li    c    0.500000    0.500000    0.000000     1.00000    1.000000    
      4 Cl    s    0.000000    0.000000    0.000000    -2.48500    1.000000    
      5 O     s    0.500000    0.500000    0.500000    -2.18300    1.000000    
--------------------------------------------------------------------------------


  Constraints : 

--------------------------------------------------------------------------------
  Constraint no.      Unconstrained     Constrained    Coefficient    Offset
                         Variable         Variable
--------------------------------------------------------------------------------
           1              Strain 1        Strain 2       1.00000      0.0000
           2              Strain 1        Strain 3       1.00000      0.0000
--------------------------------------------------------------------------------


********************************************************************************
*  General input information                                                   *
********************************************************************************

  Species output for all configurations : 

--------------------------------------------------------------------------------
  Species    Type    Atomic    Atomic    Charge       Radii (Angs)     Library
                     Number     Mass       (e)     Cova   Ionic  VDW   Symbol
--------------------------------------------------------------------------------
    Li       Core        3       6.94   1.000000   0.680  0.000  1.800          
    O        Core        8      16.00   0.183000   0.730  0.000  1.360          
    O        Shell       8       0.00  -2.183000   0.730  0.000  1.360          
    Cl       Core       17      35.45   1.485000   0.990  0.000  1.650          
    Cl       Shell      17       0.00  -2.485000   0.990  0.000  1.650          
--------------------------------------------------------------------------------


  Lattice summation method               =    Ewald          (3-D)
                                         =    Parry          (2-D)
                                         =    Saunders et al (1-D)
  Accuracy factor for lattice sums       =   12.000


  Analytic derivatives to be used

  Time limit = Infinity

  Maximum range for interatomic potentials =    100000.000000 Angstroms

  General interatomic potentials :

--------------------------------------------------------------------------------
Atom  Types   Potential      Parameter       Value         Units   Cutoffs(Ang)
  1     2                                                            Min /  Max 
--------------------------------------------------------------------------------
O    c O    s Spring (c-s)  Spring k 2       593.72000    eV*Ang^-2 0.000  0.800
                            Spring k 4       0.0000000    eV*Ang^-4 
--------------------------------------------------------------------------------
Cl   c Cl   s Spring (c-s)  Spring k 2       29.380000    eV*Ang^-2 0.000  0.800
                            Spring k 4       0.0000000    eV*Ang^-4 
--------------------------------------------------------------------------------
Li   c Li   c Buckingham    Buckingham A     360.53000    eV        0.000 12.000
                            Buckingham rho  0.16100000    Ang       
                            Buckingham C     0.0000000    eV*Ang^6  
--------------------------------------------------------------------------------
Li   c O    s Buckingham    Buckingham A     292.30000    eV        0.000 12.000
                            Buckingham rho  0.34720000    Ang       
                            Buckingham C     0.0000000    eV*Ang^6  
--------------------------------------------------------------------------------
Li   c Cl   s Buckingham    Buckingham A     421.04000    eV        0.000 12.000
                            Buckingham rho  0.33400000    Ang       
                            Buckingham C     0.0000000    eV*Ang^6  
--------------------------------------------------------------------------------
O    s O    s Buckingham    Buckingham A     22764.300    eV        0.000 12.000
                            Buckingham rho  0.14900000    Ang       
                            Buckingham C     13.190000    eV*Ang^6  
--------------------------------------------------------------------------------
O    s Cl   s Buckingham    Buckingham A     8286.9100    eV        0.000 12.000
                            Buckingham rho  0.25900000    Ang       
                            Buckingham C     62.200000    eV*Ang^6  
--------------------------------------------------------------------------------
Cl   s Cl   s Buckingham    Buckingham A     1227.2000    eV        0.000 12.000
                            Buckingham rho  0.32100000    Ang       
                            Buckingham C     14.530000    eV*Ang^6  
--------------------------------------------------------------------------------

********************************************************************************
*  Output for configuration   1                                                *
********************************************************************************


  Components of energy : 

--------------------------------------------------------------------------------
  Interatomic potentials     =           7.26836263 eV    
  Monopole - monopole (real) =         -11.53475722 eV    
  Monopole - monopole (recip)=         -33.94580548 eV    
  Monopole - monopole (total)=         -45.48056271 eV    
--------------------------------------------------------------------------------
  Total lattice energy       =         -38.21220008 eV    
--------------------------------------------------------------------------------
  Total lattice energy       =           -3686.8932 kJ/(mole unit cells)
--------------------------------------------------------------------------------


  Number of variables =        1

  Maximum number of calculations  =          1000
  Maximum Hessian update interval =            10
  Maximum step size               =   1.000000000
  Maximum parameter tolerance     =   0.000010000
  Maximum function  tolerance     =   0.000010000
  Maximum gradient  tolerance     =   0.001000000
  Maximum gradient  component     =   0.010000000

  Symmetry constrained optimisation

  Symmetry used for second derivatives

  Cell parameters to be optimised using strains

  Newton-Raphson optimiser to be used

  BFGS hessian update to be used

  Lower half triangular hessian to be used

  Start of bulk optimisation :

  Cycle:      0 Energy:       -38.212200  Gnorm:      0.095699  CPU:    0.007
  ** Hessian calculated **
  Cycle:      1 Energy:       -38.212222  Gnorm:      0.000105  CPU:    0.009


  **** Optimisation achieved ****


  Final energy =     -38.21222207 eV
  Final Gnorm  =       0.00000016

  Components of energy : 

--------------------------------------------------------------------------------
  Interatomic potentials     =           7.24743141 eV    
  Monopole - monopole (real) =         -11.52945423 eV    
  Monopole - monopole (recip)=         -33.93019924 eV    
  Monopole - monopole (total)=         -45.45965348 eV    
--------------------------------------------------------------------------------
  Total lattice energy       =         -38.21222207 eV    
--------------------------------------------------------------------------------
  Total lattice energy       =           -3686.8953 kJ/(mole unit cells)
--------------------------------------------------------------------------------

  Final asymmetric unit coordinates :

--------------------------------------------------------------------------------
   No.  Atomic        x           y           z         Radius
        Label       (Frac)      (Frac)      (Frac)       (Angs) 
--------------------------------------------------------------------------------
     1  Cl    c     0.000000    0.000000    0.000000    0.000000
     2  O     c     0.500000    0.500000    0.500000    0.000000
     3  Li    c     0.500000    0.500000    0.000000    0.000000
     4  Cl    s     0.000000    0.000000    0.000000    0.000000
     5  O     s     0.500000    0.500000    0.500000    0.000000
--------------------------------------------------------------------------------

  Final Cartesian lattice vectors (Angstroms) :

        3.920675    0.000000    0.000000
        0.000000    3.920675    0.000000
        0.000000    0.000000    3.920675


  Final cell parameters and derivatives :

--------------------------------------------------------------------------------
       a            3.920675 Angstrom     dE/de1(xx)    -0.000000 eV/strain
       b            3.920675 Angstrom     dE/de2(yy)     0.000000 eV/strain
       c            3.920675 Angstrom     dE/de3(zz)     0.000000 eV/strain
       alpha       90.000000 Degrees      dE/de4(yz)     0.000000 eV/strain
       beta        90.000000 Degrees      dE/de5(xz)     0.000000 eV/strain
       gamma       90.000000 Degrees      dE/de6(xy)     0.000000 eV/strain
--------------------------------------------------------------------------------

  Primitive cell volume =            60.267433 Angs**3

  Density of cell =      1.991276 g/cm**3

  Non-primitive cell volume =            60.267433 Angs**3


  Final internal derivatives :

--------------------------------------------------------------------------------
   No.  Atomic          a             b             c           Radius
        Label          (eV)          (eV)          (eV)        (eV/Angs)
--------------------------------------------------------------------------------
      1 Cl    c       0.000000      0.000000      0.000000      0.000000
      2 O     c       0.000000      0.000000      0.000000      0.000000
      3 Li    c       0.000000      0.000000      0.000000      0.000000
      4 Cl    s       0.000000      0.000000      0.000000      0.000000
      5 O     s       0.000000      0.000000      0.000000      0.000000
--------------------------------------------------------------------------------
  Maximum abs         0.000000      0.000000      0.000000      0.000000
--------------------------------------------------------------------------------

  Comparison of initial and final structures : 

--------------------------------------------------------------------------------
  Parameter   Initial value   Final value   Difference    Units      Percent
--------------------------------------------------------------------------------
    Volume        60.184349     60.267433     0.083084    Angs**3      0.14
    a              3.918873      3.920675     0.001802    Angstroms    0.05
    b              3.918873      3.920675     0.001802    Angstroms    0.05
    c              3.918873      3.920675     0.001802    Angstroms    0.05
    alpha         90.000000     90.000000     0.000000    Degrees      0.00
    beta          90.000000     90.000000     0.000000    Degrees      0.00
    gamma         90.000000     90.000000     0.000000    Degrees      0.00
      1 x          0.000000      0.000000     0.000000    Fractional   0.00
      1 y          0.000000      0.000000     0.000000    Fractional   0.00
      1 z          0.000000      0.000000     0.000000    Fractional   0.00
      2 x          0.500000      0.500000     0.000000    Fractional   0.00
      2 y          0.500000      0.500000     0.000000    Fractional   0.00
      2 z          0.500000      0.500000     0.000000    Fractional   0.00
      3 x          0.500000      0.500000     0.000000    Fractional   0.00
      3 y          0.500000      0.500000     0.000000    Fractional   0.00
      3 z          0.000000      0.000000     0.000000    Fractional   0.00
      4 x          0.000000      0.000000     0.000000    Fractional   0.00
      4 y          0.000000      0.000000     0.000000    Fractional   0.00
      4 z          0.000000      0.000000     0.000000    Fractional   0.00
      5 x          0.500000      0.500000     0.000000    Fractional   0.00
      5 y          0.500000      0.500000     0.000000    Fractional   0.00
      5 z          0.500000      0.500000     0.000000    Fractional   0.00
--------------------------------------------------------------------------------


  Born effective charge tensors : 

-------------------------------------------------------------------------------
  Atom             x           y             z
-------------------------------------------------------------------------------
    1 Cl    x      -0.9489     -0.0000     -0.0000
            y      -0.0000     -0.9489     -0.0000
            z      -0.0000     -0.0000     -0.9489
-------------------------------------------------------------------------------
    2 O     x      -2.4688      0.0000      0.0000
            y       0.0000     -2.4688      0.0000
            z       0.0000      0.0000     -2.4688
-------------------------------------------------------------------------------
    3 Li    x       1.3129      0.0000     -0.0000
            y       0.0000      1.3129      0.0000
            z      -0.0000      0.0000      0.7919
-------------------------------------------------------------------------------




  Elastic Constant Matrix: (Units=GPa)

-------------------------------------------------------------------------------
  Indices      1         2         3         4         5         6    
-------------------------------------------------------------------------------
       1     94.3368   44.9178   44.9178    0.0000   -0.0000    0.0000
       2     44.9178   94.3368   44.9178   -0.0000    0.0000   -0.0000
       3     44.9178   44.9178   94.3368    0.0000   -0.0000    0.0000
       4      0.0000   -0.0000    0.0000   44.9178   -0.0000    0.0000
       5     -0.0000    0.0000   -0.0000   -0.0000   44.9178    0.0000
       6      0.0000   -0.0000    0.0000    0.0000    0.0000   44.9178
-------------------------------------------------------------------------------


  Elastic Compliance Matrix: (Units=1/GPa)

-------------------------------------------------------------------------------
  Indices      1         2         3         4         5         6    
-------------------------------------------------------------------------------
       1    0.015300 -0.004935 -0.004935 -0.000000  0.000000 -0.000000
       2   -0.004935  0.015300 -0.004935  0.000000 -0.000000  0.000000
       3   -0.004935 -0.004935  0.015300 -0.000000  0.000000 -0.000000
       4   -0.000000  0.000000 -0.000000  0.022263  0.000000 -0.000000
       5    0.000000 -0.000000  0.000000  0.000000  0.022263 -0.000000
       6   -0.000000  0.000000 -0.000000 -0.000000 -0.000000  0.022263
-------------------------------------------------------------------------------

  Mechanical properties :

-------------------------------------------------------------------------------
  Convention :                    Reuss         Voigt         Hill
-------------------------------------------------------------------------------
  Bulk  Modulus (GPa)     =      61.39080      61.39080      61.39080
  Shear Modulus (GPa)     =      33.84570      36.83448      35.34009
-------------------------------------------------------------------------------
  Velocity S-wave (km/s)  =       4.12274       4.30092       4.21277
  Velocity P-wave (km/s)  =       7.31386       7.44942       7.38195
-------------------------------------------------------------------------------
  Compressibility (1/GPa) =    0.01628909
-------------------------------------------------------------------------------
  Stress axis :                     x             y             z
-------------------------------------------------------------------------------
  Youngs Moduli (GPa)     =      65.35947      65.35947      65.35947
-------------------------------------------------------------------------------
  Poissons Ratio (x)      =                     0.32256       0.32256
  Poissons Ratio (y)      =       0.32256                     0.32256
  Poissons Ratio (z)      =       0.32256       0.32256
-------------------------------------------------------------------------------


  Piezoelectric Strain Matrix: (Units=C/m**2)

-------------------------------------------------------------------------------
  Indices      1         2         3         4         5         6    
-------------------------------------------------------------------------------
       x    -0.00000   0.00000   0.00000  -0.00000  -0.00000   0.00000
       y    -0.00000   0.00000   0.00000  -0.00000  -0.00000  -0.00000
       z     0.00000   0.00000   0.00000   0.00000  -0.00000  -0.00000
-------------------------------------------------------------------------------


  Piezoelectric Stress Matrix: (Units=10**-11 C/N)

-------------------------------------------------------------------------------
  Indices      1         2         3         4         5         6    
-------------------------------------------------------------------------------
       x    -0.00000   0.00000   0.00000  -0.00000  -0.00000   0.00000
       y    -0.00000   0.00000   0.00000  -0.00000  -0.00000  -0.00000
       z    -0.00000  -0.00000   0.00000   0.00000  -0.00000  -0.00000
-------------------------------------------------------------------------------


  Static dielectric constant tensor : 

-------------------------------------------------------------------------------
              x         y         z
-------------------------------------------------------------------------------
       x    12.11703   0.00000  -0.00000
       y     0.00000  12.11703  -0.00000
       z    -0.00000  -0.00000  12.11703
--------------------------------------------------------------------------------

  High frequency dielectric constant tensor : 

-------------------------------------------------------------------------------
              x         y         z
-------------------------------------------------------------------------------
       x     1.74104   0.00000   0.00000
       y     0.00000   1.74104   0.00000
       z     0.00000   0.00000   1.74104
-------------------------------------------------------------------------------

  Static refractive indices : 

-------------------------------------------------------------------------------
    1 =    3.48095      2 =    3.48095      3 =    3.48095
-------------------------------------------------------------------------------

  High frequency refractive indices : 

-------------------------------------------------------------------------------
    1 =    1.31948      2 =    1.31948      3 =    1.31948
-------------------------------------------------------------------------------


  Time to end of optimisation =       0.0132 seconds

********************************************************************************
*  Defect calculation for configuration   1 :                                  *
********************************************************************************

  Total number of defects =      3

  Total charge on defect  =  -1.00

  Defect centre is at   0.5000   0.5000   0.0000  Frac

  Region 1 radius =  20.0000      Number of ions =   3902

  Number of symmetry inequivalent region 1 ions  =   2117

  Region 2 radius =  24.0000      Number of ions =   2798

  Number of symmetry inequivalent region 2a ions =   1473

  Region 2a mode = 4 : screened electrostatics due to region 1 
                       neglect correction to region 1 forces from 2a
                       region 2a displacements based on defects only

  Region 2a ions will only interact with defects in region 1

  Vacancies:

--------------------------------------------------------------------------------
    Specification type     Symbol/Number         x          y          z
--------------------------------------------------------------------------------
    Fractional                               0.500000   0.500000   0.000000
    Fractional                               0.500000   0.000000   0.500000
--------------------------------------------------------------------------------

  Interstitials:

--------------------------------------------------------------------------------
    Specification type     Symbol/Number         x          y          z
--------------------------------------------------------------------------------
    Atom/Fractional         Li               0.500000   0.500000   0.000000
--------------------------------------------------------------------------------


  Symmetry reduced region 1 (Relative to defect centre) :

--------------------------------------------------------------------------------
   No.   Atomic       x            y             z       Radius  Multiplicity   
         Label      (Angs)       (Angs)        (Angs)    (Angs)     
--------------------------------------------------------------------------------
     1  Li    c      0.0000       0.0000       0.0000    0.0000     1          
     2  O     c      0.0000       0.0000 *    -1.9603 *  0.0000     1          
     3  O     c      0.0000       0.0000 *     1.9603 *  0.0000     1          
     4  Cl    c      1.9603 *     1.9603 *     0.0000 *  0.0000     2          
     5  Cl    c      1.9603 *    -1.9603 *     0.0000 *  0.0000     2          
     6  Li    c      1.9603 *     0.0000 *    -1.9603 *  0.0000     2          
     7  Li    c      1.9603 *     0.0000 *     1.9603 *  0.0000     2          
     8  Li    c      0.0000       1.9603 *    -1.9603 *  0.0000     1          
     9  Li    c      0.0000      -1.9603 *    -1.9603 *  0.0000     1          
    10  Li    c      0.0000      -1.9603 *     1.9603 *  0.0000     1          
    11  Li    c      0.0000       0.0000 *     3.9207 *  0.0000     1          
    12  Li    c      0.0000       0.0000 *    -3.9207 *  0.0000     1          
    13  Li    c      0.0000      -3.9207 *     0.0000 *  0.0000     1          
    14  Li    c     -3.9207 *     0.0000 *     0.0000 *  0.0000     2          
    15  Li    c      0.0000       3.9207 *     0.0000 *  0.0000     1          
    16  O     c      0.0000      -3.9207 *    -1.9603 *  0.0000     1          
    17  O     c      0.0000      -3.9207 *     1.9603 *  0.0000     1          
    18  O     c     -3.9207 *     0.0000 *    -1.9603 *  0.0000     2          
    19  O     c     -3.9207 *     0.0000 *     1.9603 *  0.0000     2          
    20  O     c      0.0000       3.9207 *    -1.9603 *  0.0000     1          
    21  O     c      0.0000       3.9207 *     1.9603 *  0.0000     1          
    22  Cl    c      1.9603 *     1.9603 *     3.9207 *  0.0000     2          
    23  Cl    c      1.9603 *     1.9603 *    -3.9207 *  0.0000     2          
    24  Cl    c      1.9603 *    -1.9603 *     3.9207 *  0.0000     2          
    25  Cl    c      1.9603 *    -1.9603 *    -3.9207 *  0.0000     2          
    26  Li    c      1.9603 *    -3.9207 *    -1.9603 *  0.0000     2          
    27  Li    c      1.9603 *    -3.9207 *     1.9603 *  0.0000     2          
    28  Li    c     -3.9207 *     1.9603 *    -1.9603 *  0.0000     2          
    29  Li    c     -3.9207 *     1.9603 *     1.9603 *  0.0000     2          
    30  Li    c     -3.9207 *    -1.9603 *    -1.9603 *  0.0000     2          
    31  Li    c     -3.9207 *    -1.9603 *     1.9603 *  0.0000     2          
    32  Li    c      1.9603 *     3.9207 *    -1.9603 *  0.0000     2          
    33  Li    c      1.9603 *     3.9207 *     1.9603 *  0.0000     2          
    34  Li    c      0.0000      -3.9207 *     3.9207 *  0.0000     1          
    35  Li    c      0.0000      -3.9207 *    -3.9207 *  0.0000     1          
    36  Li    c     -3.9207 *     0.0000 *     3.9207 *  0.0000     2          
    37  Li    c     -3.9207 *     0.0000 *    -3.9207 *  0.0000     2          
    38  Li    c     -3.9207 *    -3.9207 *     0.0000 *  0.0000     2          
    39  Li    c      0.0000       3.9207 *     3.9207 *  0.0000     1          
    40  Li    c      0.0000       3.9207 *    -3.9207 *  0.0000     1          
    41  Li    c     -3.9207 *     3.9207 *     0.0000 *  0.0000     2          
    42  O     c      0.0000       0.0000 *     5.8810 *  0.0000     1          
    43  O     c      0.0000       0.0000 *    -5.8810 *  0.0000     1          
    44  O     c      3.9207 *    -3.9207 *    -1.9603 *  0.0000     2          
    45  O     c      3.9207 *    -3.9207 *     1.9603 *  0.0000     2          
    46  O     c     -3.9207 *     3.9207 *    -1.9603 *  0.0000     2          
    47  O     c     -3.9207 *     3.9207 *     1.9603 *  0.0000     2          
    48  Cl    c      1.9603 *     5.8810 *     0.0000 *  0.0000     2          
    49  Cl    c      1.9603 *    -5.8810 *     0.0000 *  0.0000     2          
    50  Cl    c      5.8810 *     1.9603 *     0.0000 *  0.0000     2          
    51  Cl    c      5.8810 *    -1.9603 *     0.0000 *  0.0000     2          
    52  Li    c      1.9603 *     0.0000 *     5.8810 *  0.0000     2          
    53  Li    c      1.9603 *     0.0000 *    -5.8810 *  0.0000     2          
    54  Li    c      5.8810 *     0.0000 *    -1.9603 *  0.0000     2          
    55  Li    c      5.8810 *     0.0000 *     1.9603 *  0.0000     2          
    56  Li    c      0.0000       1.9603 *     5.8810 *  0.0000     1          
    57  Li    c      0.0000       1.9603 *    -5.8810 *  0.0000     1          
    58  Li    c      0.0000       5.8810 *    -1.9603 *  0.0000     1          
    59  Li    c      0.0000       5.8810 *     1.9603 *  0.0000     1          
    60  Li    c      0.0000      -1.9603 *     5.8810 *  0.0000     1          
    61  Li    c      0.0000      -1.9603 *    -5.8810 *  0.0000     1          
    62  Li    c      0.0000      -5.8810 *    -1.9603 *  0.0000     1          
    63  Li    c      0.0000      -5.8810 *     1.9603 *  0.0000     1          
    64  Li    c      3.9207 *    -3.9207 *     3.9207 *  0.0000     2          
    65  Li    c      3.9207 *    -3.9207 *    -3.9207 *  0.0000     2          
    66  Li    c     -3.9207 *     3.9207 *     3.9207 *  0.0000     2          
    67  Li    c     -3.9207 *     3.9207 *    -3.9207 *  0.0000     2          
    68  O     c      0.0000      -3.9207 *     5.8810 *  0.0000     1          
    69  O     c      0.0000      -3.9207 *    -5.8810 *  0.0000     1          
    70  O     c     -3.9207 *     0.0000 *     5.8810 *  0.0000     2          
    71  O     c     -3.9207 *     0.0000 *    -5.8810 *  0.0000     2          
    72  O     c      0.0000       3.9207 *     5.8810 *  0.0000     1          
    73  O     c      0.0000       3.9207 *    -5.8810 *  0.0000     1          
    74  Cl    c      1.9603 *     5.8810 *     3.9207 *  0.0000     2          
    75  Cl    c      1.9603 *     5.8810 *    -3.9207 *  0.0000     2          
    76  Cl    c      1.9603 *    -5.8810 *     3.9207 *  0.0000     2          
    77  Cl    c      1.9603 *    -5.8810 *    -3.9207 *  0.0000     2          
    78  Cl    c      5.8810 *     1.9603 *     3.9207 *  0.0000     2          
    79  Cl    c      5.8810 *     1.9603 *    -3.9207 *  0.0000     2          
    80  Cl    c      5.8810 *    -1.9603 *     3.9207 *  0.0000     2          
    81  Cl    c      5.8810 *    -1.9603 *    -3.9207 *  0.0000     2          
    82  Li    c      1.9603 *    -3.9207 *     5.8810 *  0.0000     2          
    83  Li    c      1.9603 *    -3.9207 *    -5.8810 *  0.0000     2          
    84  Li    c      5.8810 *    -3.9207 *    -1.9603 *  0.0000     2          
    85  Li    c      5.8810 *    -3.9207 *     1.9603 *  0.0000     2          
    86  Li    c     -3.9207 *     1.9603 *     5.8810 *  0.0000     2          
    87  Li    c     -3.9207 *     1.9603 *    -5.8810 *  0.0000     2          
    88  Li    c     -3.9207 *     5.8810 *    -1.9603 *  0.0000     2          
    89  Li    c     -3.9207 *     5.8810 *     1.9603 *  0.0000     2          
    90  Li    c     -3.9207 *    -1.9603 *     5.8810 *  0.0000     2          
    91  Li    c     -3.9207 *    -1.9603 *    -5.8810 *  0.0000     2          
    92  Li    c     -3.9207 *    -5.8810 *    -1.9603 *  0.0000     2          
    93  Li    c     -3.9207 *    -5.8810 *     1.9603 *  0.0000     2          
    94  Li    c      1.9603 *     3.9207 *     5.8810 *  0.0000     2          
    95  Li    c      1.9603 *     3.9207 *    -5.8810 *  0.0000     2          
    96  Li    c      5.8810 *     3.9207 *    -1.9603 *  0.0000     2          
    97  Li    c      5.8810 *     3.9207 *     1.9603 *  0.0000     2          
    98  Li    c      0.0000       0.0000 *     7.8414 *  0.0000     1          
    99  Li    c      0.0000       0.0000 *    -7.8414 *  0.0000     1          
   100  Li    c      0.0000      -7.8414 *     0.0000 *  0.0000     1          
   101  Li    c     -7.8414 *     0.0000 *     0.0000 *  0.0000     2          
   102  Li    c      0.0000       7.8414 *     0.0000 *  0.0000     1          
   103  O     c      0.0000      -7.8414 *    -1.9603 *  0.0000     1          
   104  O     c      0.0000      -7.8414 *     1.9603 *  0.0000     1          
   105  O     c     -3.9207 *    -3.9207 *     5.8810 *  0.0000     2          
   106  O     c     -3.9207 *    -3.9207 *    -5.8810 *  0.0000     2          
   107  O     c     -7.8414 *     0.0000 *    -1.9603 *  0.0000     2          
   108  O     c     -7.8414 *     0.0000 *     1.9603 *  0.0000     2          
   109  O     c      0.0000       7.8414 *    -1.9603 *  0.0000     1          
   110  O     c      0.0000       7.8414 *     1.9603 *  0.0000     1          
   111  O     c      3.9207 *     3.9207 *     5.8810 *  0.0000     2          
   112  O     c      3.9207 *     3.9207 *    -5.8810 *  0.0000     2          
   113  Cl    c      1.9603 *     1.9603 *     7.8414 *  0.0000     2          
   114  Cl    c      1.9603 *     1.9603 *    -7.8414 *  0.0000     2          
   115  Cl    c      1.9603 *    -1.9603 *     7.8414 *  0.0000     2          
   116  Cl    c      1.9603 *    -1.9603 *    -7.8414 *  0.0000     2          
   117  Cl    c      5.8810 *     5.8810 *     0.0000 *  0.0000     2          
   118  Cl    c      5.8810 *    -5.8810 *     0.0000 *  0.0000     2          
   119  Li    c      1.9603 *    -7.8414 *    -1.9603 *  0.0000     2          
   120  Li    c      1.9603 *    -7.8414 *     1.9603 *  0.0000     2          
   121  Li    c      5.8810 *     0.0000 *     5.8810 *  0.0000     2          
   122  Li    c      5.8810 *     0.0000 *    -5.8810 *  0.0000     2          
   123  Li    c      0.0000       5.8810 *     5.8810 *  0.0000     1          
   124  Li    c      0.0000       5.8810 *    -5.8810 *  0.0000     1          
   125  Li    c      0.0000      -5.8810 *     5.8810 *  0.0000     1          
   126  Li    c      0.0000      -5.8810 *    -5.8810 *  0.0000     1          
   127  Li    c     -7.8414 *     1.9603 *    -1.9603 *  0.0000     2          
   128  Li    c     -7.8414 *     1.9603 *     1.9603 *  0.0000     2          
   129  Li    c     -7.8414 *    -1.9603 *    -1.9603 *  0.0000     2          
   130  Li    c     -7.8414 *    -1.9603 *     1.9603 *  0.0000     2          
   131  Li    c      1.9603 *     7.8414 *    -1.9603 *  0.0000     2          
   132  Li    c      1.9603 *     7.8414 *     1.9603 *  0.0000     2          
   133  Li    c      0.0000       3.9207 *     7.8414 *  0.0000     1          
   134  Li    c      0.0000       3.9207 *    -7.8414 *  0.0000     1          
   135  Li    c      0.0000      -3.9207 *     7.8414 *  0.0000     1          
   136  Li    c      0.0000      -3.9207 *    -7.8414 *  0.0000     1          
   137  Li    c      0.0000      -7.8414 *     3.9207 *  0.0000     1          
   138  Li    c      0.0000      -7.8414 *    -3.9207 *  0.0000     1          
   139  Li    c      3.9207 *     0.0000 *     7.8414 *  0.0000     2          
   140  Li    c      3.9207 *     0.0000 *    -7.8414 *  0.0000     2          
   141  Li    c      3.9207 *    -7.8414 *     0.0000 *  0.0000     2          
   142  Li    c     -7.8414 *     0.0000 *     3.9207 *  0.0000     2          
   143  Li    c     -7.8414 *     0.0000 *    -3.9207 *  0.0000     2          
   144  Li    c     -7.8414 *     3.9207 *     0.0000 *  0.0000     2          
   145  Li    c     -7.8414 *    -3.9207 *     0.0000 *  0.0000     2          
   146  Li    c      0.0000       7.8414 *     3.9207 *  0.0000     1          
   147  Li    c      0.0000       7.8414 *    -3.9207 *  0.0000     1          
   148  Li    c      3.9207 *     7.8414 *     0.0000 *  0.0000     2          
   149  O     c      3.9207 *    -7.8414 *    -1.9603 *  0.0000     2          
   150  O     c      3.9207 *    -7.8414 *     1.9603 *  0.0000     2          
   151  O     c     -7.8414 *     3.9207 *    -1.9603 *  0.0000     2          
   152  O     c     -7.8414 *     3.9207 *     1.9603 *  0.0000     2          
   153  O     c     -7.8414 *    -3.9207 *    -1.9603 *  0.0000     2          
   154  O     c     -7.8414 *    -3.9207 *     1.9603 *  0.0000     2          
   155  O     c      3.9207 *     7.8414 *    -1.9603 *  0.0000     2          
   156  O     c      3.9207 *     7.8414 *     1.9603 *  0.0000     2          
   157  Li    c      5.8810 *    -3.9207 *     5.8810 *  0.0000     2          
   158  Li    c      5.8810 *    -3.9207 *    -5.8810 *  0.0000     2          
   159  Li    c     -3.9207 *     5.8810 *     5.8810 *  0.0000     2          
   160  Li    c     -3.9207 *     5.8810 *    -5.8810 *  0.0000     2          
   161  Li    c     -3.9207 *    -5.8810 *     5.8810 *  0.0000     2          
   162  Li    c     -3.9207 *    -5.8810 *    -5.8810 *  0.0000     2          
   163  Cl    c      5.8810 *     5.8810 *     3.9207 *  0.0000     2          
   164  Cl    c      5.8810 *     5.8810 *    -3.9207 *  0.0000     2          
   165  Cl    c      5.8810 *    -5.8810 *     3.9207 *  0.0000     2          
   166  Cl    c      5.8810 *    -5.8810 *    -3.9207 *  0.0000     2          
   167  Li    c      5.8810 *     3.9207 *     5.8810 *  0.0000     2          
   168  Li    c      5.8810 *     3.9207 *    -5.8810 *  0.0000     2          
   169  Li    c      3.9207 *     3.9207 *     7.8414 *  0.0000     2          
   170  Li    c      3.9207 *     3.9207 *    -7.8414 *  0.0000     2          
   171  Li    c      3.9207 *    -3.9207 *     7.8414 *  0.0000     2          
   172  Li    c      3.9207 *    -3.9207 *    -7.8414 *  0.0000     2          
   173  Li    c      3.9207 *    -7.8414 *     3.9207 *  0.0000     2          
   174  Li    c      3.9207 *    -7.8414 *    -3.9207 *  0.0000     2          
   175  Li    c     -7.8414 *     3.9207 *     3.9207 *  0.0000     2          
   176  Li    c     -7.8414 *     3.9207 *    -3.9207 *  0.0000     2          
   177  Li    c     -7.8414 *    -3.9207 *     3.9207 *  0.0000     2          
   178  Li    c     -7.8414 *    -3.9207 *    -3.9207 *  0.0000     2          
   179  Li    c      3.9207 *     7.8414 *     3.9207 *  0.0000     2          
   180  Li    c      3.9207 *     7.8414 *    -3.9207 *  0.0000     2          
   181  O     c      0.0000      -7.8414 *     5.8810 *  0.0000     1          
   182  O     c      0.0000      -7.8414 *    -5.8810 *  0.0000     1          
   183  O     c     -7.8414 *     0.0000 *     5.8810 *  0.0000     2          
   184  O     c     -7.8414 *     0.0000 *    -5.8810 *  0.0000     2          
   185  O     c      0.0000       0.0000 *     9.8017 *  0.0000     1          
   186  O     c      0.0000       0.0000 *    -9.8017 *  0.0000     1          
   187  O     c      0.0000       7.8414 *     5.8810 *  0.0000     1          
   188  O     c      0.0000       7.8414 *    -5.8810 *  0.0000     1          
   189  Cl    c      1.9603 *     5.8810 *     7.8414 *  0.0000     2          
   190  Cl    c      1.9603 *     5.8810 *    -7.8414 *  0.0000     2          
   191  Cl    c      1.9603 *    -5.8810 *     7.8414 *  0.0000     2          
   192  Cl    c      1.9603 *    -5.8810 *    -7.8414 *  0.0000     2          
   193  Cl    c      5.8810 *     1.9603 *     7.8414 *  0.0000     2          
   194  Cl    c      5.8810 *     1.9603 *    -7.8414 *  0.0000     2          
   195  Cl    c      5.8810 *    -1.9603 *     7.8414 *  0.0000     2          
   196  Cl    c      5.8810 *    -1.9603 *    -7.8414 *  0.0000     2          
   197  Li    c      1.9603 *    -7.8414 *     5.8810 *  0.0000     2          
   198  Li    c      1.9603 *    -7.8414 *    -5.8810 *  0.0000     2          
   199  Li    c      5.8810 *    -7.8414 *    -1.9603 *  0.0000     2          
   200  Li    c      5.8810 *    -7.8414 *     1.9603 *  0.0000     2          
   201  Li    c     -7.8414 *     1.9603 *     5.8810 *  0.0000     2          
   202  Li    c     -7.8414 *     1.9603 *    -5.8810 *  0.0000     2          
   203  Li    c     -7.8414 *     5.8810 *    -1.9603 *  0.0000     2          
   204  Li    c     -7.8414 *     5.8810 *     1.9603 *  0.0000     2          
   205  Li    c     -7.8414 *    -1.9603 *     5.8810 *  0.0000     2          
   206  Li    c     -7.8414 *    -1.9603 *    -5.8810 *  0.0000     2          
   207  Li    c     -7.8414 *    -5.8810 *    -1.9603 *  0.0000     2          
   208  Li    c     -7.8414 *    -5.8810 *     1.9603 *  0.0000     2          
   209  Li    c      1.9603 *     7.8414 *     5.8810 *  0.0000     2          
   210  Li    c      1.9603 *     7.8414 *    -5.8810 *  0.0000     2          
   211  Cl    c      1.9603 *     9.8017 *     0.0000 *  0.0000     2          
   212  Cl    c      1.9603 *    -9.8017 *     0.0000 *  0.0000     2          
   213  Cl    c      9.8017 *     1.9603 *     0.0000 *  0.0000     2          
   214  Cl    c      9.8017 *    -1.9603 *     0.0000 *  0.0000     2          
   215  Li    c      1.9603 *     0.0000 *     9.8017 *  0.0000     2          
   216  Li    c      1.9603 *     0.0000 *    -9.8017 *  0.0000     2          
   217  Li    c      5.8810 *     7.8414 *    -1.9603 *  0.0000     2          
   218  Li    c      5.8810 *     7.8414 *     1.9603 *  0.0000     2          
   219  Li    c      9.8017 *     0.0000 *    -1.9603 *  0.0000     2          
   220  Li    c      9.8017 *     0.0000 *     1.9603 *  0.0000     2          
   221  Li    c      0.0000       1.9603 *     9.8017 *  0.0000     1          
   222  Li    c      0.0000       1.9603 *    -9.8017 *  0.0000     1          
   223  Li    c      0.0000       9.8017 *    -1.9603 *  0.0000     1          
   224  Li    c      0.0000       9.8017 *     1.9603 *  0.0000     1          
   225  Li    c      0.0000      -1.9603 *     9.8017 *  0.0000     1          
   226  Li    c      0.0000      -1.9603 *    -9.8017 *  0.0000     1          
   227  Li    c      0.0000      -9.8017 *    -1.9603 *  0.0000     1          
   228  Li    c      0.0000      -9.8017 *     1.9603 *  0.0000     1          
   229  O     c      3.9207 *    -7.8414 *     5.8810 *  0.0000     2          
   230  O     c      3.9207 *    -7.8414 *    -5.8810 *  0.0000     2          
   231  O     c     -7.8414 *     3.9207 *     5.8810 *  0.0000     2          
   232  O     c     -7.8414 *     3.9207 *    -5.8810 *  0.0000     2          
   233  O     c     -7.8414 *    -3.9207 *     5.8810 *  0.0000     2          
   234  O     c     -7.8414 *    -3.9207 *    -5.8810 *  0.0000     2          
   235  O     c      3.9207 *     7.8414 *     5.8810 *  0.0000     2          
   236  O     c      3.9207 *     7.8414 *    -5.8810 *  0.0000     2          
   237  O     c      0.0000       3.9207 *     9.8017 *  0.0000     1          
   238  O     c      0.0000       3.9207 *    -9.8017 *  0.0000     1          
   239  O     c      0.0000      -3.9207 *     9.8017 *  0.0000     1          
   240  O     c      0.0000      -3.9207 *    -9.8017 *  0.0000     1          
   241  O     c      3.9207 *     0.0000 *     9.8017 *  0.0000     2          
   242  O     c      3.9207 *     0.0000 *    -9.8017 *  0.0000     2          
   243  Li    c      1.9603 *    -3.9207 *     9.8017 *  0.0000     2          
   244  Li    c      1.9603 *    -3.9207 *    -9.8017 *  0.0000     2          
   245  Li    c     -3.9207 *     1.9603 *     9.8017 *  0.0000     2          
   246  Li    c     -3.9207 *     1.9603 *    -9.8017 *  0.0000     2          
   247  Li    c     -3.9207 *    -1.9603 *     9.8017 *  0.0000     2          
   248  Li    c     -3.9207 *    -1.9603 *    -9.8017 *  0.0000     2          
   249  Cl    c      1.9603 *     9.8017 *     3.9207 *  0.0000     2          
   250  Cl    c      1.9603 *     9.8017 *    -3.9207 *  0.0000     2          
   251  Cl    c      1.9603 *    -9.8017 *     3.9207 *  0.0000     2          
   252  Cl    c      1.9603 *    -9.8017 *    -3.9207 *  0.0000     2          
   253  Cl    c      9.8017 *     1.9603 *     3.9207 *  0.0000     2          
   254  Cl    c      9.8017 *     1.9603 *    -3.9207 *  0.0000     2          
   255  Cl    c      9.8017 *    -1.9603 *     3.9207 *  0.0000     2          
   256  Cl    c      9.8017 *    -1.9603 *    -3.9207 *  0.0000     2          
   257  Li    c      1.9603 *     3.9207 *     9.8017 *  0.0000     2          
   258  Li    c      1.9603 *     3.9207 *    -9.8017 *  0.0000     2          
   259  Li    c      9.8017 *     3.9207 *    -1.9603 *  0.0000     2          
   260  Li    c      9.8017 *     3.9207 *     1.9603 *  0.0000     2          
   261  Li    c      9.8017 *    -3.9207 *    -1.9603 *  0.0000     2          
   262  Li    c      9.8017 *    -3.9207 *     1.9603 *  0.0000     2          
   263  Li    c      3.9207 *     9.8017 *    -1.9603 *  0.0000     2          
   264  Li    c      3.9207 *     9.8017 *     1.9603 *  0.0000     2          
   265  Li    c      3.9207 *    -9.8017 *    -1.9603 *  0.0000     2          
   266  Li    c      3.9207 *    -9.8017 *     1.9603 *  0.0000     2          
   267  Li    c      0.0000      -7.8414 *     7.8414 *  0.0000     1          
   268  Li    c      0.0000      -7.8414 *    -7.8414 *  0.0000     1          
   269  Li    c     -7.8414 *     0.0000 *     7.8414 *  0.0000     2          
   270  Li    c     -7.8414 *     0.0000 *    -7.8414 *  0.0000     2          
   271  Li    c     -7.8414 *    -7.8414 *     0.0000 *  0.0000     2          
   272  Li    c      0.0000       7.8414 *     7.8414 *  0.0000     1          
   273  Li    c      0.0000       7.8414 *    -7.8414 *  0.0000     1          
   274  Li    c     -7.8414 *     7.8414 *     0.0000 *  0.0000     2          
   275  O     c     -7.8414 *    -7.8414 *    -1.9603 *  0.0000     2          
   276  O     c     -7.8414 *    -7.8414 *     1.9603 *  0.0000     2          
   277  O     c     -3.9207 *    -3.9207 *     9.8017 *  0.0000     2          
   278  O     c     -3.9207 *    -3.9207 *    -9.8017 *  0.0000     2          
   279  O     c     -7.8414 *     7.8414 *    -1.9603 *  0.0000     2          
   280  O     c     -7.8414 *     7.8414 *     1.9603 *  0.0000     2          
   281  O     c      3.9207 *     3.9207 *     9.8017 *  0.0000     2          
   282  O     c      3.9207 *     3.9207 *    -9.8017 *  0.0000     2          
   283  Cl    c      5.8810 *     5.8810 *     7.8414 *  0.0000     2          
   284  Cl    c      5.8810 *     5.8810 *    -7.8414 *  0.0000     2          
   285  Cl    c      5.8810 *    -5.8810 *     7.8414 *  0.0000     2          
   286  Cl    c      5.8810 *    -5.8810 *    -7.8414 *  0.0000     2          
   287  Li    c      5.8810 *    -7.8414 *     5.8810 *  0.0000     2          
   288  Li    c      5.8810 *    -7.8414 *    -5.8810 *  0.0000     2          
   289  Li    c     -7.8414 *     5.8810 *     5.8810 *  0.0000     2          
   290  Li    c     -7.8414 *     5.8810 *    -5.8810 *  0.0000     2          
   291  Li    c     -7.8414 *    -5.8810 *     5.8810 *  0.0000     2          
   292  Li    c     -7.8414 *    -5.8810 *    -5.8810 *  0.0000     2          
   293  Cl    c      5.8810 *     9.8017 *     0.0000 *  0.0000     2          
   294  Cl    c      5.8810 *    -9.8017 *     0.0000 *  0.0000     2          
   295  Cl    c      9.8017 *     5.8810 *     0.0000 *  0.0000     2          
   296  Cl    c      9.8017 *    -5.8810 *     0.0000 *  0.0000     2          
   297  Li    c      5.8810 *     0.0000 *     9.8017 *  0.0000     2          
   298  Li    c      5.8810 *     0.0000 *    -9.8017 *  0.0000     2          
   299  Li    c      5.8810 *     7.8414 *     5.8810 *  0.0000     2          
   300  Li    c      5.8810 *     7.8414 *    -5.8810 *  0.0000     2          
   301  Li    c      9.8017 *     0.0000 *     5.8810 *  0.0000     2          
   302  Li    c      9.8017 *     0.0000 *    -5.8810 *  0.0000     2          
   303  Li    c      0.0000       5.8810 *     9.8017 *  0.0000     1          
   304  Li    c      0.0000       5.8810 *    -9.8017 *  0.0000     1          
   305  Li    c      0.0000       9.8017 *     5.8810 *  0.0000     1          
   306  Li    c      0.0000       9.8017 *    -5.8810 *  0.0000     1          
   307  Li    c      0.0000      -5.8810 *     9.8017 *  0.0000     1          
   308  Li    c      0.0000      -5.8810 *    -9.8017 *  0.0000     1          
   309  Li    c      0.0000      -9.8017 *     5.8810 *  0.0000     1          
   310  Li    c      0.0000      -9.8017 *    -5.8810 *  0.0000     1          
   311  Li    c      0.0000       0.0000 *    11.7620 *  0.0000     1          
   312  Li    c      0.0000       0.0000 *   -11.7620 *  0.0000     1          
   313  Li    c      0.0000      11.7620 *     0.0000 *  0.0000     1          
   314  Li    c      0.0000     -11.7620 *     0.0000 *  0.0000     1          
   315  Li    c      3.9207 *     7.8414 *     7.8414 *  0.0000     2          
   316  Li    c      3.9207 *     7.8414 *    -7.8414 *  0.0000     2          
   317  Li    c      3.9207 *    -7.8414 *     7.8414 *  0.0000     2          
   318  Li    c      3.9207 *    -7.8414 *    -7.8414 *  0.0000     2          
   319  Li    c      7.8414 *     3.9207 *     7.8414 *  0.0000     2          
   320  Li    c      7.8414 *     3.9207 *    -7.8414 *  0.0000     2          
   321  Li    c      7.8414 *    -3.9207 *     7.8414 *  0.0000     2          
   322  Li    c      7.8414 *    -3.9207 *    -7.8414 *  0.0000     2          
   323  Li    c      7.8414 *    -7.8414 *     3.9207 *  0.0000     2          
   324  Li    c      7.8414 *    -7.8414 *    -3.9207 *  0.0000     2          
   325  Li    c     11.7620 *     0.0000 *     0.0000 *  0.0000     2          
   326  Li    c     -7.8414 *     7.8414 *     3.9207 *  0.0000     2          
   327  Li    c     -7.8414 *     7.8414 *    -3.9207 *  0.0000     2          
   328  O     c      0.0000      11.7620 *    -1.9603 *  0.0000     1          
   329  O     c      0.0000      11.7620 *     1.9603 *  0.0000     1          
   330  O     c      0.0000     -11.7620 *    -1.9603 *  0.0000     1          
   331  O     c      0.0000     -11.7620 *     1.9603 *  0.0000     1          
   332  O     c     11.7620 *     0.0000 *    -1.9603 *  0.0000     2          
   333  O     c     11.7620 *     0.0000 *     1.9603 *  0.0000     2          
   334  Li    c      1.9603 *    11.7620 *    -1.9603 *  0.0000     2          
   335  Li    c      1.9603 *    11.7620 *     1.9603 *  0.0000     2          
   336  Li    c      1.9603 *   -11.7620 *    -1.9603 *  0.0000     2          
   337  Li    c      1.9603 *   -11.7620 *     1.9603 *  0.0000     2          
   338  Li    c     11.7620 *     1.9603 *    -1.9603 *  0.0000     2          
   339  Li    c     11.7620 *     1.9603 *     1.9603 *  0.0000     2          
   340  Li    c     11.7620 *    -1.9603 *    -1.9603 *  0.0000     2          
   341  Li    c     11.7620 *    -1.9603 *     1.9603 *  0.0000     2          
   342  Cl    c      1.9603 *     1.9603 *    11.7620 *  0.0000     2          
   343  Cl    c      1.9603 *     1.9603 *   -11.7620 *  0.0000     2          
   344  Cl    c      1.9603 *    -1.9603 *    11.7620 *  0.0000     2          
   345  Cl    c      1.9603 *    -1.9603 *   -11.7620 *  0.0000     2          
   346  Cl    c      5.8810 *     9.8017 *     3.9207 *  0.0000     2          
   347  Cl    c      5.8810 *     9.8017 *    -3.9207 *  0.0000     2          
   348  Cl    c      5.8810 *    -9.8017 *     3.9207 *  0.0000     2          
   349  Cl    c      5.8810 *    -9.8017 *    -3.9207 *  0.0000     2          
   350  Cl    c      9.8017 *     5.8810 *     3.9207 *  0.0000     2          
   351  Cl    c      9.8017 *     5.8810 *    -3.9207 *  0.0000     2          
   352  Cl    c      9.8017 *    -5.8810 *     3.9207 *  0.0000     2          
   353  Cl    c      9.8017 *    -5.8810 *    -3.9207 *  0.0000     2          
   354  Li    c      5.8810 *    -3.9207 *     9.8017 *  0.0000     2          
   355  Li    c      5.8810 *    -3.9207 *    -9.8017 *  0.0000     2          
   356  Li    c     -3.9207 *     5.8810 *     9.8017 *  0.0000     2          
   357  Li    c     -3.9207 *     5.8810 *    -9.8017 *  0.0000     2          
   358  Li    c     -3.9207 *    -5.8810 *     9.8017 *  0.0000     2          
   359  Li    c     -3.9207 *    -5.8810 *    -9.8017 *  0.0000     2          
   360  Li    c      5.8810 *     3.9207 *     9.8017 *  0.0000     2          
   361  Li    c      5.8810 *     3.9207 *    -9.8017 *  0.0000     2          
   362  Li    c      9.8017 *     3.9207 *     5.8810 *  0.0000     2          
   363  Li    c      9.8017 *     3.9207 *    -5.8810 *  0.0000     2          
   364  Li    c      9.8017 *    -3.9207 *     5.8810 *  0.0000     2          
   365  Li    c      9.8017 *    -3.9207 *    -5.8810 *  0.0000     2          
   366  Li    c      3.9207 *     9.8017 *     5.8810 *  0.0000     2          
   367  Li    c      3.9207 *     9.8017 *    -5.8810 *  0.0000     2          
   368  Li    c      3.9207 *    -9.8017 *     5.8810 *  0.0000     2          
   369  Li    c      3.9207 *    -9.8017 *    -5.8810 *  0.0000     2          
   370  Li    c      0.0000       3.9207 *    11.7620 *  0.0000     1          
   371  Li    c      0.0000       3.9207 *   -11.7620 *  0.0000     1          
   372  Li    c      0.0000      11.7620 *     3.9207 *  0.0000     1          
   373  Li    c      0.0000      11.7620 *    -3.9207 *  0.0000     1          
   374  Li    c      0.0000      -3.9207 *    11.7620 *  0.0000     1          
   375  Li    c      0.0000      -3.9207 *   -11.7620 *  0.0000     1          
   376  Li    c      0.0000     -11.7620 *     3.9207 *  0.0000     1          
   377  Li    c      0.0000     -11.7620 *    -3.9207 *  0.0000     1          
   378  Li    c      3.9207 *     0.0000 *    11.7620 *  0.0000     2          
   379  Li    c      3.9207 *     0.0000 *   -11.7620 *  0.0000     2          
   380  Li    c      3.9207 *    11.7620 *     0.0000 *  0.0000     2          
   381  Li    c      3.9207 *   -11.7620 *     0.0000 *  0.0000     2          
   382  Li    c     11.7620 *     0.0000 *     3.9207 *  0.0000     2          
   383  Li    c     11.7620 *     0.0000 *    -3.9207 *  0.0000     2          
   384  Li    c     11.7620 *     3.9207 *     0.0000 *  0.0000     2          
   385  Li    c     11.7620 *    -3.9207 *     0.0000 *  0.0000     2          
   386  O     c      3.9207 *    11.7620 *    -1.9603 *  0.0000     2          
   387  O     c      3.9207 *    11.7620 *     1.9603 *  0.0000     2          
   388  O     c      3.9207 *   -11.7620 *    -1.9603 *  0.0000     2          
   389  O     c      3.9207 *   -11.7620 *     1.9603 *  0.0000     2          
   390  O     c     11.7620 *     3.9207 *    -1.9603 *  0.0000     2          
   391  O     c     11.7620 *     3.9207 *     1.9603 *  0.0000     2          
   392  O     c     11.7620 *    -3.9207 *    -1.9603 *  0.0000     2          
   393  O     c     11.7620 *    -3.9207 *     1.9603 *  0.0000     2          
   394  O     c      0.0000      -7.8414 *     9.8017 *  0.0000     1          
   395  O     c      0.0000      -7.8414 *    -9.8017 *  0.0000     1          
   396  O     c      7.8414 *     7.8414 *     5.8810 *  0.0000     2          
   397  O     c      7.8414 *     7.8414 *    -5.8810 *  0.0000     2          
   398  O     c      7.8414 *    -7.8414 *     5.8810 *  0.0000     2          
   399  O     c      7.8414 *    -7.8414 *    -5.8810 *  0.0000     2          
   400  O     c     -7.8414 *     0.0000 *     9.8017 *  0.0000     2          
   401  O     c     -7.8414 *     0.0000 *    -9.8017 *  0.0000     2          
   402  O     c      0.0000       7.8414 *     9.8017 *  0.0000     1          
   403  O     c      0.0000       7.8414 *    -9.8017 *  0.0000     1          
   404  Li    c      1.9603 *    -7.8414 *     9.8017 *  0.0000     2          
   405  Li    c      1.9603 *    -7.8414 *    -9.8017 *  0.0000     2          
   406  Li    c      9.8017 *    -7.8414 *    -1.9603 *  0.0000     2          
   407  Li    c      9.8017 *    -7.8414 *     1.9603 *  0.0000     2          
   408  Li    c     -7.8414 *     1.9603 *     9.8017 *  0.0000     2          
   409  Li    c     -7.8414 *     1.9603 *    -9.8017 *  0.0000     2          
   410  Li    c     -7.8414 *     9.8017 *    -1.9603 *  0.0000     2          
   411  Li    c     -7.8414 *     9.8017 *     1.9603 *  0.0000     2          
   412  Li    c     -7.8414 *    -1.9603 *     9.8017 *  0.0000     2          
   413  Li    c     -7.8414 *    -1.9603 *    -9.8017 *  0.0000     2          
   414  Li    c     -7.8414 *    -9.8017 *    -1.9603 *  0.0000     2          
   415  Li    c     -7.8414 *    -9.8017 *     1.9603 *  0.0000     2          
   416  Cl    c      1.9603 *     9.8017 *     7.8414 *  0.0000     2          
   417  Cl    c      1.9603 *     9.8017 *    -7.8414 *  0.0000     2          
   418  Cl    c      1.9603 *    -9.8017 *     7.8414 *  0.0000     2          
   419  Cl    c      1.9603 *    -9.8017 *    -7.8414 *  0.0000     2          
   420  Cl    c      9.8017 *     1.9603 *     7.8414 *  0.0000     2          
   421  Cl    c      9.8017 *     1.9603 *    -7.8414 *  0.0000     2          
   422  Cl    c      9.8017 *    -1.9603 *     7.8414 *  0.0000     2          
   423  Cl    c      9.8017 *    -1.9603 *    -7.8414 *  0.0000     2          
   424  Li    c      1.9603 *     7.8414 *     9.8017 *  0.0000     2          
   425  Li    c      1.9603 *     7.8414 *    -9.8017 *  0.0000     2          
   426  Li    c      9.8017 *     7.8414 *    -1.9603 *  0.0000     2          
   427  Li    c      9.8017 *     7.8414 *     1.9603 *  0.0000     2          
   428  Li    c      3.9207 *    11.7620 *     3.9207 *  0.0000     2          
   429  Li    c      3.9207 *    11.7620 *    -3.9207 *  0.0000     2          
   430  Li    c      3.9207 *   -11.7620 *     3.9207 *  0.0000     2          
   431  Li    c      3.9207 *   -11.7620 *    -3.9207 *  0.0000     2          
   432  Li    c     11.7620 *     3.9207 *     3.9207 *  0.0000     2          
   433  Li    c     11.7620 *     3.9207 *    -3.9207 *  0.0000     2          
   434  Li    c     11.7620 *    -3.9207 *     3.9207 *  0.0000     2          
   435  Li    c     11.7620 *    -3.9207 *    -3.9207 *  0.0000     2          
   436  Li    c      3.9207 *     3.9207 *    11.7620 *  0.0000     2          
   437  Li    c      3.9207 *     3.9207 *   -11.7620 *  0.0000     2          
   438  Li    c      3.9207 *    -3.9207 *    11.7620 *  0.0000     2          
   439  Li    c      3.9207 *    -3.9207 *   -11.7620 *  0.0000     2          
   440  O     c      0.0000      11.7620 *     5.8810 *  0.0000     1          
   441  O     c      0.0000      11.7620 *    -5.8810 *  0.0000     1          
   442  O     c      0.0000     -11.7620 *     5.8810 *  0.0000     1          
   443  O     c      0.0000     -11.7620 *    -5.8810 *  0.0000     1          
   444  O     c     11.7620 *     0.0000 *     5.8810 *  0.0000     2          
   445  O     c     11.7620 *     0.0000 *    -5.8810 *  0.0000     2          
   446  O     c      3.9207 *     7.8414 *     9.8017 *  0.0000     2          
   447  O     c      3.9207 *     7.8414 *    -9.8017 *  0.0000     2          
   448  O     c      3.9207 *    -7.8414 *     9.8017 *  0.0000     2          
   449  O     c      3.9207 *    -7.8414 *    -9.8017 *  0.0000     2          
   450  O     c      7.8414 *     3.9207 *     9.8017 *  0.0000     2          
   451  O     c      7.8414 *     3.9207 *    -9.8017 *  0.0000     2          
   452  O     c      7.8414 *    -3.9207 *     9.8017 *  0.0000     2          
   453  O     c      7.8414 *    -3.9207 *    -9.8017 *  0.0000     2          
   454  Cl    c      1.9603 *     5.8810 *    11.7620 *  0.0000     2          
   455  Cl    c      1.9603 *     5.8810 *   -11.7620 *  0.0000     2          
   456  Cl    c      1.9603 *    -5.8810 *    11.7620 *  0.0000     2          
   457  Cl    c      1.9603 *    -5.8810 *   -11.7620 *  0.0000     2          
   458  Cl    c      5.8810 *     1.9603 *    11.7620 *  0.0000     2          
   459  Cl    c      5.8810 *     1.9603 *   -11.7620 *  0.0000     2          
   460  Cl    c      5.8810 *    -1.9603 *    11.7620 *  0.0000     2          
   461  Cl    c      5.8810 *    -1.9603 *   -11.7620 *  0.0000     2          
   462  Li    c      1.9603 *    11.7620 *     5.8810 *  0.0000     2          
   463  Li    c      1.9603 *    11.7620 *    -5.8810 *  0.0000     2          
   464  Li    c      1.9603 *   -11.7620 *     5.8810 *  0.0000     2          
   465  Li    c      1.9603 *   -11.7620 *    -5.8810 *  0.0000     2          
   466  Li    c      5.8810 *    11.7620 *    -1.9603 *  0.0000     2          
   467  Li    c      5.8810 *    11.7620 *     1.9603 *  0.0000     2          
   468  Li    c      5.8810 *   -11.7620 *    -1.9603 *  0.0000     2          
   469  Li    c      5.8810 *   -11.7620 *     1.9603 *  0.0000     2          
   470  Li    c     11.7620 *     1.9603 *     5.8810 *  0.0000     2          
   471  Li    c     11.7620 *     1.9603 *    -5.8810 *  0.0000     2          
   472  Li    c     11.7620 *     5.8810 *    -1.9603 *  0.0000     2          
   473  Li    c     11.7620 *     5.8810 *     1.9603 *  0.0000     2          
   474  Li    c     11.7620 *    -1.9603 *     5.8810 *  0.0000     2          
   475  Li    c     11.7620 *    -1.9603 *    -5.8810 *  0.0000     2          
   476  Li    c     11.7620 *    -5.8810 *    -1.9603 *  0.0000     2          
   477  Li    c     11.7620 *    -5.8810 *     1.9603 *  0.0000     2          
   478  Li    c      7.8414 *    -7.8414 *     7.8414 *  0.0000     2          
   479  Li    c      7.8414 *    -7.8414 *    -7.8414 *  0.0000     2          
   480  Li    c     -7.8414 *     7.8414 *     7.8414 *  0.0000     2          
   481  Li    c     -7.8414 *     7.8414 *    -7.8414 *  0.0000     2          
   482  O     c      3.9207 *    11.7620 *     5.8810 *  0.0000     2          
   483  O     c      3.9207 *    11.7620 *    -5.8810 *  0.0000     2          
   484  O     c      3.9207 *   -11.7620 *     5.8810 *  0.0000     2          
   485  O     c      3.9207 *   -11.7620 *    -5.8810 *  0.0000     2          
   486  O     c     11.7620 *     3.9207 *     5.8810 *  0.0000     2          
   487  O     c     11.7620 *     3.9207 *    -5.8810 *  0.0000     2          
   488  O     c     11.7620 *    -3.9207 *     5.8810 *  0.0000     2          
   489  O     c     11.7620 *    -3.9207 *    -5.8810 *  0.0000     2          
   490  O     c      0.0000       0.0000 *    13.7224 *  0.0000     1          
   491  O     c      0.0000       0.0000 *   -13.7224 *  0.0000     1          
   492  Cl    c      1.9603 *    13.7224 *     0.0000 *  0.0000     2          
   493  Cl    c      1.9603 *   -13.7224 *     0.0000 *  0.0000     2          
   494  Cl    c      5.8810 *     9.8017 *     7.8414 *  0.0000     2          
   495  Cl    c      5.8810 *     9.8017 *    -7.8414 *  0.0000     2          
   496  Cl    c      5.8810 *    -9.8017 *     7.8414 *  0.0000     2          
   497  Cl    c      5.8810 *    -9.8017 *    -7.8414 *  0.0000     2          
   498  Cl    c      9.8017 *     5.8810 *     7.8414 *  0.0000     2          
   499  Cl    c      9.8017 *     5.8810 *    -7.8414 *  0.0000     2          
   500  Cl    c      9.8017 *    -5.8810 *     7.8414 *  0.0000     2          
   501  Cl    c      9.8017 *    -5.8810 *    -7.8414 *  0.0000     2          
   502  Cl    c     13.7224 *     1.9603 *     0.0000 *  0.0000     2          
   503  Cl    c     13.7224 *    -1.9603 *     0.0000 *  0.0000     2          
   504  Li    c      1.9603 *     0.0000 *    13.7224 *  0.0000     2          
   505  Li    c      1.9603 *     0.0000 *   -13.7224 *  0.0000     2          
   506  Li    c      5.8810 *    -7.8414 *     9.8017 *  0.0000     2          
   507  Li    c      5.8810 *    -7.8414 *    -9.8017 *  0.0000     2          
   508  Li    c      9.8017 *    -7.8414 *     5.8810 *  0.0000     2          
   509  Li    c      9.8017 *    -7.8414 *    -5.8810 *  0.0000     2          
   510  Li    c     13.7224 *     0.0000 *    -1.9603 *  0.0000     2          
   511  Li    c     13.7224 *     0.0000 *     1.9603 *  0.0000     2          
   512  Li    c      0.0000       1.9603 *    13.7224 *  0.0000     1          
   513  Li    c      0.0000       1.9603 *   -13.7224 *  0.0000     1          
   514  Li    c      0.0000      13.7224 *    -1.9603 *  0.0000     1          
   515  Li    c      0.0000      13.7224 *     1.9603 *  0.0000     1          
   516  Li    c      0.0000      -1.9603 *    13.7224 *  0.0000     1          
   517  Li    c      0.0000      -1.9603 *   -13.7224 *  0.0000     1          
   518  Li    c      0.0000     -13.7224 *    -1.9603 *  0.0000     1          
   519  Li    c      0.0000     -13.7224 *     1.9603 *  0.0000     1          
   520  Li    c     -7.8414 *     5.8810 *     9.8017 *  0.0000     2          
   521  Li    c     -7.8414 *     5.8810 *    -9.8017 *  0.0000     2          
   522  Li    c     -7.8414 *     9.8017 *     5.8810 *  0.0000     2          
   523  Li    c     -7.8414 *     9.8017 *    -5.8810 *  0.0000     2          
   524  Li    c     -7.8414 *    -5.8810 *     9.8017 *  0.0000     2          
   525  Li    c     -7.8414 *    -5.8810 *    -9.8017 *  0.0000     2          
   526  Li    c     -7.8414 *    -9.8017 *     5.8810 *  0.0000     2          
   527  Li    c     -7.8414 *    -9.8017 *    -5.8810 *  0.0000     2          
   528  Cl    c      9.8017 *     9.8017 *     0.0000 *  0.0000     2          
   529  Cl    c      9.8017 *    -9.8017 *     0.0000 *  0.0000     2          
   530  Li    c      5.8810 *     7.8414 *     9.8017 *  0.0000     2          
   531  Li    c      5.8810 *     7.8414 *    -9.8017 *  0.0000     2          
   532  Li    c      9.8017 *     0.0000 *     9.8017 *  0.0000     2          
   533  Li    c      9.8017 *     0.0000 *    -9.8017 *  0.0000     2          
   534  Li    c      9.8017 *     7.8414 *     5.8810 *  0.0000     2          
   535  Li    c      9.8017 *     7.8414 *    -5.8810 *  0.0000     2          
   536  Li    c      0.0000       9.8017 *     9.8017 *  0.0000     1          
   537  Li    c      0.0000       9.8017 *    -9.8017 *  0.0000     1          
   538  Li    c      0.0000      -9.8017 *     9.8017 *  0.0000     1          
   539  Li    c      0.0000      -9.8017 *    -9.8017 *  0.0000     1          
   540  Li    c      0.0000      11.7620 *     7.8414 *  0.0000     1          
   541  Li    c      0.0000      11.7620 *    -7.8414 *  0.0000     1          
   542  Li    c      0.0000      -7.8414 *    11.7620 *  0.0000     1          
   543  Li    c      0.0000      -7.8414 *   -11.7620 *  0.0000     1          
   544  Li    c      0.0000     -11.7620 *     7.8414 *  0.0000     1          
   545  Li    c      0.0000     -11.7620 *    -7.8414 *  0.0000     1          
   546  Li    c     11.7620 *     0.0000 *     7.8414 *  0.0000     2          
   547  Li    c     11.7620 *     0.0000 *    -7.8414 *  0.0000     2          
   548  Li    c     11.7620 *    -7.8414 *     0.0000 *  0.0000     2          
   549  Li    c     -7.8414 *     0.0000 *    11.7620 *  0.0000     2          
   550  Li    c     -7.8414 *     0.0000 *   -11.7620 *  0.0000     2          
   551  Li    c     -7.8414 *    11.7620 *     0.0000 *  0.0000     2          
   552  Li    c     -7.8414 *   -11.7620 *     0.0000 *  0.0000     2          
   553  Li    c      0.0000       7.8414 *    11.7620 *  0.0000     1          
   554  Li    c      0.0000       7.8414 *   -11.7620 *  0.0000     1          
   555  Li    c     11.7620 *     7.8414 *     0.0000 *  0.0000     2          
   556  O     c     11.7620 *    -7.8414 *    -1.9603 *  0.0000     2          
   557  O     c     11.7620 *    -7.8414 *     1.9603 *  0.0000     2          
   558  O     c     -7.8414 *    11.7620 *    -1.9603 *  0.0000     2          
   559  O     c     -7.8414 *    11.7620 *     1.9603 *  0.0000     2          
   560  O     c     -7.8414 *   -11.7620 *    -1.9603 *  0.0000     2          
   561  O     c     -7.8414 *   -11.7620 *     1.9603 *  0.0000     2          
   562  O     c      0.0000       3.9207 *    13.7224 *  0.0000     1          
   563  O     c      0.0000       3.9207 *   -13.7224 *  0.0000     1          
   564  O     c      0.0000      -3.9207 *    13.7224 *  0.0000     1          
   565  O     c      0.0000      -3.9207 *   -13.7224 *  0.0000     1          
   566  O     c      3.9207 *     0.0000 *    13.7224 *  0.0000     2          
   567  O     c      3.9207 *     0.0000 *   -13.7224 *  0.0000     2          
   568  O     c     11.7620 *     7.8414 *    -1.9603 *  0.0000     2          
   569  O     c     11.7620 *     7.8414 *     1.9603 *  0.0000     2          
   570  Cl    c      1.9603 *    13.7224 *     3.9207 *  0.0000     2          
   571  Cl    c      1.9603 *    13.7224 *    -3.9207 *  0.0000     2          
   572  Cl    c      1.9603 *   -13.7224 *     3.9207 *  0.0000     2          
   573  Cl    c      1.9603 *   -13.7224 *    -3.9207 *  0.0000     2          
   574  Cl    c      5.8810 *     5.8810 *    11.7620 *  0.0000     2          
   575  Cl    c      5.8810 *     5.8810 *   -11.7620 *  0.0000     2          
   576  Cl    c      5.8810 *    -5.8810 *    11.7620 *  0.0000     2          
   577  Cl    c      5.8810 *    -5.8810 *   -11.7620 *  0.0000     2          
   578  Cl    c     13.7224 *     1.9603 *     3.9207 *  0.0000     2          
   579  Cl    c     13.7224 *     1.9603 *    -3.9207 *  0.0000     2          
   580  Cl    c     13.7224 *    -1.9603 *     3.9207 *  0.0000     2          
   581  Cl    c     13.7224 *    -1.9603 *    -3.9207 *  0.0000     2          
   582  Li    c      5.8810 *    11.7620 *     5.8810 *  0.0000     2          
   583  Li    c      5.8810 *    11.7620 *    -5.8810 *  0.0000     2          
   584  Li    c      5.8810 *   -11.7620 *     5.8810 *  0.0000     2          
   585  Li    c      5.8810 *   -11.7620 *    -5.8810 *  0.0000     2          
   586  Li    c     13.7224 *     3.9207 *    -1.9603 *  0.0000     2          
   587  Li    c     13.7224 *     3.9207 *     1.9603 *  0.0000     2          
   588  Li    c     13.7224 *    -3.9207 *    -1.9603 *  0.0000     2          
   589  Li    c     13.7224 *    -3.9207 *     1.9603 *  0.0000     2          
   590  Li    c      3.9207 *    13.7224 *    -1.9603 *  0.0000     2          
   591  Li    c      3.9207 *    13.7224 *     1.9603 *  0.0000     2          
   592  Li    c      3.9207 *   -13.7224 *    -1.9603 *  0.0000     2          
   593  Li    c      3.9207 *   -13.7224 *     1.9603 *  0.0000     2          
   594  Li    c     11.7620 *     5.8810 *     5.8810 *  0.0000     2          
   595  Li    c     11.7620 *     5.8810 *    -5.8810 *  0.0000     2          
   596  Li    c     11.7620 *    -5.8810 *     5.8810 *  0.0000     2          
   597  Li    c     11.7620 *    -5.8810 *    -5.8810 *  0.0000     2          
   598  Cl    c      9.8017 *     9.8017 *     3.9207 *  0.0000     2          
   599  Cl    c      9.8017 *     9.8017 *    -3.9207 *  0.0000     2          
   600  Cl    c      9.8017 *    -9.8017 *     3.9207 *  0.0000     2          
   601  Cl    c      9.8017 *    -9.8017 *    -3.9207 *  0.0000     2          
   602  Li    c      1.9603 *     3.9207 *    13.7224 *  0.0000     2          
   603  Li    c      1.9603 *     3.9207 *   -13.7224 *  0.0000     2          
   604  Li    c      1.9603 *    -3.9207 *    13.7224 *  0.0000     2          
   605  Li    c      1.9603 *    -3.9207 *   -13.7224 *  0.0000     2          
   606  Li    c      3.9207 *     1.9603 *    13.7224 *  0.0000     2          
   607  Li    c      3.9207 *     1.9603 *   -13.7224 *  0.0000     2          
   608  Li    c      3.9207 *    -1.9603 *    13.7224 *  0.0000     2          
   609  Li    c      3.9207 *    -1.9603 *   -13.7224 *  0.0000     2          
   610  Li    c      9.8017 *     3.9207 *     9.8017 *  0.0000     2          
   611  Li    c      9.8017 *     3.9207 *    -9.8017 *  0.0000     2          
   612  Li    c      9.8017 *    -3.9207 *     9.8017 *  0.0000     2          
   613  Li    c      9.8017 *    -3.9207 *    -9.8017 *  0.0000     2          
   614  Li    c      3.9207 *     9.8017 *     9.8017 *  0.0000     2          
   615  Li    c      3.9207 *     9.8017 *    -9.8017 *  0.0000     2          
   616  Li    c      3.9207 *    -9.8017 *     9.8017 *  0.0000     2          
   617  Li    c      3.9207 *    -9.8017 *    -9.8017 *  0.0000     2          
   618  Li    c      3.9207 *    11.7620 *     7.8414 *  0.0000     2          
   619  Li    c      3.9207 *    11.7620 *    -7.8414 *  0.0000     2          
   620  Li    c      3.9207 *    -7.8414 *    11.7620 *  0.0000     2          
   621  Li    c      3.9207 *    -7.8414 *   -11.7620 *  0.0000     2          
   622  Li    c      3.9207 *   -11.7620 *     7.8414 *  0.0000     2          
   623  Li    c      3.9207 *   -11.7620 *    -7.8414 *  0.0000     2          
   624  Li    c     11.7620 *     3.9207 *     7.8414 *  0.0000     2          
   625  Li    c     11.7620 *     3.9207 *    -7.8414 *  0.0000     2          
   626  Li    c     11.7620 *    -3.9207 *     7.8414 *  0.0000     2          
   627  Li    c     11.7620 *    -3.9207 *    -7.8414 *  0.0000     2          
   628  Li    c     11.7620 *    -7.8414 *     3.9207 *  0.0000     2          
   629  Li    c     11.7620 *    -7.8414 *    -3.9207 *  0.0000     2          
   630  Li    c     -7.8414 *     3.9207 *    11.7620 *  0.0000     2          
   631  Li    c     -7.8414 *     3.9207 *   -11.7620 *  0.0000     2          
   632  Li    c     -7.8414 *    11.7620 *     3.9207 *  0.0000     2          
   633  Li    c     -7.8414 *    11.7620 *    -3.9207 *  0.0000     2          
   634  Li    c     -7.8414 *    -3.9207 *    11.7620 *  0.0000     2          
   635  Li    c     -7.8414 *    -3.9207 *   -11.7620 *  0.0000     2          
   636  Li    c     -7.8414 *   -11.7620 *     3.9207 *  0.0000     2          
   637  Li    c     -7.8414 *   -11.7620 *    -3.9207 *  0.0000     2          
   638  Li    c      3.9207 *     7.8414 *    11.7620 *  0.0000     2          
   639  Li    c      3.9207 *     7.8414 *   -11.7620 *  0.0000     2          
   640  Li    c     11.7620 *     7.8414 *     3.9207 *  0.0000     2          
   641  Li    c     11.7620 *     7.8414 *    -3.9207 *  0.0000     2          
   642  O     c      3.9207 *     3.9207 *    13.7224 *  0.0000     2          
   643  O     c      3.9207 *     3.9207 *   -13.7224 *  0.0000     2          
   644  O     c      3.9207 *    -3.9207 *    13.7224 *  0.0000     2          
   645  O     c      3.9207 *    -3.9207 *   -13.7224 *  0.0000     2          
   646  O     c      7.8414 *     7.8414 *     9.8017 *  0.0000     2          
   647  O     c      7.8414 *     7.8414 *    -9.8017 *  0.0000     2          
   648  O     c      7.8414 *    -7.8414 *     9.8017 *  0.0000     2          
   649  O     c      7.8414 *    -7.8414 *    -9.8017 *  0.0000     2          
   650  Cl    c      5.8810 *    13.7224 *     0.0000 *  0.0000     2          
   651  Cl    c      5.8810 *   -13.7224 *     0.0000 *  0.0000     2          
   652  Cl    c     13.7224 *     5.8810 *     0.0000 *  0.0000     2          
   653  Cl    c     13.7224 *    -5.8810 *     0.0000 *  0.0000     2          
   654  Li    c      5.8810 *     0.0000 *    13.7224 *  0.0000     2          
   655  Li    c      5.8810 *     0.0000 *   -13.7224 *  0.0000     2          
   656  Li    c     13.7224 *     0.0000 *     5.8810 *  0.0000     2          
   657  Li    c     13.7224 *     0.0000 *    -5.8810 *  0.0000     2          
   658  Li    c      0.0000       5.8810 *    13.7224 *  0.0000     1          
   659  Li    c      0.0000       5.8810 *   -13.7224 *  0.0000     1          
   660  Li    c      0.0000      13.7224 *     5.8810 *  0.0000     1          
   661  Li    c      0.0000      13.7224 *    -5.8810 *  0.0000     1          
   662  Li    c      0.0000      -5.8810 *    13.7224 *  0.0000     1          
   663  Li    c      0.0000      -5.8810 *   -13.7224 *  0.0000     1          
   664  Li    c      0.0000     -13.7224 *     5.8810 *  0.0000     1          
   665  Li    c      0.0000     -13.7224 *    -5.8810 *  0.0000     1          
   666  O     c     11.7620 *    -7.8414 *     5.8810 *  0.0000     2          
   667  O     c     11.7620 *    -7.8414 *    -5.8810 *  0.0000     2          
   668  O     c     -7.8414 *    11.7620 *     5.8810 *  0.0000     2          
   669  O     c     -7.8414 *    11.7620 *    -5.8810 *  0.0000     2          
   670  O     c     -7.8414 *   -11.7620 *     5.8810 *  0.0000     2          
   671  O     c     -7.8414 *   -11.7620 *    -5.8810 *  0.0000     2          
   672  O     c      0.0000      11.7620 *     9.8017 *  0.0000     1          
   673  O     c      0.0000      11.7620 *    -9.8017 *  0.0000     1          
   674  O     c      0.0000     -11.7620 *     9.8017 *  0.0000     1          
   675  O     c      0.0000     -11.7620 *    -9.8017 *  0.0000     1          
   676  O     c     11.7620 *     0.0000 *     9.8017 *  0.0000     2          
   677  O     c     11.7620 *     0.0000 *    -9.8017 *  0.0000     2          
   678  O     c     11.7620 *     7.8414 *     5.8810 *  0.0000     2          
   679  O     c     11.7620 *     7.8414 *    -5.8810 *  0.0000     2          
   680  Cl    c      5.8810 *    13.7224 *     3.9207 *  0.0000     2          
   681  Cl    c      5.8810 *    13.7224 *    -3.9207 *  0.0000     2          
   682  Cl    c      5.8810 *   -13.7224 *     3.9207 *  0.0000     2          
   683  Cl    c      5.8810 *   -13.7224 *    -3.9207 *  0.0000     2          
   684  Cl    c     13.7224 *     5.8810 *     3.9207 *  0.0000     2          
   685  Cl    c     13.7224 *     5.8810 *    -3.9207 *  0.0000     2          
   686  Cl    c     13.7224 *    -5.8810 *     3.9207 *  0.0000     2          
   687  Cl    c     13.7224 *    -5.8810 *    -3.9207 *  0.0000     2          
   688  Li    c      1.9603 *    11.7620 *     9.8017 *  0.0000     2          
   689  Li    c      1.9603 *    11.7620 *    -9.8017 *  0.0000     2          
   690  Li    c      1.9603 *   -11.7620 *     9.8017 *  0.0000     2          
   691  Li    c      1.9603 *   -11.7620 *    -9.8017 *  0.0000     2          
   692  Li    c      5.8810 *    -3.9207 *    13.7224 *  0.0000     2          
   693  Li    c      5.8810 *    -3.9207 *   -13.7224 *  0.0000     2          
   694  Li    c      9.8017 *    11.7620 *    -1.9603 *  0.0000     2          
   695  Li    c      9.8017 *    11.7620 *     1.9603 *  0.0000     2          
   696  Li    c      9.8017 *   -11.7620 *    -1.9603 *  0.0000     2          
   697  Li    c      9.8017 *   -11.7620 *     1.9603 *  0.0000     2          
   698  Li    c     13.7224 *     3.9207 *     5.8810 *  0.0000     2          
   699  Li    c     13.7224 *     3.9207 *    -5.8810 *  0.0000     2          
[...]
   2037 y         15.682702     15.684450     0.001748    Cartesian    0.01
   2037 z        -11.762026    -11.765703    -0.003677    Cartesian    0.03
   2038 x          7.841351      7.842455     0.001104    Cartesian    0.01
   2038 y        -11.762026    -11.765319    -0.003292    Cartesian    0.03
   2038 z         11.762026     11.763873     0.001846    Cartesian    0.02
   2039 x          7.841351      7.842577     0.001226    Cartesian    0.02
   2039 y        -11.762026    -11.764941    -0.002914    Cartesian    0.02
   2039 z        -11.762026    -11.765272    -0.003245    Cartesian    0.03
   2040 x         15.682702     15.685571     0.002869    Cartesian    0.02
   2040 y          7.841351      7.841370     0.000019    Cartesian    0.00
   2040 z         11.762026     11.763618     0.001592    Cartesian    0.01
   2041 x         15.682702     15.685213     0.002511    Cartesian    0.02
   2041 y          7.841351      7.841796     0.000445    Cartesian    0.01
   2041 z        -11.762026    -11.765232    -0.003206    Cartesian    0.03
   2042 x         15.682702     15.685139     0.002437    Cartesian    0.02
   2042 y         -3.920675     -3.922083    -0.001407    Cartesian    0.04
   2042 z         11.762026     11.763554     0.001528    Cartesian    0.01
   2043 x         15.682702     15.685070     0.002368    Cartesian    0.02
   2043 y         -3.920675     -3.922197    -0.001521    Cartesian    0.04
   2043 z        -11.762026    -11.765193    -0.003167    Cartesian    0.03
   2044 x          7.841351      7.843346     0.001995    Cartesian    0.03
   2044 y         19.603377     19.608613     0.005235    Cartesian    0.03
   2044 z          3.920675      3.920891     0.000215    Cartesian    0.01
   2045 x          7.841351      7.843087     0.001736    Cartesian    0.02
   2045 y         19.603377     19.608182     0.004804    Cartesian    0.02
   2045 z         -3.920675     -3.922851    -0.002176    Cartesian    0.06
   2046 x          7.841351      7.842553     0.001202    Cartesian    0.02
   2046 y        -15.682702    -15.687377    -0.004675    Cartesian    0.03
   2046 z          3.920675      3.920883     0.000208    Cartesian    0.01
   2047 x          7.841351      7.842564     0.001213    Cartesian    0.02
   2047 y        -15.682702    -15.687262    -0.004560    Cartesian    0.03
   2047 z         -3.920675     -3.922163    -0.001487    Cartesian    0.04
   2048 x         19.603377     19.607915     0.004537    Cartesian    0.02
   2048 y          7.841351      7.841752     0.000401    Cartesian    0.01
   2048 z          3.920675      3.920784     0.000108    Cartesian    0.00
   2049 x         19.603377     19.607674     0.004296    Cartesian    0.02
   2049 y          7.841351      7.841778     0.000427    Cartesian    0.01
   2049 z         -3.920675     -3.922075    -0.001399    Cartesian    0.04
   2050 x         19.603377     19.607459     0.004082    Cartesian    0.02
   2050 y         -3.920675     -3.922190    -0.001514    Cartesian    0.04
   2050 z          3.920675      3.920725     0.000049    Cartesian    0.00
   2051 x         19.603377     19.607317     0.003940    Cartesian    0.02
   2051 y         -3.920675     -3.922194    -0.001519    Cartesian    0.04
   2051 z         -3.920675     -3.921960    -0.001284    Cartesian    0.03
   2052 x          1.960338      1.960338     0.000000    Cartesian    0.00
   2052 y          9.801689      9.802318     0.000629    Cartesian    0.01
   2052 z         17.643040     17.644423     0.001384    Cartesian    0.01
   2053 x          1.960338      1.960338     0.000000    Cartesian    0.00
   2053 y          9.801689      9.802391     0.000702    Cartesian    0.01
   2053 z        -17.643040    -17.644834    -0.001794    Cartesian    0.01
   2054 x          1.960338      1.960338     0.000000    Cartesian    0.00
   2054 y         -5.881013     -5.882106    -0.001093    Cartesian    0.02
   2054 z         17.643040     17.644392     0.001352    Cartesian    0.01
   2055 x          1.960338      1.960338     0.000000    Cartesian    0.00
   2055 y         -5.881013     -5.881953    -0.000939    Cartesian    0.02
   2055 z        -17.643040    -17.644959    -0.001920    Cartesian    0.01
   2056 x          9.801689      9.802549     0.000860    Cartesian    0.01
   2056 y          1.960338      1.960083    -0.000255    Cartesian   -0.01
   2056 z         17.643040     17.644374     0.001335    Cartesian    0.01
   2057 x          9.801689      9.802517     0.000829    Cartesian    0.01
   2057 y          1.960338      1.960180    -0.000157    Cartesian   -0.01
   2057 z        -17.643040    -17.644882    -0.001843    Cartesian    0.01
   2058 x         13.722364     13.724440     0.002076    Cartesian    0.02
   2058 y         13.722364     13.723961     0.001597    Cartesian    0.01
   2058 z          9.801689      9.803287     0.001599    Cartesian    0.02
   2059 x         13.722364     13.724381     0.002016    Cartesian    0.01
   2059 y         13.722364     13.723964     0.001600    Cartesian    0.01
   2059 z         -9.801689     -9.803793    -0.002104    Cartesian    0.02
   2060 x         13.722364     13.724217     0.001853    Cartesian    0.01
   2060 y         -9.801689     -9.803570    -0.001881    Cartesian    0.02
   2060 z          9.801689      9.803067     0.001379    Cartesian    0.01
   2061 x         13.722364     13.724361     0.001996    Cartesian    0.01
   2061 y         -9.801689     -9.803706    -0.002017    Cartesian    0.02
   2061 z         -9.801689     -9.803699    -0.002010    Cartesian    0.02
   2062 x          7.841351      7.842896     0.001545    Cartesian    0.02
   2062 y         11.762026     11.763702     0.001676    Cartesian    0.01
   2062 z         15.682702     15.686358     0.003656    Cartesian    0.02
   2063 x          7.841351      7.842567     0.001216    Cartesian    0.02
   2063 y         11.762026     11.763501     0.001475    Cartesian    0.01
   2063 z        -15.682702    -15.686889    -0.004187    Cartesian    0.03
   2064 x          7.841351      7.842775     0.001424    Cartesian    0.02
   2064 y         -7.841351     -7.844291    -0.002940    Cartesian    0.04
   2064 z         15.682702     15.685868     0.003167    Cartesian    0.02
   2065 x          7.841351      7.842631     0.001280    Cartesian    0.02
   2065 y         -7.841351     -7.843867    -0.002516    Cartesian    0.03
   2065 z        -15.682702    -15.686660    -0.003958    Cartesian    0.03
   2066 x         11.762026     11.764556     0.002530    Cartesian    0.02
   2066 y          7.841351      7.841892     0.000541    Cartesian    0.01
   2066 z         15.682702     15.686129     0.003428    Cartesian    0.02
   2067 x         11.762026     11.764086     0.002060    Cartesian    0.02
   2067 y          7.841351      7.842036     0.000685    Cartesian    0.01
   2067 z        -15.682702    -15.686807    -0.004105    Cartesian    0.03
   2068 x         11.762026     11.764459     0.002433    Cartesian    0.02
   2068 y         -3.920675     -3.922608    -0.001933    Cartesian    0.05
   2068 z         15.682702     15.685840     0.003138    Cartesian    0.02
   2069 x         11.762026     11.764130     0.002103    Cartesian    0.02
   2069 y         -3.920675     -3.922316    -0.001641    Cartesian    0.04
   2069 z        -15.682702    -15.686648    -0.003946    Cartesian    0.03
   2070 x          3.920675      3.921401     0.000725    Cartesian    0.02
   2070 y         19.603377     19.609261     0.005883    Cartesian    0.03
   2070 z          7.841351      7.843387     0.002036    Cartesian    0.03
   2071 x          3.920675      3.921383     0.000707    Cartesian    0.02
   2071 y         19.603377     19.608456     0.005078    Cartesian    0.03
   2071 z         -7.841351     -7.844764    -0.003413    Cartesian    0.04
   2072 x          3.920675      3.921259     0.000583    Cartesian    0.01
   2072 y        -15.682702    -15.687992    -0.005290    Cartesian    0.03
   2072 z          7.841351      7.842656     0.001305    Cartesian    0.02
   2073 x          3.920675      3.921288     0.000612    Cartesian    0.02
   2073 y        -15.682702    -15.687713    -0.005011    Cartesian    0.03
   2073 z         -7.841351     -7.843926    -0.002575    Cartesian    0.03
   2074 x         15.682702     15.686017     0.003315    Cartesian    0.02
   2074 y         15.682702     15.685017     0.002315    Cartesian    0.01
   2074 z          0.000000     -0.000847    -0.000847    Cartesian    0.00
   2075 x         15.682702     15.685409     0.002707    Cartesian    0.02
   2075 y        -11.762026    -11.765185    -0.003158    Cartesian    0.03
   2075 z          0.000000     -0.000616    -0.000616    Cartesian    0.00
   2076 x         19.603377     19.608405     0.005028    Cartesian    0.03
   2076 y          3.920675      3.920625    -0.000050    Cartesian   -0.00
   2076 z          7.841351      7.842489     0.001138    Cartesian    0.01
   2077 x         19.603377     19.608014     0.004636    Cartesian    0.02
   2077 y          3.920675      3.920756     0.000080    Cartesian    0.00
   2077 z         -7.841351     -7.843760    -0.002409    Cartesian    0.03
   2078 x         19.603377     19.608245     0.004868    Cartesian    0.02
   2078 y          0.000000     -0.001053    -0.001053    Cartesian    0.00
   2078 z          7.841351      7.842499     0.001148    Cartesian    0.01
   2079 x         19.603377     19.607905     0.004528    Cartesian    0.02
   2079 y          0.000000     -0.001021    -0.001021    Cartesian    0.00
   2079 z         -7.841351     -7.843763    -0.002412    Cartesian    0.03
   2080 x         13.722364     13.723621     0.001257    Cartesian    0.01
   2080 y        -13.722364    -13.724170    -0.001806    Cartesian    0.01
   2080 z         -1.960338     -1.960616    -0.000278    Cartesian    0.01
   2081 x         13.722364     13.723627     0.001262    Cartesian    0.01
   2081 y        -13.722364    -13.724093    -0.001728    Cartesian    0.01
   2081 z          1.960338      1.960249    -0.000089    Cartesian   -0.00
   2082 x        -13.722364    -13.723958    -0.001594    Cartesian    0.01
   2082 y         13.722364     13.723288     0.000924    Cartesian    0.01
   2082 z         -1.960338     -1.960608    -0.000270    Cartesian    0.01
   2083 x        -13.722364    -13.723807    -0.001443    Cartesian    0.01
   2083 y         13.722364     13.723333     0.000969    Cartesian    0.01
   2083 z          1.960338      1.960220    -0.000118    Cartesian   -0.01
   2084 x        -13.722364    -13.723992    -0.001628    Cartesian    0.01
   2084 y         -9.801689     -9.802811    -0.001122    Cartesian    0.01
   2084 z         -1.960338     -1.960534    -0.000196    Cartesian    0.01
   2085 x        -13.722364    -13.723916    -0.001552    Cartesian    0.01
   2085 y         -9.801689     -9.802659    -0.000970    Cartesian    0.01
   2085 z          1.960338      1.960264    -0.000073    Cartesian   -0.00
   2086 x          5.881013      5.881951     0.000938    Cartesian    0.02
   2086 y          9.801689      9.802659     0.000970    Cartesian    0.01
   2086 z         17.643040     17.645227     0.002187    Cartesian    0.01
   2087 x          5.881013      5.881816     0.000803    Cartesian    0.01
   2087 y          9.801689      9.802587     0.000899    Cartesian    0.01
   2087 z        -17.643040    -17.645488    -0.002449    Cartesian    0.01
   2088 x          5.881013      5.881887     0.000874    Cartesian    0.01
   2088 y         -5.881013     -5.882395    -0.001382    Cartesian    0.02
   2088 z         17.643040     17.645151     0.002112    Cartesian    0.01
   2089 x          5.881013      5.881815     0.000802    Cartesian    0.01
   2089 y         -5.881013     -5.882244    -0.001231    Cartesian    0.02
   2089 z        -17.643040    -17.645483    -0.002443    Cartesian    0.01
   2090 x          9.801689      9.802905     0.001216    Cartesian    0.01
   2090 y          5.881013      5.881655     0.000642    Cartesian    0.01
   2090 z         17.643040     17.645179     0.002139    Cartesian    0.01
   2091 x          9.801689      9.802767     0.001078    Cartesian    0.01
   2091 y          5.881013      5.881648     0.000635    Cartesian    0.01
   2091 z        -17.643040    -17.645480    -0.002440    Cartesian    0.01
   2092 x          9.801689      9.803440     0.001751    Cartesian    0.02
   2092 y         13.722364     13.724006     0.001641    Cartesian    0.01
   2092 z         13.722364     13.724463     0.002099    Cartesian    0.02
   2093 x          9.801689      9.803226     0.001537    Cartesian    0.02
   2093 y         13.722364     13.723964     0.001600    Cartesian    0.01
   2093 z        -13.722364    -13.724586    -0.002222    Cartesian    0.02
   2094 x          9.801689      9.802875     0.001186    Cartesian    0.01
   2094 y         -1.960338     -1.961423    -0.001086    Cartesian    0.06
   2094 z         17.643040     17.645123     0.002083    Cartesian    0.01
   2095 x          9.801689      9.802783     0.001094    Cartesian    0.01
   2095 y         -1.960338     -1.961274    -0.000936    Cartesian    0.05
   2095 z        -17.643040    -17.645461    -0.002421    Cartesian    0.01
   2096 x          9.801689      9.803252     0.001563    Cartesian    0.02
   2096 y         -9.801689     -9.803633    -0.001944    Cartesian    0.02
   2096 z         13.722364     13.724251     0.001887    Cartesian    0.01
   2097 x          9.801689      9.803257     0.001568    Cartesian    0.02
   2097 y         -9.801689     -9.803638    -0.001949    Cartesian    0.02
   2097 z        -13.722364    -13.724655    -0.002291    Cartesian    0.02
   2098 x         13.722364     13.724278     0.001913    Cartesian    0.01
   2098 y          9.801689      9.802844     0.001155    Cartesian    0.01
   2098 z         13.722364     13.724251     0.001887    Cartesian    0.01
   2099 x         13.722364     13.724174     0.001810    Cartesian    0.01
   2099 y          9.801689      9.803001     0.001312    Cartesian    0.01
   2099 z        -13.722364    -13.724546    -0.002182    Cartesian    0.02
   2100 x         13.722364     13.724194     0.001829    Cartesian    0.01
   2100 y         -5.881013     -5.882585    -0.001572    Cartesian    0.03
   2100 z         13.722364     13.724167     0.001803    Cartesian    0.01
   2101 x         13.722364     13.724224     0.001860    Cartesian    0.01
   2101 y         -5.881013     -5.882615    -0.001602    Cartesian    0.03
   2101 z        -13.722364    -13.724614    -0.002249    Cartesian    0.02
   2102 x          1.960338      1.960338     0.000000    Cartesian    0.00
   2102 y         21.563715     21.564774     0.001059    Cartesian    0.00
   2102 z         -1.960338     -1.960646    -0.000308    Cartesian    0.02
   2103 x          1.960338      1.960338     0.000000    Cartesian    0.00
   2103 y         21.563715     21.564769     0.001054    Cartesian    0.00
   2103 z          1.960338      1.960026    -0.000312    Cartesian   -0.02
   2104 x          1.960338      1.960338     0.000000    Cartesian    0.00
   2104 y        -17.643040    -17.643998    -0.000958    Cartesian    0.01
   2104 z         -1.960338     -1.960449    -0.000112    Cartesian    0.01
   2105 x          1.960338      1.960338     0.000000    Cartesian    0.00
   2105 y        -17.643040    -17.643932    -0.000892    Cartesian    0.01
   2105 z          1.960338      1.960076    -0.000261    Cartesian   -0.01
   2106 x         13.722364     13.723825     0.001461    Cartesian    0.01
   2106 y         17.643040     17.644722     0.001682    Cartesian    0.01
   2106 z         -1.960338     -1.960715    -0.000377    Cartesian    0.02
   2107 x         13.722364     13.723591     0.001226    Cartesian    0.01
   2107 y         17.643040     17.644729     0.001690    Cartesian    0.01
   2107 z          1.960338      1.960168    -0.000170    Cartesian   -0.01
   2108 x         21.563715     21.564318     0.000603    Cartesian    0.00
   2108 y          1.960338      1.960224    -0.000113    Cartesian   -0.01
   2108 z         -1.960338     -1.960340    -0.000002    Cartesian    0.00
   2109 x         21.563715     21.564244     0.000529    Cartesian    0.00
   2109 y          1.960338      1.960275    -0.000063    Cartesian   -0.00
   2109 z          1.960338      1.960073    -0.000264    Cartesian   -0.01
   2110 x          3.920675      3.921238     0.000563    Cartesian    0.01
   2110 y          3.920675      3.920617    -0.000058    Cartesian   -0.00
   2110 z         19.603377     19.608711     0.005333    Cartesian    0.03
   2111 x          3.920675      3.921186     0.000511    Cartesian    0.01
   2111 y          3.920675      3.920758     0.000083    Cartesian    0.00
   2111 z        -19.603377    -19.608618    -0.005241    Cartesian    0.03
   2112 x          3.920675      3.921218     0.000543    Cartesian    0.01
   2112 y          0.000000     -0.001123    -0.001123    Cartesian    0.00
   2112 z         19.603377     19.608414     0.005037    Cartesian    0.03
   2113 x          3.920675      3.921149     0.000474    Cartesian    0.01
   2113 y          0.000000     -0.000876    -0.000876    Cartesian    0.00
   2113 z        -19.603377    -19.608436    -0.005059    Cartesian    0.03
   2114 x         15.682702     15.686614     0.003912    Cartesian    0.02
   2114 y         15.682702     15.685679     0.002977    Cartesian    0.02
   2114 z          3.920675      3.921179     0.000504    Cartesian    0.01
   2115 x         15.682702     15.686639     0.003937    Cartesian    0.03
   2115 y         15.682702     15.685727     0.003025    Cartesian    0.02
   2115 z         -3.920675     -3.922430    -0.001754    Cartesian    0.04
   2116 x         15.682702     15.685974     0.003272    Cartesian    0.02
   2116 y        -11.762026    -11.765725    -0.003698    Cartesian    0.03
   2116 z          3.920675      3.921180     0.000505    Cartesian    0.01
   2117 x         15.682702     15.686119     0.003417    Cartesian    0.02
   2117 y        -11.762026    -11.765769    -0.003742    Cartesian    0.03
   2117 z         -3.920675     -3.922132    -0.001456    Cartesian    0.04
--------------------------------------------------------------------------------


  Time to end of optimisation  =      419.8907 seconds


  Peak dynamic memory used =    1762.23 MB 


  Timing analysis for GULP :

--------------------------------------------------------------------------------
  Task / Subroutine                                          Time (Seconds)
--------------------------------------------------------------------------------
  Calculation of reciprocal space energy and derivatives          0.0002
  Calculation of reciprocal space energy using symmetry           0.0003
  Calculation of real space energy and derivatives                0.0019
  Calculation of real space energy using symmetry                 0.0041
  Calculation for region 1 energy and derivatives (2-b)         169.2444
  Calculation for region 2a energy                               53.6111
  Calculation for region 2b energy                                0.0030
  Calculation and manipulation of Hessian matrix                  1.8969
  Calculation of matrix inversion                               192.4867
  Symmetry generation of equivalent positions                     0.0021
--------------------------------------------------------------------------------
  Total CPU time                                                419.8908
--------------------------------------------------------------------------------


  Dump file written as Li3OCl.grs


  Job Finished at 15:28.00 23rd October    2020                               

