********************************************************************************
*                       GENERAL UTILITY LATTICE PROGRAM                        *
*                                 Julian Gale                                  *
*                       Curtin Institute for Computation                       *
*                    School of Molecular and Life Sciences                     *
*                    Curtin University, Western Australia                      *
********************************************************************************
* Version = 5.2.0 * Last modified =  10th September 2020                       *
********************************************************************************
*  optimise     - perform optimisation run                                     *
*  conp         - constant pressure calculation                                *
*  property     - calculate properties for final geometry                      *
*  defect       - perform defect calculation after bulk run                    *
*  compare      - compare initial and final structures                         *
********************************************************************************

  Job Started  at 12:08.20 23rd October    2020                               

  Number of CPUs =     1


  Total number of configurations input =      1

********************************************************************************
*  Input for Configuration =   1                                               *
********************************************************************************

  Formula = ClOLi3                                                      

  Number of irreducible atoms/shells =       5


  Total number atoms/shells =       7

  Dimensionality = 3               :  Bulk   


  Symmetry :

  Crystal family                   :  Cubic       
  Crystal class  (Groth - 1921)    :  Cubic Hexakisoctahedral              

  Space group (centrosymmetric)    :  P M 3 M         

  Patterson group                  :  P m -3 m 

  Cartesian lattice vectors (Angstroms) :

        3.918873    0.000000    0.000000
        0.000000    3.918873    0.000000
        0.000000    0.000000    3.918873

  Cell parameters (Angstroms/Degrees):

  a =       3.9189    alpha =  90.0000
  b =       3.9189    beta  =  90.0000
  c =       3.9189    gamma =  90.0000

  Initial cell volume =          60.184349 Angs**3

  Temperature of configuration =   0.00     K 

  Pressure of configuration =         0.000 GPa 

  Fractional coordinates of asymmetric unit :

--------------------------------------------------------------------------------
   No.  Atomic       x           y          z         Charge      Occupancy
        Label      (Frac)      (Frac)     (Frac)        (e)         (Frac)  
--------------------------------------------------------------------------------
      1 Cl    c    0.000000    0.000000    0.000000     1.48500    1.000000    
      2 O     c    0.500000    0.500000    0.500000     0.18300    1.000000    
      3 Li    c    0.500000    0.500000    0.000000     1.00000    1.000000    
      4 Cl    s    0.000000    0.000000    0.000000    -2.48500    1.000000    
      5 O     s    0.500000    0.500000    0.500000    -2.18300    1.000000    
--------------------------------------------------------------------------------


  Constraints : 

--------------------------------------------------------------------------------
  Constraint no.      Unconstrained     Constrained    Coefficient    Offset
                         Variable         Variable
--------------------------------------------------------------------------------
           1              Strain 1        Strain 2       1.00000      0.0000
           2              Strain 1        Strain 3       1.00000      0.0000
--------------------------------------------------------------------------------


********************************************************************************
*  General input information                                                   *
********************************************************************************

  Species output for all configurations : 

--------------------------------------------------------------------------------
  Species    Type    Atomic    Atomic    Charge       Radii (Angs)     Library
                     Number     Mass       (e)     Cova   Ionic  VDW   Symbol
--------------------------------------------------------------------------------
    Li       Core        3       6.94   1.000000   0.680  0.000  1.800          
    O        Core        8      16.00   0.183000   0.730  0.000  1.360          
    O        Shell       8       0.00  -2.183000   0.730  0.000  1.360          
    Cl       Core       17      35.45   1.485000   0.990  0.000  1.650          
    Cl       Shell      17       0.00  -2.485000   0.990  0.000  1.650          
--------------------------------------------------------------------------------


  Lattice summation method               =    Ewald          (3-D)
                                         =    Parry          (2-D)
                                         =    Saunders et al (1-D)
  Accuracy factor for lattice sums       =   12.000


  Analytic derivatives to be used

  Time limit = Infinity

  Maximum range for interatomic potentials =    100000.000000 Angstroms

  General interatomic potentials :

--------------------------------------------------------------------------------
Atom  Types   Potential      Parameter       Value         Units   Cutoffs(Ang)
  1     2                                                            Min /  Max 
--------------------------------------------------------------------------------
O    c O    s Spring (c-s)  Spring k 2       593.72000    eV*Ang^-2 0.000  0.800
                            Spring k 4       0.0000000    eV*Ang^-4 
--------------------------------------------------------------------------------
Cl   c Cl   s Spring (c-s)  Spring k 2       29.380000    eV*Ang^-2 0.000  0.800
                            Spring k 4       0.0000000    eV*Ang^-4 
--------------------------------------------------------------------------------
Li   c Li   c Buckingham    Buckingham A     360.53000    eV        0.000 12.000
                            Buckingham rho  0.16100000    Ang       
                            Buckingham C     0.0000000    eV*Ang^6  
--------------------------------------------------------------------------------
Li   c O    s Buckingham    Buckingham A     292.30000    eV        0.000 12.000
                            Buckingham rho  0.34720000    Ang       
                            Buckingham C     0.0000000    eV*Ang^6  
--------------------------------------------------------------------------------
Li   c Cl   s Buckingham    Buckingham A     421.04000    eV        0.000 12.000
                            Buckingham rho  0.33400000    Ang       
                            Buckingham C     0.0000000    eV*Ang^6  
--------------------------------------------------------------------------------
O    s O    s Buckingham    Buckingham A     22764.300    eV        0.000 12.000
                            Buckingham rho  0.14900000    Ang       
                            Buckingham C     13.190000    eV*Ang^6  
--------------------------------------------------------------------------------
O    s Cl   s Buckingham    Buckingham A     8286.9100    eV        0.000 12.000
                            Buckingham rho  0.25900000    Ang       
                            Buckingham C     62.200000    eV*Ang^6  
--------------------------------------------------------------------------------
Cl   s Cl   s Buckingham    Buckingham A     1227.2000    eV        0.000 12.000
                            Buckingham rho  0.32100000    Ang       
                            Buckingham C     14.530000    eV*Ang^6  
--------------------------------------------------------------------------------

********************************************************************************
*  Output for configuration   1                                                *
********************************************************************************


  Components of energy : 

--------------------------------------------------------------------------------
  Interatomic potentials     =           7.26836263 eV    
  Monopole - monopole (real) =         -11.53475722 eV    
  Monopole - monopole (recip)=         -33.94580548 eV    
  Monopole - monopole (total)=         -45.48056271 eV    
--------------------------------------------------------------------------------
  Total lattice energy       =         -38.21220008 eV    
--------------------------------------------------------------------------------
  Total lattice energy       =           -3686.8932 kJ/(mole unit cells)
--------------------------------------------------------------------------------


  Number of variables =        1

  Maximum number of calculations  =          1000
  Maximum Hessian update interval =            10
  Maximum step size               =   1.000000000
  Maximum parameter tolerance     =   0.000010000
  Maximum function  tolerance     =   0.000010000
  Maximum gradient  tolerance     =   0.001000000
  Maximum gradient  component     =   0.010000000

  Symmetry constrained optimisation

  Symmetry used for second derivatives

  Cell parameters to be optimised using strains

  Newton-Raphson optimiser to be used

  BFGS hessian update to be used

  Lower half triangular hessian to be used

  Start of bulk optimisation :

  Cycle:      0 Energy:       -38.212200  Gnorm:      0.095699  CPU:    0.009
  ** Hessian calculated **
  Cycle:      1 Energy:       -38.212222  Gnorm:      0.000105  CPU:    0.010


  **** Optimisation achieved ****


  Final energy =     -38.21222207 eV
  Final Gnorm  =       0.00000016

  Components of energy : 

--------------------------------------------------------------------------------
  Interatomic potentials     =           7.24743141 eV    
  Monopole - monopole (real) =         -11.52945423 eV    
  Monopole - monopole (recip)=         -33.93019924 eV    
  Monopole - monopole (total)=         -45.45965348 eV    
--------------------------------------------------------------------------------
  Total lattice energy       =         -38.21222207 eV    
--------------------------------------------------------------------------------
  Total lattice energy       =           -3686.8953 kJ/(mole unit cells)
--------------------------------------------------------------------------------

  Final asymmetric unit coordinates :

--------------------------------------------------------------------------------
   No.  Atomic        x           y           z         Radius
        Label       (Frac)      (Frac)      (Frac)       (Angs) 
--------------------------------------------------------------------------------
     1  Cl    c     0.000000    0.000000    0.000000    0.000000
     2  O     c     0.500000    0.500000    0.500000    0.000000
     3  Li    c     0.500000    0.500000    0.000000    0.000000
     4  Cl    s     0.000000    0.000000    0.000000    0.000000
     5  O     s     0.500000    0.500000    0.500000    0.000000
--------------------------------------------------------------------------------

  Final Cartesian lattice vectors (Angstroms) :

        3.920675    0.000000    0.000000
        0.000000    3.920675    0.000000
        0.000000    0.000000    3.920675


  Final cell parameters and derivatives :

--------------------------------------------------------------------------------
       a            3.920675 Angstrom     dE/de1(xx)    -0.000000 eV/strain
       b            3.920675 Angstrom     dE/de2(yy)     0.000000 eV/strain
       c            3.920675 Angstrom     dE/de3(zz)     0.000000 eV/strain
       alpha       90.000000 Degrees      dE/de4(yz)     0.000000 eV/strain
       beta        90.000000 Degrees      dE/de5(xz)     0.000000 eV/strain
       gamma       90.000000 Degrees      dE/de6(xy)     0.000000 eV/strain
--------------------------------------------------------------------------------

  Primitive cell volume =            60.267433 Angs**3

  Density of cell =      1.991276 g/cm**3

  Non-primitive cell volume =            60.267433 Angs**3


  Final internal derivatives :

--------------------------------------------------------------------------------
   No.  Atomic          a             b             c           Radius
        Label          (eV)          (eV)          (eV)        (eV/Angs)
--------------------------------------------------------------------------------
      1 Cl    c       0.000000      0.000000      0.000000      0.000000
      2 O     c       0.000000      0.000000      0.000000      0.000000
      3 Li    c       0.000000      0.000000      0.000000      0.000000
      4 Cl    s       0.000000      0.000000      0.000000      0.000000
      5 O     s       0.000000      0.000000      0.000000      0.000000
--------------------------------------------------------------------------------
  Maximum abs         0.000000      0.000000      0.000000      0.000000
--------------------------------------------------------------------------------

  Comparison of initial and final structures : 

--------------------------------------------------------------------------------
  Parameter   Initial value   Final value   Difference    Units      Percent
--------------------------------------------------------------------------------
    Volume        60.184349     60.267433     0.083084    Angs**3      0.14
    a              3.918873      3.920675     0.001802    Angstroms    0.05
    b              3.918873      3.920675     0.001802    Angstroms    0.05
    c              3.918873      3.920675     0.001802    Angstroms    0.05
    alpha         90.000000     90.000000     0.000000    Degrees      0.00
    beta          90.000000     90.000000     0.000000    Degrees      0.00
    gamma         90.000000     90.000000     0.000000    Degrees      0.00
      1 x          0.000000      0.000000     0.000000    Fractional   0.00
      1 y          0.000000      0.000000     0.000000    Fractional   0.00
      1 z          0.000000      0.000000     0.000000    Fractional   0.00
      2 x          0.500000      0.500000     0.000000    Fractional   0.00
      2 y          0.500000      0.500000     0.000000    Fractional   0.00
      2 z          0.500000      0.500000     0.000000    Fractional   0.00
      3 x          0.500000      0.500000     0.000000    Fractional   0.00
      3 y          0.500000      0.500000     0.000000    Fractional   0.00
      3 z          0.000000      0.000000     0.000000    Fractional   0.00
      4 x          0.000000      0.000000     0.000000    Fractional   0.00
      4 y          0.000000      0.000000     0.000000    Fractional   0.00
      4 z          0.000000      0.000000     0.000000    Fractional   0.00
      5 x          0.500000      0.500000     0.000000    Fractional   0.00
      5 y          0.500000      0.500000     0.000000    Fractional   0.00
      5 z          0.500000      0.500000     0.000000    Fractional   0.00
--------------------------------------------------------------------------------


  Born effective charge tensors : 

-------------------------------------------------------------------------------
  Atom             x           y             z
-------------------------------------------------------------------------------
    1 Cl    x      -0.9489     -0.0000     -0.0000
            y      -0.0000     -0.9489     -0.0000
            z      -0.0000     -0.0000     -0.9489
-------------------------------------------------------------------------------
    2 O     x      -2.4688      0.0000      0.0000
            y       0.0000     -2.4688      0.0000
            z       0.0000      0.0000     -2.4688
-------------------------------------------------------------------------------
    3 Li    x       1.3129      0.0000     -0.0000
            y       0.0000      1.3129      0.0000
            z      -0.0000      0.0000      0.7919
-------------------------------------------------------------------------------




  Elastic Constant Matrix: (Units=GPa)

-------------------------------------------------------------------------------
  Indices      1         2         3         4         5         6    
-------------------------------------------------------------------------------
       1     94.3368   44.9178   44.9178    0.0000   -0.0000    0.0000
       2     44.9178   94.3368   44.9178   -0.0000    0.0000   -0.0000
       3     44.9178   44.9178   94.3368    0.0000   -0.0000    0.0000
       4      0.0000   -0.0000    0.0000   44.9178   -0.0000    0.0000
       5     -0.0000    0.0000   -0.0000   -0.0000   44.9178    0.0000
       6      0.0000   -0.0000    0.0000    0.0000    0.0000   44.9178
-------------------------------------------------------------------------------


  Elastic Compliance Matrix: (Units=1/GPa)

-------------------------------------------------------------------------------
  Indices      1         2         3         4         5         6    
-------------------------------------------------------------------------------
       1    0.015300 -0.004935 -0.004935 -0.000000  0.000000 -0.000000
       2   -0.004935  0.015300 -0.004935  0.000000 -0.000000  0.000000
       3   -0.004935 -0.004935  0.015300 -0.000000  0.000000 -0.000000
       4   -0.000000  0.000000 -0.000000  0.022263  0.000000 -0.000000
       5    0.000000 -0.000000  0.000000  0.000000  0.022263 -0.000000
       6   -0.000000  0.000000 -0.000000 -0.000000 -0.000000  0.022263
-------------------------------------------------------------------------------

  Mechanical properties :

-------------------------------------------------------------------------------
  Convention :                    Reuss         Voigt         Hill
-------------------------------------------------------------------------------
  Bulk  Modulus (GPa)     =      61.39080      61.39080      61.39080
  Shear Modulus (GPa)     =      33.84570      36.83448      35.34009
-------------------------------------------------------------------------------
  Velocity S-wave (km/s)  =       4.12274       4.30092       4.21277
  Velocity P-wave (km/s)  =       7.31386       7.44942       7.38195
-------------------------------------------------------------------------------
  Compressibility (1/GPa) =    0.01628909
-------------------------------------------------------------------------------
  Stress axis :                     x             y             z
-------------------------------------------------------------------------------
  Youngs Moduli (GPa)     =      65.35947      65.35947      65.35947
-------------------------------------------------------------------------------
  Poissons Ratio (x)      =                     0.32256       0.32256
  Poissons Ratio (y)      =       0.32256                     0.32256
  Poissons Ratio (z)      =       0.32256       0.32256
-------------------------------------------------------------------------------


  Piezoelectric Strain Matrix: (Units=C/m**2)

-------------------------------------------------------------------------------
  Indices      1         2         3         4         5         6    
-------------------------------------------------------------------------------
       x    -0.00000   0.00000   0.00000  -0.00000  -0.00000   0.00000
       y    -0.00000   0.00000   0.00000  -0.00000  -0.00000  -0.00000
       z     0.00000   0.00000   0.00000   0.00000  -0.00000  -0.00000
-------------------------------------------------------------------------------


  Piezoelectric Stress Matrix: (Units=10**-11 C/N)

-------------------------------------------------------------------------------
  Indices      1         2         3         4         5         6    
-------------------------------------------------------------------------------
       x    -0.00000   0.00000   0.00000  -0.00000  -0.00000   0.00000
       y    -0.00000   0.00000   0.00000  -0.00000  -0.00000  -0.00000
       z    -0.00000  -0.00000   0.00000   0.00000  -0.00000  -0.00000
-------------------------------------------------------------------------------


  Static dielectric constant tensor : 

-------------------------------------------------------------------------------
              x         y         z
-------------------------------------------------------------------------------
       x    12.11703   0.00000  -0.00000
       y     0.00000  12.11703  -0.00000
       z    -0.00000  -0.00000  12.11703
--------------------------------------------------------------------------------

  High frequency dielectric constant tensor : 

-------------------------------------------------------------------------------
              x         y         z
-------------------------------------------------------------------------------
       x     1.74104   0.00000   0.00000
       y     0.00000   1.74104   0.00000
       z     0.00000   0.00000   1.74104
-------------------------------------------------------------------------------

  Static refractive indices : 

-------------------------------------------------------------------------------
    1 =    3.48095      2 =    3.48095      3 =    3.48095
-------------------------------------------------------------------------------

  High frequency refractive indices : 

-------------------------------------------------------------------------------
    1 =    1.31948      2 =    1.31948      3 =    1.31948
-------------------------------------------------------------------------------


  Time to end of optimisation =       0.0142 seconds

********************************************************************************
*  Defect calculation for configuration   1 :                                  *
********************************************************************************

  Total number of defects =      3

  Total charge on defect  =  -1.00

  Defect centre is at   0.5000   0.1000   0.4000  Frac

  Region 1 radius =  20.0000      Number of ions =   3892

  Number of symmetry inequivalent region 1 ions  =   2109

  Region 2 radius =  24.0000      Number of ions =   2854

  Number of symmetry inequivalent region 2a ions =   1499

  Region 2a mode = 4 : screened electrostatics due to region 1 
                       neglect correction to region 1 forces from 2a
                       region 2a displacements based on defects only

  Region 2a ions will only interact with defects in region 1

  Vacancies:

--------------------------------------------------------------------------------
    Specification type     Symbol/Number         x          y          z
--------------------------------------------------------------------------------
    Fractional                               0.500000   0.500000   0.000000
    Fractional                               0.500000   0.000000   0.500000
--------------------------------------------------------------------------------

  Interstitials:

--------------------------------------------------------------------------------
    Specification type     Symbol/Number         x          y          z
--------------------------------------------------------------------------------
    Atom/Fractional         Li               0.500000   0.100000   0.400000
--------------------------------------------------------------------------------


  Symmetry reduced region 1 (Relative to defect centre) :

--------------------------------------------------------------------------------
   No.   Atomic       x            y             z       Radius  Multiplicity   
         Label      (Angs)       (Angs)        (Angs)    (Angs)     
--------------------------------------------------------------------------------
     1  Li    c      0.0000       0.0000       0.0000    0.0000     1    Defect
     2  O     c      0.0000       1.5683 *     0.3921 *  0.0000     1          
     3  O     c      0.0000      -2.3524 *     0.3921 *  0.0000     1          
     4  Cl    c      1.9603 *    -0.3921 *    -1.5683 *  0.0000     2          
     5  Li    c      1.9603 *     1.5683 *     0.3921 *  0.0000     2          
     6  Li    c      0.0000      -2.3524 *    -1.5683 *  0.0000     1          
     7  Li    c      0.0000       1.5683 *     2.3524 *  0.0000     1          
     8  Li    c      1.9603 *    -2.3524 *     0.3921 *  0.0000     2          
     9  Cl    c      1.9603 *    -0.3921 *     2.3524 *  0.0000     2          
    10  Li    c      0.0000      -2.3524 *     2.3524 *  0.0000     1          
    11  Li    c      0.0000       3.5286 *     0.3921 *  0.0000     1          
    12  Li    c      0.0000      -0.3921 *    -3.5286 *  0.0000     1          
    13  O     c      0.0000       1.5683 *    -3.5286 *  0.0000     1          
    14  Li    c     -3.9207 *    -0.3921 *     0.3921 *  0.0000     2          
    15  O     c      0.0000      -2.3524 *    -3.5286 *  0.0000     1          
    16  O     c     -3.9207 *     1.5683 *     0.3921 *  0.0000     2          
    17  Li    c      0.0000      -0.3921 *     4.3127 *  0.0000     1          
    18  Li    c      0.0000      -4.3127 *     0.3921 *  0.0000     1          
    19  Cl    c      1.9603 *     3.5286 *    -1.5683 *  0.0000     2          
    20  Li    c      1.9603 *     1.5683 *    -3.5286 *  0.0000     2          
    21  Li    c     -3.9207 *     1.5683 *    -1.5683 *  0.0000     2          
    22  O     c      0.0000       1.5683 *     4.3127 *  0.0000     1          
    23  O     c     -3.9207 *    -2.3524 *     0.3921 *  0.0000     2          
    24  Cl    c      1.9603 *     3.5286 *     2.3524 *  0.0000     2          
    25  Li    c      1.9603 *    -2.3524 *    -3.5286 *  0.0000     2          
    26  Li    c     -3.9207 *    -2.3524 *    -1.5683 *  0.0000     2          
    27  Li    c     -3.9207 *     1.5683 *     2.3524 *  0.0000     2          
    28  O     c      0.0000      -2.3524 *     4.3127 *  0.0000     1          
    29  Li    c      1.9603 *     1.5683 *     4.3127 *  0.0000     2          
    30  Cl    c      1.9603 *    -4.3127 *    -1.5683 *  0.0000     2          
    31  Li    c      0.0000       3.5286 *    -3.5286 *  0.0000     1          
    32  Li    c      3.9207 *    -2.3524 *     2.3524 *  0.0000     2          
    33  Li    c      1.9603 *    -2.3524 *     4.3127 *  0.0000     2          
    34  Cl    c      1.9603 *    -4.3127 *     2.3524 *  0.0000     2          
    35  Li    c      3.9207 *     3.5286 *     0.3921 *  0.0000     2          
    36  Li    c     -3.9207 *    -0.3921 *    -3.5286 *  0.0000     2          
    37  O     c      0.0000       5.4889 *     0.3921 *  0.0000     1          
    38  O     c     -3.9207 *     1.5683 *    -3.5286 *  0.0000     2          
    39  Li    c      0.0000       3.5286 *     4.3127 *  0.0000     1          
    40  Li    c      0.0000      -4.3127 *    -3.5286 *  0.0000     1          
    41  Li    c      0.0000       1.5683 *    -5.4889 *  0.0000     1          
    42  Li    c      0.0000       5.4889 *    -1.5683 *  0.0000     1          
    43  O     c      3.9207 *    -2.3524 *    -3.5286 *  0.0000     2          
    44  Li    c     -3.9207 *    -0.3921 *     4.3127 *  0.0000     2          
    45  Li    c     -3.9207 *    -4.3127 *     0.3921 *  0.0000     2          
    46  Cl    c      1.9603 *    -0.3921 *    -5.4889 *  0.0000     2          
    47  Li    c      1.9603 *     5.4889 *     0.3921 *  0.0000     2          
    48  Li    c      0.0000      -2.3524 *    -5.4889 *  0.0000     1          
    49  Li    c      0.0000       5.4889 *     2.3524 *  0.0000     1          
    50  O     c      3.9207 *     1.5683 *     4.3127 *  0.0000     2          
    51  Li    c      0.0000      -4.3127 *     4.3127 *  0.0000     1          
    52  Cl    c      5.8810 *    -0.3921 *    -1.5683 *  0.0000     2          
    53  Li    c      5.8810 *     1.5683 *     0.3921 *  0.0000     2          
    54  O     c      3.9207 *    -2.3524 *     4.3127 *  0.0000     2          
    55  O     c      0.0000      -6.2731 *     0.3921 *  0.0000     1          
    56  Cl    c      5.8810 *    -0.3921 *     2.3524 *  0.0000     2          
    57  Li    c      5.8810 *    -2.3524 *     0.3921 *  0.0000     2          
    58  Li    c      3.9207 *     3.5286 *    -3.5286 *  0.0000     2          
    59  Li    c      0.0000       1.5683 *     6.2731 *  0.0000     1          
    60  Li    c      0.0000      -6.2731 *    -1.5683 *  0.0000     1          
    61  O     c      0.0000       5.4889 *    -3.5286 *  0.0000     1          
    62  Cl    c      1.9603 *    -0.3921 *     6.2731 *  0.0000     2          
    63  Li    c      1.9603 *    -6.2731 *     0.3921 *  0.0000     2          
    64  Li    c      0.0000      -2.3524 *     6.2731 *  0.0000     1          
    65  Li    c      0.0000      -6.2731 *     2.3524 *  0.0000     1          
    66  O     c      3.9207 *     5.4889 *     0.3921 *  0.0000     2          
    67  Li    c      3.9207 *     3.5286 *     4.3127 *  0.0000     2          
    68  Cl    c      1.9603 *     3.5286 *    -5.4889 *  0.0000     2          
    69  Li    c     -3.9207 *    -4.3127 *    -3.5286 *  0.0000     2          
    70  Li    c      1.9603 *     5.4889 *    -3.5286 *  0.0000     2          
    71  Li    c      3.9207 *     1.5683 *    -5.4889 *  0.0000     2          
    72  Li    c      3.9207 *     5.4889 *    -1.5683 *  0.0000     2          
    73  O     c      0.0000       5.4889 *     4.3127 *  0.0000     1          
    74  Cl    c      5.8810 *     3.5286 *    -1.5683 *  0.0000     2          
    75  Li    c      5.8810 *     1.5683 *    -3.5286 *  0.0000     2          
    76  Li    c      3.9207 *     5.4889 *     2.3524 *  0.0000     2          
    77  Li    c     -3.9207 *    -2.3524 *    -5.4889 *  0.0000     2          
    78  O     c      0.0000      -6.2731 *    -3.5286 *  0.0000     1          
    79  Li    c     -3.9207 *    -4.3127 *     4.3127 *  0.0000     2          
    80  Cl    c      5.8810 *     3.5286 *     2.3524 *  0.0000     2          
    81  Li    c      1.9603 *     5.4889 *     4.3127 *  0.0000     2          
    82  Cl    c      1.9603 *    -4.3127 *    -5.4889 *  0.0000     2          
    83  Li    c      5.8810 *    -2.3524 *    -3.5286 *  0.0000     2          
    84  O     c     -3.9207 *    -6.2731 *     0.3921 *  0.0000     2          
    85  Li    c      5.8810 *     1.5683 *     4.3127 *  0.0000     2          
    86  Li    c      0.0000      -0.3921 *    -7.4493 *  0.0000     1          
    87  Li    c      0.0000       7.4493 *     0.3921 *  0.0000     1          
    88  Cl    c      5.8810 *    -4.3127 *    -1.5683 *  0.0000     2          
    89  Cl    c      1.9603 *     3.5286 *     6.2731 *  0.0000     2          
    90  Li    c      1.9603 *    -6.2731 *    -3.5286 *  0.0000     2          
    91  Li    c      3.9207 *     1.5683 *     6.2731 *  0.0000     2          
    92  Li    c     -3.9207 *    -6.2731 *    -1.5683 *  0.0000     2          
    93  O     c      0.0000       1.5683 *    -7.4493 *  0.0000     1          
    94  O     c      0.0000      -6.2731 *     4.3127 *  0.0000     1          
    95  O     c      3.9207 *     5.4889 *    -3.5286 *  0.0000     2          
    96  Li    c      5.8810 *    -2.3524 *     4.3127 *  0.0000     2          
    97  Cl    c      5.8810 *    -4.3127 *     2.3524 *  0.0000     2          
    98  Li    c      0.0000       5.4889 *    -5.4889 *  0.0000     1          
    99  Li    c     -3.9207 *    -6.2731 *     2.3524 *  0.0000     2          
   100  Li    c      3.9207 *    -2.3524 *     6.2731 *  0.0000     2          
   101  O     c      0.0000      -2.3524 *    -7.4493 *  0.0000     1          
   102  Cl    c      1.9603 *     7.4493 *    -1.5683 *  0.0000     2          
   103  Li    c      1.9603 *     1.5683 *    -7.4493 *  0.0000     2          
   104  Li    c      1.9603 *    -6.2731 *     4.3127 *  0.0000     2          
   105  Li    c     -7.8414 *    -0.3921 *     0.3921 *  0.0000     2          
   106  Cl    c      1.9603 *    -4.3127 *     6.2731 *  0.0000     2          
   107  O     c      3.9207 *     5.4889 *     4.3127 *  0.0000     2          
   108  O     c     -7.8414 *     1.5683 *     0.3921 *  0.0000     2          
   109  Cl    c      1.9603 *     7.4493 *     2.3524 *  0.0000     2          
   110  Li    c      1.9603 *    -2.3524 *    -7.4493 *  0.0000     2          
   111  Cl    c      5.8810 *    -0.3921 *    -5.4889 *  0.0000     2          
   112  Li    c      5.8810 *     5.4889 *     0.3921 *  0.0000     2          
   113  Li    c     -7.8414 *     1.5683 *    -1.5683 *  0.0000     2          
   114  O     c     -3.9207 *    -6.2731 *    -3.5286 *  0.0000     2          
   115  O     c     -7.8414 *    -2.3524 *     0.3921 *  0.0000     2          
   116  Li    c      0.0000       3.5286 *    -7.4493 *  0.0000     1          
   117  Li    c      0.0000      -0.3921 *     8.2334 *  0.0000     1          
   118  Li    c      0.0000       7.4493 *    -3.5286 *  0.0000     1          
   119  Li    c      0.0000      -8.2334 *     0.3921 *  0.0000     1          
   120  Li    c     -7.8414 *    -2.3524 *    -1.5683 *  0.0000     2          
   121  Li    c     -7.8414 *     1.5683 *     2.3524 *  0.0000     2          
   122  Li    c      0.0000       5.4889 *     6.2731 *  0.0000     1          
   123  Li    c      0.0000      -6.2731 *    -5.4889 *  0.0000     1          
   124  O     c      0.0000       1.5683 *     8.2334 *  0.0000     1          
   125  Li    c      3.9207 *    -0.3921 *    -7.4493 *  0.0000     2          
   126  Li    c      3.9207 *     7.4493 *     0.3921 *  0.0000     2          
   127  Li    c     -7.8414 *    -2.3524 *     2.3524 *  0.0000     2          
   128  O     c      0.0000      -2.3524 *     8.2334 *  0.0000     1          
   129  O     c      3.9207 *     1.5683 *    -7.4493 *  0.0000     2          
   130  O     c      3.9207 *    -6.2731 *     4.3127 *  0.0000     2          
   131  Li    c      0.0000       7.4493 *     4.3127 *  0.0000     1          
   132  Li    c      1.9603 *     1.5683 *     8.2334 *  0.0000     2          
   133  Li    c      0.0000      -4.3127 *    -7.4493 *  0.0000     1          
   134  Cl    c      1.9603 *    -8.2334 *    -1.5683 *  0.0000     2          
   135  Cl    c      5.8810 *    -0.3921 *     6.2731 *  0.0000     2          
   136  Li    c      5.8810 *    -6.2731 *     0.3921 *  0.0000     2          
   137  Li    c      7.8414 *    -0.3921 *    -3.5286 *  0.0000     2          
   138  Li    c     -7.8414 *     3.5286 *     0.3921 *  0.0000     2          
   139  Li    c      3.9207 *     5.4889 *    -5.4889 *  0.0000     2          
   140  O     c      3.9207 *    -2.3524 *    -7.4493 *  0.0000     2          
   141  O     c     -7.8414 *     1.5683 *    -3.5286 *  0.0000     2          
   142  Cl    c      5.8810 *     3.5286 *    -5.4889 *  0.0000     2          
   143  Li    c      1.9603 *    -2.3524 *     8.2334 *  0.0000     2          
   144  Li    c      5.8810 *     5.4889 *    -3.5286 *  0.0000     2          
   145  Cl    c      1.9603 *    -8.2334 *     2.3524 *  0.0000     2          
   146  Li    c      0.0000      -6.2731 *     6.2731 *  0.0000     1          
   147  O     c      7.8414 *    -2.3524 *    -3.5286 *  0.0000     2          
   148  Li    c     -7.8414 *    -0.3921 *     4.3127 *  0.0000     2          
   149  Li    c      0.0000       3.5286 *     8.2334 *  0.0000     1          
   150  Li    c      0.0000      -8.2334 *    -3.5286 *  0.0000     1          
   151  Li    c      7.8414 *    -4.3127 *     0.3921 *  0.0000     2          
   152  O     c     -7.8414 *     1.5683 *     4.3127 *  0.0000     2          
   153  Cl    c      5.8810 *    -4.3127 *    -5.4889 *  0.0000     2          
   154  Li    c      5.8810 *     5.4889 *     4.3127 *  0.0000     2          
   155  Li    c      3.9207 *    -0.3921 *     8.2334 *  0.0000     2          
   156  Li    c      3.9207 *     3.5286 *    -7.4493 *  0.0000     2          
   157  Li    c      3.9207 *     7.4493 *    -3.5286 *  0.0000     2          
   158  Li    c      3.9207 *    -8.2334 *     0.3921 *  0.0000     2          
   159  Li    c      3.9207 *     5.4889 *     6.2731 *  0.0000     2          
   160  Li    c     -3.9207 *    -6.2731 *    -5.4889 *  0.0000     2          
   161  O     c     -7.8414 *    -2.3524 *     4.3127 *  0.0000     2          
   162  O     c      0.0000       5.4889 *    -7.4493 *  0.0000     1          
   163  O     c      3.9207 *     1.5683 *     8.2334 *  0.0000     2          
   164  Li    c      0.0000      -8.2334 *     4.3127 *  0.0000     1          
   165  Li    c      0.0000      -4.3127 *     8.2334 *  0.0000     1          
   166  Cl    c      5.8810 *     3.5286 *     6.2731 *  0.0000     2          
   167  Li    c      5.8810 *    -6.2731 *    -3.5286 *  0.0000     2          
   168  Li    c      7.8414 *     3.5286 *    -3.5286 *  0.0000     2          
   169  O     c      0.0000       9.4096 *     0.3921 *  0.0000     1          
   170  O     c      3.9207 *    -2.3524 *     8.2334 *  0.0000     2          
   171  Cl    c      1.9603 *     7.4493 *    -5.4889 *  0.0000     2          
   172  Li    c      1.9603 *     5.4889 *    -7.4493 *  0.0000     2          
   173  Li    c      3.9207 *     7.4493 *     4.3127 *  0.0000     2          
   174  Li    c      3.9207 *    -4.3127 *    -7.4493 *  0.0000     2          
   175  Li    c      0.0000       1.5683 *    -9.4096 *  0.0000     1          
   176  Li    c      0.0000       9.4096 *    -1.5683 *  0.0000     1          
   177  O     c     -7.8414 *     5.4889 *     0.3921 *  0.0000     2          
   178  Cl    c      1.9603 *    -0.3921 *    -9.4096 *  0.0000     2          
   179  Li    c      5.8810 *    -6.2731 *     4.3127 *  0.0000     2          
   180  Li    c     -7.8414 *     3.5286 *     4.3127 *  0.0000     2          
   181  Cl    c      5.8810 *     7.4493 *    -1.5683 *  0.0000     2          
   182  Li    c      1.9603 *     9.4096 *     0.3921 *  0.0000     2          
   183  Li    c      5.8810 *     1.5683 *    -7.4493 *  0.0000     2          
   184  Cl    c      5.8810 *    -4.3127 *     6.2731 *  0.0000     2          
   185  Li    c      7.8414 *    -4.3127 *    -3.5286 *  0.0000     2          
   186  Li    c      0.0000      -2.3524 *    -9.4096 *  0.0000     1          
   187  Li    c      0.0000       9.4096 *     2.3524 *  0.0000     1          
   188  Li    c     -7.8414 *     1.5683 *    -5.4889 *  0.0000     2          
   189  Li    c     -7.8414 *     5.4889 *    -1.5683 *  0.0000     2          
   190  Li    c      3.9207 *    -6.2731 *     6.2731 *  0.0000     2          
   191  O     c      0.0000      -6.2731 *    -7.4493 *  0.0000     1          
   192  Cl    c      5.8810 *     7.4493 *     2.3524 *  0.0000     2          
   193  Li    c      5.8810 *    -2.3524 *    -7.4493 *  0.0000     2          
   194  Li    c      3.9207 *     3.5286 *     8.2334 *  0.0000     2          
   195  Li    c      3.9207 *    -8.2334 *    -3.5286 *  0.0000     2          
   196  Li    c     -7.8414 *    -2.3524 *    -5.4889 *  0.0000     2          
   197  Li    c     -7.8414 *     5.4889 *     2.3524 *  0.0000     2          
   198  O     c      0.0000       5.4889 *     8.2334 *  0.0000     1          
   199  Li    c      7.8414 *    -4.3127 *     4.3127 *  0.0000     2          
   200  Cl    c      1.9603 *     7.4493 *     6.2731 *  0.0000     2          
   201  Li    c      1.9603 *    -6.2731 *    -7.4493 *  0.0000     2          
   202  Cl    c      9.8017 *    -0.3921 *    -1.5683 *  0.0000     2          
   203  Li    c      9.8017 *     1.5683 *     0.3921 *  0.0000     2          
   204  O     c      0.0000       9.4096 *    -3.5286 *  0.0000     1          
   205  O     c      3.9207 *     5.4889 *    -7.4493 *  0.0000     2          
   206  O     c     -7.8414 *    -6.2731 *     0.3921 *  0.0000     2          
   207  Cl    c      1.9603 *    -8.2334 *    -5.4889 *  0.0000     2          
   208  Li    c      1.9603 *     5.4889 *     8.2334 *  0.0000     2          
   209  Li    c      3.9207 *    -4.3127 *     8.2334 *  0.0000     2          
   210  Li    c      3.9207 *    -8.2334 *     4.3127 *  0.0000     2          
   211  Cl    c      9.8017 *    -0.3921 *     2.3524 *  0.0000     2          
   212  Li    c      9.8017 *    -2.3524 *     0.3921 *  0.0000     2          
   213  Li    c     -7.8414 *     1.5683 *     6.2731 *  0.0000     2          
   214  Li    c     -7.8414 *    -6.2731 *    -1.5683 *  0.0000     2          
   215  O     c      0.0000     -10.1938 *     0.3921 *  0.0000     1          
   216  O     c      3.9207 *     9.4096 *     0.3921 *  0.0000     2          
   217  O     c      7.8414 *     5.4889 *    -3.5286 *  0.0000     2          
   218  Cl    c      1.9603 *     3.5286 *    -9.4096 *  0.0000     2          
   219  Li    c      1.9603 *     9.4096 *    -3.5286 *  0.0000     2          
   220  Cl    c      5.8810 *    -8.2334 *    -1.5683 *  0.0000     2          
   221  Li    c      5.8810 *     1.5683 *     8.2334 *  0.0000     2          
   222  Li    c      0.0000       1.5683 *    10.1938 *  0.0000     1          
   223  Li    c      0.0000     -10.1938 *    -1.5683 *  0.0000     1          
   224  Li    c      3.9207 *     1.5683 *    -9.4096 *  0.0000     2          
   225  Li    c      3.9207 *     9.4096 *    -1.5683 *  0.0000     2          
   226  Li    c     -7.8414 *    -2.3524 *     6.2731 *  0.0000     2          
   227  Li    c     -7.8414 *    -6.2731 *     2.3524 *  0.0000     2          
   228  O     c      0.0000       9.4096 *     4.3127 *  0.0000     1          
   229  O     c      0.0000      -6.2731 *     8.2334 *  0.0000     1          
   230  Cl    c      1.9603 *    -0.3921 *    10.1938 *  0.0000     2          
   231  Cl    c      5.8810 *    -8.2334 *     2.3524 *  0.0000     2          
   232  Li    c      1.9603 *   -10.1938 *     0.3921 *  0.0000     2          
   233  Li    c      5.8810 *    -2.3524 *     8.2334 *  0.0000     2          
   234  Li    c      3.9207 *    -2.3524 *    -9.4096 *  0.0000     2          
   235  Li    c      0.0000      -2.3524 *    10.1938 *  0.0000     1          
   236  Li    c      0.0000     -10.1938 *     2.3524 *  0.0000     1          
   237  Li    c      3.9207 *     9.4096 *     2.3524 *  0.0000     2          
   238  O     c     -7.8414 *     5.4889 *     4.3127 *  0.0000     2          
   239  O     c     -3.9207 *    -6.2731 *    -7.4493 *  0.0000     2          
   240  Cl    c      1.9603 *    -4.3127 *    -9.4096 *  0.0000     2          
   241  Li    c      1.9603 *     9.4096 *     4.3127 *  0.0000     2          
   242  Li    c      0.0000       7.4493 *    -7.4493 *  0.0000     1          
   243  Li    c      1.9603 *    -6.2731 *     8.2334 *  0.0000     2          
   244  Cl    c      1.9603 *    -8.2334 *     6.2731 *  0.0000     2          
   245  Cl    c      9.8017 *     3.5286 *    -1.5683 *  0.0000     2          
   246  Li    c      9.8017 *     1.5683 *    -3.5286 *  0.0000     2          
   247  O     c      3.9207 *     5.4889 *     8.2334 *  0.0000     2          
   248  O     c     -7.8414 *    -6.2731 *    -3.5286 *  0.0000     2          
   249  Cl    c      9.8017 *     3.5286 *     2.3524 *  0.0000     2          
   250  Li    c      9.8017 *    -2.3524 *    -3.5286 *  0.0000     2          
   251  O     c      0.0000     -10.1938 *    -3.5286 *  0.0000     1          
   252  O     c      3.9207 *     9.4096 *    -3.5286 *  0.0000     2          
   253  Li    c     -7.8414 *    -0.3921 *    -7.4493 *  0.0000     2          
   254  Li    c     -7.8414 *     7.4493 *     0.3921 *  0.0000     2          
   255  Cl    c      9.8017 *    -4.3127 *    -1.5683 *  0.0000     2          
   256  Li    c      9.8017 *     1.5683 *     4.3127 *  0.0000     2          
   257  Li    c      0.0000       5.4889 *    -9.4096 *  0.0000     1          
   258  Li    c      0.0000       9.4096 *    -5.4889 *  0.0000     1          
   259  O     c      3.9207 *   -10.1938 *     0.3921 *  0.0000     2          
   260  O     c      7.8414 *     1.5683 *    -7.4493 *  0.0000     2          
   261  O     c      7.8414 *    -6.2731 *     4.3127 *  0.0000     2          
   262  Cl    c      1.9603 *     3.5286 *    10.1938 *  0.0000     2          
   263  Cl    c      5.8810 *     7.4493 *    -5.4889 *  0.0000     2          
   264  Li    c      5.8810 *     5.4889 *    -7.4493 *  0.0000     2          
   265  Li    c      1.9603 *   -10.1938 *    -3.5286 *  0.0000     2          
   266  Li    c      9.8017 *    -2.3524 *     4.3127 *  0.0000     2          
   267  Cl    c      9.8017 *    -4.3127 *     2.3524 *  0.0000     2          
   268  Li    c     -3.9207 *     1.5683 *    10.1938 *  0.0000     2          
   269  Li    c      3.9207 *   -10.1938 *    -1.5683 *  0.0000     2          
   270  Li    c     -7.8414 *     5.4889 *    -5.4889 *  0.0000     2          
   271  O     c      0.0000     -10.1938 *     4.3127 *  0.0000     1          
   272  O     c      3.9207 *     9.4096 *     4.3127 *  0.0000     2          
   273  O     c     -7.8414 *    -2.3524 *    -7.4493 *  0.0000     2          
   274  O     c     -3.9207 *    -6.2731 *     8.2334 *  0.0000     2          
   275  Cl    c      5.8810 *    -0.3921 *    -9.4096 *  0.0000     2          
   276  Li    c      5.8810 *     9.4096 *     0.3921 *  0.0000     2          
   277  Li    c      0.0000       7.4493 *     8.2334 *  0.0000     1          
   278  Li    c      0.0000      -8.2334 *    -7.4493 *  0.0000     1          
   279  Li    c     -3.9207 *    -2.3524 *    10.1938 *  0.0000     2          
   280  Li    c      3.9207 *   -10.1938 *     2.3524 *  0.0000     2          
   281  Li    c      1.9603 *   -10.1938 *     4.3127 *  0.0000     2          
   282  Cl    c      1.9603 *    -4.3127 *    10.1938 *  0.0000     2          
   283  Li    c      3.9207 *     7.4493 *    -7.4493 *  0.0000     2          
   284  Cl    c      9.8017 *    -0.3921 *    -5.4889 *  0.0000     2          
   285  Li    c      9.8017 *     5.4889 *     0.3921 *  0.0000     2          
   286  Li    c      0.0000       9.4096 *     6.2731 *  0.0000     1          
   287  Li    c      0.0000      -6.2731 *    -9.4096 *  0.0000     1          
   288  Cl    c      5.8810 *     7.4493 *     6.2731 *  0.0000     2          
   289  Li    c      5.8810 *    -6.2731 *    -7.4493 *  0.0000     2          
   290  Li    c      0.0000      -0.3921 *   -11.3700 *  0.0000     1          
   291  Li    c      0.0000      11.3700 *     0.3921 *  0.0000     1          
   292  Li    c     -7.8414 *    -0.3921 *     8.2334 *  0.0000     2          
   293  Li    c     -7.8414 *     3.5286 *    -7.4493 *  0.0000     2          
   294  Li    c     -7.8414 *     7.4493 *    -3.5286 *  0.0000     2          
   295  Li    c     -7.8414 *    -8.2334 *     0.3921 *  0.0000     2          
   296  Li    c     -7.8414 *     5.4889 *     6.2731 *  0.0000     2          
   297  Li    c     -7.8414 *    -6.2731 *    -5.4889 *  0.0000     2          
   298  O     c      0.0000       1.5683 *   -11.3700 *  0.0000     1          
   299  O     c      3.9207 *   -10.1938 *    -3.5286 *  0.0000     2          
   300  O     c      7.8414 *     1.5683 *     8.2334 *  0.0000     2          
   301  Li    c      5.8810 *     5.4889 *     8.2334 *  0.0000     2          
   302  Cl    c      5.8810 *    -8.2334 *    -5.4889 *  0.0000     2          
   303  Li    c      0.0000       5.4889 *    10.1938 *  0.0000     1          
   304  Li    c      0.0000     -10.1938 *    -5.4889 *  0.0000     1          
   305  Li    c      3.9207 *     5.4889 *    -9.4096 *  0.0000     2          
   306  Li    c      3.9207 *     9.4096 *    -5.4889 *  0.0000     2          
   307  O     c      0.0000      -2.3524 *   -11.3700 *  0.0000     1          
   308  O     c     -7.8414 *    -2.3524 *     8.2334 *  0.0000     2          
   309  Cl    c      1.9603 *    11.3700 *    -1.5683 *  0.0000     2          
   310  Li    c     -7.8414 *     7.4493 *     4.3127 *  0.0000     2          
   311  Cl    c      5.8810 *     3.5286 *    -9.4096 *  0.0000     2          
   312  Li    c      1.9603 *     1.5683 *   -11.3700 *  0.0000     2          
   313  Li    c      5.8810 *     9.4096 *    -3.5286 *  0.0000     2          
   314  Li    c      0.0000      -8.2334 *     8.2334 *  0.0000     1          
   315  Li    c      7.8414 *    -4.3127 *    -7.4493 *  0.0000     2          
   316  Cl    c      9.8017 *    -0.3921 *     6.2731 *  0.0000     2          
   317  Li    c      9.8017 *    -6.2731 *     0.3921 *  0.0000     2          
   318  O     c      3.9207 *   -10.1938 *     4.3127 *  0.0000     2          
   319  Cl    c      1.9603 *    11.3700 *     2.3524 *  0.0000     2          
   320  Cl    c      5.8810 *    -0.3921 *    10.1938 *  0.0000     2          
   321  Li    c      1.9603 *    -2.3524 *   -11.3700 *  0.0000     2          
   322  Cl    c      9.8017 *     3.5286 *    -5.4889 *  0.0000     2          
   323  Li    c      5.8810 *   -10.1938 *     0.3921 *  0.0000     2          
   324  Li    c      9.8017 *     5.4889 *    -3.5286 *  0.0000     2          
   325  Li    c      3.9207 *     7.4493 *     8.2334 *  0.0000     2          
   326  Li    c      3.9207 *    -8.2334 *    -7.4493 *  0.0000     2          
   327  Li    c     11.7620 *    -0.3921 *     0.3921 *  0.0000     2          
   328  Li    c      7.8414 *    -6.2731 *     6.2731 *  0.0000     2          
   329  O     c     11.7620 *     1.5683 *     0.3921 *  0.0000     2          
   330  Cl    c      5.8810 *    -4.3127 *    -9.4096 *  0.0000     2          
   331  Li    c      5.8810 *     9.4096 *     4.3127 *  0.0000     2          
   332  Cl    c      5.8810 *    -8.2334 *     6.2731 *  0.0000     2          
   333  Li    c      5.8810 *    -6.2731 *     8.2334 *  0.0000     2          
   334  Li    c      0.0000       3.5286 *   -11.3700 *  0.0000     1          
   335  Li    c      0.0000      11.3700 *    -3.5286 *  0.0000     1          
   336  Li    c     -7.8414 *     3.5286 *     8.2334 *  0.0000     2          
   337  Li    c     -7.8414 *    -8.2334 *    -3.5286 *  0.0000     2          
   338  Li    c     11.7620 *     1.5683 *    -1.5683 *  0.0000     2          
   339  Li    c     -3.9207 *    -6.2731 *    -9.4096 *  0.0000     2          
   340  Li    c      0.0000      -6.2731 *    10.1938 *  0.0000     1          
   341  Li    c      0.0000     -10.1938 *     6.2731 *  0.0000     1          
   342  Li    c      3.9207 *     9.4096 *     6.2731 *  0.0000     2          
   343  O     c      0.0000       9.4096 *    -7.4493 *  0.0000     1          
   344  O     c     11.7620 *    -2.3524 *     0.3921 *  0.0000     2          
   345  Li    c      3.9207 *    -0.3921 *   -11.3700 *  0.0000     2          
   346  Li    c      3.9207 *    11.3700 *     0.3921 *  0.0000     2          
   347  Cl    c      9.8017 *    -4.3127 *    -5.4889 *  0.0000     2          
   348  Li    c      9.8017 *     5.4889 *     4.3127 *  0.0000     2          
   349  Li    c     11.7620 *    -2.3524 *    -1.5683 *  0.0000     2          
   350  Li    c     11.7620 *     1.5683 *     2.3524 *  0.0000     2          
   351  O     c      3.9207 *     1.5683 *   -11.3700 *  0.0000     2          
   352  O     c     -7.8414 *     5.4889 *    -7.4493 *  0.0000     2          
   353  Cl    c      1.9603 *     7.4493 *    -9.4096 *  0.0000     2          
   354  Li    c      0.0000      11.3700 *     4.3127 *  0.0000     1          
   355  Li    c     -7.8414 *    -8.2334 *     4.3127 *  0.0000     2          
   356  Li    c      1.9603 *     9.4096 *    -7.4493 *  0.0000     2          
   357  Li    c      0.0000      -0.3921 *    12.1541 *  0.0000     1          
   358  Li    c      0.0000      -4.3127 *   -11.3700 *  0.0000     1          
   359  Li    c      0.0000     -12.1541 *     0.3921 *  0.0000     1          
   360  Li    c      7.8414 *    -4.3127 *     8.2334 *  0.0000     2          
   361  Cl    c      9.8017 *     3.5286 *     6.2731 *  0.0000     2          
   362  Li    c      9.8017 *    -6.2731 *    -3.5286 *  0.0000     2          
   363  Li    c      3.9207 *     5.4889 *    10.1938 *  0.0000     2          
   364  Li    c      3.9207 *   -10.1938 *    -5.4889 *  0.0000     2          
   365  Li    c     11.7620 *    -2.3524 *     2.3524 *  0.0000     2          
   366  O     c      0.0000       1.5683 *    12.1541 *  0.0000     1          
   367  O     c      3.9207 *    -2.3524 *   -11.3700 *  0.0000     2          
   368  O     c     -7.8414 *     9.4096 *     0.3921 *  0.0000     2          
   369  Cl    c      5.8810 *     3.5286 *    10.1938 *  0.0000     2          
   370  Li    c      5.8810 *   -10.1938 *    -3.5286 *  0.0000     2          
   371  Li    c      3.9207 *    -8.2334 *     8.2334 *  0.0000     2          
   372  Li    c     11.7620 *    -0.3921 *    -3.5286 *  0.0000     2          
   373  Li    c     11.7620 *     3.5286 *     0.3921 *  0.0000     2          
   374  Li    c     -7.8414 *     9.4096 *    -1.5683 *  0.0000     2          
   375  Li    c      7.8414 *     1.5683 *    -9.4096 *  0.0000     2          
   376  O     c      0.0000      -2.3524 *    12.1541 *  0.0000     1          
   377  O     c     11.7620 *     1.5683 *    -3.5286 *  0.0000     2          
   378  Cl    c      1.9603 *   -12.1541 *    -1.5683 *  0.0000     2          
   379  Cl    c      9.8017 *     7.4493 *    -1.5683 *  0.0000     2          
   380  Li    c      1.9603 *     1.5683 *    12.1541 *  0.0000     2          
   381  Li    c      9.8017 *    -6.2731 *     4.3127 *  0.0000     2          
   382  Cl    c      9.8017 *    -4.3127 *     6.2731 *  0.0000     2          
   383  Li    c      9.8017 *     1.5683 *    -7.4493 *  0.0000     2          
   384  Li    c      7.8414 *    -2.3524 *    -9.4096 *  0.0000     2          
   385  Li    c     -7.8414 *     9.4096 *     2.3524 *  0.0000     2          
   386  O     c      0.0000       9.4096 *     8.2334 *  0.0000     1          
   387  O     c      7.8414 *    -6.2731 *    -7.4493 *  0.0000     2          
   388  O     c     11.7620 *    -2.3524 *    -3.5286 *  0.0000     2          
   389  Cl    c      1.9603 *   -12.1541 *     2.3524 *  0.0000     2          
   390  Cl    c      5.8810 *    -4.3127 *    10.1938 *  0.0000     2          
   391  Li    c      1.9603 *    -2.3524 *    12.1541 *  0.0000     2          
   392  Li    c      5.8810 *   -10.1938 *     4.3127 *  0.0000     2          
   393  Li    c      3.9207 *     3.5286 *   -11.3700 *  0.0000     2          
   394  Li    c      3.9207 *    11.3700 *    -3.5286 *  0.0000     2          
   395  Li    c     11.7620 *    -0.3921 *     4.3127 *  0.0000     2          
   396  Li    c     11.7620 *    -4.3127 *     0.3921 *  0.0000     2          
   397  Cl    c      9.8017 *     7.4493 *     2.3524 *  0.0000     2          
   398  Li    c      9.8017 *    -2.3524 *    -7.4493 *  0.0000     2          
   399  Li    c      3.9207 *    -6.2731 *    10.1938 *  0.0000     2          
   400  Li    c      3.9207 *   -10.1938 *     6.2731 *  0.0000     2          
   401  O     c      0.0000     -10.1938 *    -7.4493 *  0.0000     1          
   402  O     c      3.9207 *     9.4096 *    -7.4493 *  0.0000     2          
   403  O     c     11.7620 *     1.5683 *     4.3127 *  0.0000     2          
   404  O     c      0.0000       5.4889 *   -11.3700 *  0.0000     1          
   405  O     c     -7.8414 *     5.4889 *     8.2334 *  0.0000     2          
   406  Cl    c      1.9603 *    -8.2334 *    -9.4096 *  0.0000     2          
   407  Li    c      1.9603 *     9.4096 *     8.2334 *  0.0000     2          
   408  Li    c      0.0000       3.5286 *    12.1541 *  0.0000     1          
   409  Li    c      0.0000     -12.1541 *    -3.5286 *  0.0000     1          
   410  O     c     11.7620 *    -2.3524 *     4.3127 *  0.0000     2          
   411  O     c     -7.8414 *     9.4096 *    -3.5286 *  0.0000     2          
   412  Li    c      3.9207 *    11.3700 *     4.3127 *  0.0000     2          
   413  Cl    c      1.9603 *     7.4493 *    10.1938 *  0.0000     2          
   414  Cl    c      1.9603 *    11.3700 *    -5.4889 *  0.0000     2          
   415  Li    c      1.9603 *     5.4889 *   -11.3700 *  0.0000     2          
   416  Li    c      1.9603 *   -10.1938 *    -7.4493 *  0.0000     2          
   417  Li    c      3.9207 *    -0.3921 *    12.1541 *  0.0000     2          
   418  Li    c      3.9207 *    -4.3127 *   -11.3700 *  0.0000     2          
   419  Li    c      3.9207 *   -12.1541 *     0.3921 *  0.0000     2          
   420  Li    c     11.7620 *     3.5286 *    -3.5286 *  0.0000     2          
   421  O     c      3.9207 *     1.5683 *    12.1541 *  0.0000     2          
   422  O     c      7.8414 *   -10.1938 *     0.3921 *  0.0000     2          
   423  Cl    c      5.8810 *    11.3700 *    -1.5683 *  0.0000     2          
   424  Li    c      5.8810 *     1.5683 *   -11.3700 *  0.0000     2          
   425  Li    c      0.0000      -4.3127 *    12.1541 *  0.0000     1          
   426  Li    c      0.0000     -12.1541 *     4.3127 *  0.0000     1          
   427  Cl    c      9.8017 *    -8.2334 *    -1.5683 *  0.0000     2          
   428  Li    c      9.8017 *     1.5683 *     8.2334 *  0.0000     2          
   429  Li    c      7.8414 *   -10.1938 *    -1.5683 *  0.0000     2          
   430  Li    c     -7.8414 *     1.5683 *    10.1938 *  0.0000     2          
   431  O     c     -7.8414 *     9.4096 *     4.3127 *  0.0000     2          
   432  O     c      0.0000      -6.2731 *   -11.3700 *  0.0000     1          
   433  O     c      3.9207 *    -2.3524 *    12.1541 *  0.0000     2          
   434  O     c      7.8414 *    -6.2731 *     8.2334 *  0.0000     2          
   435  O     c     11.7620 *     5.4889 *     0.3921 *  0.0000     2          
   436  Cl    c      5.8810 *    11.3700 *     2.3524 *  0.0000     2          
   437  Li    c      5.8810 *    -2.3524 *   -11.3700 *  0.0000     2          
   438  Li    c     11.7620 *     3.5286 *     4.3127 *  0.0000     2          
   439  Li    c     11.7620 *    -4.3127 *    -3.5286 *  0.0000     2          
   440  Cl    c      9.8017 *    -8.2334 *     2.3524 *  0.0000     2          
   441  Li    c      9.8017 *    -2.3524 *     8.2334 *  0.0000     2          
   442  Li    c      7.8414 *    -2.3524 *    10.1938 *  0.0000     2          
   443  Li    c      7.8414 *   -10.1938 *     2.3524 *  0.0000     2          
   444  Li    c     11.7620 *     1.5683 *    -5.4889 *  0.0000     2          
   445  Li    c     11.7620 *     5.4889 *    -1.5683 *  0.0000     2          
   446  O     c      0.0000     -10.1938 *     8.2334 *  0.0000     1          
   447  O     c      3.9207 *     9.4096 *     8.2334 *  0.0000     2          
   448  Cl    c      1.9603 *    11.3700 *     6.2731 *  0.0000     2          
   449  Li    c     -7.8414 *     7.4493 *    -7.4493 *  0.0000     2          
   450  Li    c      1.9603 *    -6.2731 *   -11.3700 *  0.0000     2          
   451  Li    c     11.7620 *    -2.3524 *    -5.4889 *  0.0000     2          
   452  Li    c     11.7620 *     5.4889 *     2.3524 *  0.0000     2          
   453  O     c      3.9207 *     5.4889 *   -11.3700 *  0.0000     2          
   454  O     c      3.9207 *   -10.1938 *    -7.4493 *  0.0000     2          
   455  Li    c     11.7620 *    -4.3127 *     4.3127 *  0.0000     2          
   456  Cl    c      1.9603 *    -8.2334 *    10.1938 *  0.0000     2          
   457  Li    c      1.9603 *   -10.1938 *     8.2334 *  0.0000     2          
   458  Li    c      3.9207 *     3.5286 *    12.1541 *  0.0000     2          
   459  Li    c      3.9207 *   -12.1541 *    -3.5286 *  0.0000     2          
   460  Li    c      0.0000       9.4096 *    -9.4096 *  0.0000     1          
   461  O     c      0.0000      13.3303 *     0.3921 *  0.0000     1          
   462  O     c      0.0000       5.4889 *    12.1541 *  0.0000     1          
   463  O     c      7.8414 *   -10.1938 *    -3.5286 *  0.0000     2          
   464  O     c     11.7620 *    -6.2731 *     0.3921 *  0.0000     2          
   465  Cl    c      5.8810 *     7.4493 *    -9.4096 *  0.0000     2          
   466  Li    c      5.8810 *     9.4096 *    -7.4493 *  0.0000     2          
   467  Li    c      0.0000       1.5683 *   -13.3303 *  0.0000     1          
   468  Li    c      0.0000      13.3303 *    -1.5683 *  0.0000     1          
   469  Li    c      7.8414 *     5.4889 *    -9.4096 *  0.0000     2          
   470  Li    c     11.7620 *     1.5683 *     6.2731 *  0.0000     2          
   471  Li    c     11.7620 *    -6.2731 *    -1.5683 *  0.0000     2          
   472  Li    c     -7.8414 *     9.4096 *    -5.4889 *  0.0000     2          
   473  O     c     11.7620 *     5.4889 *    -3.5286 *  0.0000     2          
   474  Cl    c      1.9603 *    -0.3921 *   -13.3303 *  0.0000     2          
   475  Li    c      1.9603 *    13.3303 *     0.3921 *  0.0000     2          
   476  Li    c      3.9207 *   -12.1541 *     4.3127 *  0.0000     2          
   477  Cl    c      1.9603 *   -12.1541 *    -5.4889 *  0.0000     2          
   478  Li    c      1.9603 *     5.4889 *    12.1541 *  0.0000     2          
   479  Li    c      9.8017 *     5.4889 *    -7.4493 *  0.0000     2          
   480  Li    c      3.9207 *    -4.3127 *    12.1541 *  0.0000     2          
   481  Cl    c      9.8017 *     7.4493 *    -5.4889 *  0.0000     2          
   482  Li    c      0.0000      -2.3524 *   -13.3303 *  0.0000     1          
   483  Li    c      0.0000      13.3303 *     2.3524 *  0.0000     1          
   484  Li    c     11.7620 *    -2.3524 *     6.2731 *  0.0000     2          
   485  Li    c     11.7620 *    -6.2731 *     2.3524 *  0.0000     2          
   486  O     c      7.8414 *   -10.1938 *     4.3127 *  0.0000     2          
   487  O     c     -3.9207 *    -6.2731 *   -11.3700 *  0.0000     2          
   488  Cl    c      5.8810 *   -12.1541 *    -1.5683 *  0.0000     2          
   489  Li    c      0.0000       7.4493 *   -11.3700 *  0.0000     1          
   490  Li    c      0.0000      11.3700 *    -7.4493 *  0.0000     1          
   491  Li    c     -7.8414 *     7.4493 *     8.2334 *  0.0000     2          
   492  Li    c     -7.8414 *    -8.2334 *    -7.4493 *  0.0000     2          
   493  Cl    c      9.8017 *    -0.3921 *    -9.4096 *  0.0000     2          
   494  Li    c      5.8810 *     1.5683 *    12.1541 *  0.0000     2          
   495  Li    c      9.8017 *     9.4096 *     0.3921 *  0.0000     2          
   496  O     c      0.0000      -6.2731 *    12.1541 *  0.0000     1          
   497  O     c      3.9207 *   -10.1938 *     8.2334 *  0.0000     2          
   498  O     c     11.7620 *     5.4889 *     4.3127 *  0.0000     2          
   499  Cl    c      5.8810 *   -12.1541 *     2.3524 *  0.0000     2          
   500  Li    c      5.8810 *    -2.3524 *    12.1541 *  0.0000     2          
   501  Li    c     -7.8414 *     9.4096 *     6.2731 *  0.0000     2          
   502  Li    c     -7.8414 *    -6.2731 *    -9.4096 *  0.0000     2          
   503  O     c      0.0000      13.3303 *    -3.5286 *  0.0000     1          
   504  O     c     11.7620 *    -6.2731 *    -3.5286 *  0.0000     2          
   505  Cl    c      1.9603 *   -12.1541 *     6.2731 *  0.0000     2          
   506  Cl    c      5.8810 *    -8.2334 *    -9.4096 *  0.0000     2          
   507  Li    c      1.9603 *    -6.2731 *    12.1541 *  0.0000     2          
   508  Li    c      5.8810 *     9.4096 *     8.2334 *  0.0000     2          
   509  Li    c      7.8414 *    -0.3921 *   -11.3700 *  0.0000     2          
   510  Li    c     -7.8414 *    11.3700 *     0.3921 *  0.0000     2          
   511  Cl    c      9.8017 *     7.4493 *     6.2731 *  0.0000     2          
   512  Cl    c     13.7224 *    -0.3921 *    -1.5683 *  0.0000     2          
   513  Li    c      9.8017 *    -6.2731 *    -7.4493 *  0.0000     2          
   514  Li    c     13.7224 *     1.5683 *     0.3921 *  0.0000     2          
   515  Li    c      0.0000       9.4096 *    10.1938 *  0.0000     1          
   516  Li    c      0.0000     -10.1938 *    -9.4096 *  0.0000     1          
   517  Li    c      3.9207 *     9.4096 *    -9.4096 *  0.0000     2          
   518  O     c      3.9207 *    13.3303 *     0.3921 *  0.0000     2          
   519  O     c      3.9207 *     5.4889 *    12.1541 *  0.0000     2          
   520  O     c      7.8414 *     1.5683 *   -11.3700 *  0.0000     2          
   521  Cl    c      1.9603 *     3.5286 *   -13.3303 *  0.0000     2          
   522  Li    c      1.9603 *    13.3303 *    -3.5286 *  0.0000     2          
   523  Cl    c      5.8810 *     7.4493 *    10.1938 *  0.0000     2          
   524  Cl    c      5.8810 *    11.3700 *    -5.4889 *  0.0000     2          
   525  Li    c      5.8810 *     5.4889 *   -11.3700 *  0.0000     2          
   526  Li    c      5.8810 *   -10.1938 *    -7.4493 *  0.0000     2          
   527  Li    c      9.8017 *     5.4889 *     8.2334 *  0.0000     2          
   528  Li    c     11.7620 *    -0.3921 *    -7.4493 *  0.0000     2          
   529  Li    c     11.7620 *     7.4493 *     0.3921 *  0.0000     2          
   530  Cl    c      9.8017 *    -8.2334 *    -5.4889 *  0.0000     2          
   531  Cl    c     13.7224 *    -0.3921 *     2.3524 *  0.0000     2          
   532  Li    c     13.7224 *    -2.3524 *     0.3921 *  0.0000     2          
   533  Li    c      3.9207 *    13.3303 *    -1.5683 *  0.0000     2          
   534  Li    c      3.9207 *     1.5683 *   -13.3303 *  0.0000     2          
   535  Li    c      7.8414 *     5.4889 *    10.1938 *  0.0000     2          
   536  Li    c      7.8414 *   -10.1938 *    -5.4889 *  0.0000     2          
   537  O     c      0.0000      13.3303 *     4.3127 *  0.0000     1          
   538  O     c      7.8414 *    -2.3524 *   -11.3700 *  0.0000     2          
   539  O     c     11.7620 *     1.5683 *    -7.4493 *  0.0000     2          
   540  O     c     11.7620 *    -6.2731 *     4.3127 *  0.0000     2          
   541  Li    c      0.0000      11.3700 *     8.2334 *  0.0000     1          
   542  Li    c      0.0000      -8.2334 *   -11.3700 *  0.0000     1          
   543  Li    c     -7.8414 *    -8.2334 *     8.2334 *  0.0000     2          
   544  Cl    c      9.8017 *     3.5286 *    -9.4096 *  0.0000     2          
   545  Li    c      9.8017 *     9.4096 *    -3.5286 *  0.0000     2          
   546  Li    c      3.9207 *    -2.3524 *   -13.3303 *  0.0000     2          
   547  Li    c      3.9207 *    13.3303 *     2.3524 *  0.0000     2          
   548  Li    c     11.7620 *     5.4889 *    -5.4889 *  0.0000     2          
   549  O     c      0.0000     -14.1144 *     0.3921 *  0.0000     1          
   550  O     c     11.7620 *    -2.3524 *    -7.4493 *  0.0000     2          
   551  Li    c      1.9603 *    13.3303 *     4.3127 *  0.0000     2          
   552  Cl    c      1.9603 *    -4.3127 *   -13.3303 *  0.0000     2          
   553  Li    c      3.9207 *     7.4493 *   -11.3700 *  0.0000     2          
   554  Li    c      3.9207 *    11.3700 *    -7.4493 *  0.0000     2          
   555  Cl    c      9.8017 *    -0.3921 *    10.1938 *  0.0000     2          
   556  Li    c      9.8017 *   -10.1938 *     0.3921 *  0.0000     2          
   557  Li    c      0.0000       1.5683 *    14.1144 *  0.0000     1          
   558  Li    c      0.0000     -14.1144 *    -1.5683 *  0.0000     1          
   559  O     c      3.9207 *    -6.2731 *    12.1541 *  0.0000     2          
   560  Cl    c      1.9603 *    -0.3921 *    14.1144 *  0.0000     2          
   561  Cl    c      5.8810 *    11.3700 *     6.2731 *  0.0000     2          
   562  Cl    c      9.8017 *    -4.3127 *    -9.4096 *  0.0000     2          
   563  Li    c      1.9603 *   -14.1144 *     0.3921 *  0.0000     2          
   564  Li    c      5.8810 *    -6.2731 *   -11.3700 *  0.0000     2          
   565  Li    c      9.8017 *     9.4096 *     4.3127 *  0.0000     2          
   566  Li    c      0.0000       7.4493 *    12.1541 *  0.0000     1          
   567  Li    c      0.0000     -12.1541 *    -7.4493 *  0.0000     1          
   568  Li    c      7.8414 *     3.5286 *   -11.3700 *  0.0000     2          
   569  Li    c     -7.8414 *    11.3700 *    -3.5286 *  0.0000     2          
   570  Cl    c      9.8017 *    -8.2334 *     6.2731 *  0.0000     2          
   571  Cl    c     13.7224 *     3.5286 *    -1.5683 *  0.0000     2          
   572  Li    c      9.8017 *    -6.2731 *     8.2334 *  0.0000     2          
   573  Li    c     13.7224 *     1.5683 *    -3.5286 *  0.0000     2          
   574  Li    c      0.0000      -2.3524 *    14.1144 *  0.0000     1          
   575  Li    c      0.0000     -14.1144 *     2.3524 *  0.0000     1          
   576  Li    c      7.8414 *    -6.2731 *    10.1938 *  0.0000     2          
   577  Li    c      7.8414 *   -10.1938 *     6.2731 *  0.0000     2          
   578  O     c      3.9207 *    13.3303 *    -3.5286 *  0.0000     2          
   579  O     c     -7.8414 *     9.4096 *    -7.4493 *  0.0000     2          
   580  Cl    c      5.8810 *    -8.2334 *    10.1938 *  0.0000     2          
   581  Li    c      5.8810 *   -10.1938 *     8.2334 *  0.0000     2          
   582  Li    c     11.7620 *    -0.3921 *     8.2334 *  0.0000     2          
   583  Li    c     11.7620 *     3.5286 *    -7.4493 *  0.0000     2          
   584  Li    c     11.7620 *     7.4493 *    -3.5286 *  0.0000     2          
   585  Li    c     11.7620 *    -8.2334 *     0.3921 *  0.0000     2          
   586  Cl    c     13.7224 *     3.5286 *     2.3524 *  0.0000     2          
   587  Li    c     13.7224 *    -2.3524 *    -3.5286 *  0.0000     2          
   588  Li    c      0.0000       5.4889 *   -13.3303 *  0.0000     1          
   589  Li    c      0.0000      13.3303 *    -5.4889 *  0.0000     1          
   590  Li    c      0.0000     -10.1938 *    10.1938 *  0.0000     1          
   591  Li    c      3.9207 *     9.4096 *    10.1938 *  0.0000     2          
   592  Li    c      3.9207 *   -10.1938 *    -9.4096 *  0.0000     2          
   593  Li    c     11.7620 *     5.4889 *     6.2731 *  0.0000     2          
   594  Li    c     11.7620 *    -6.2731 *    -5.4889 *  0.0000     2          
   595  O     c     11.7620 *     1.5683 *     8.2334 *  0.0000     2          
   596  Li    c     -7.8414 *    11.3700 *     4.3127 *  0.0000     2          
   597  Li    c     13.7224 *     1.5683 *     4.3127 *  0.0000     2          
   598  Li    c      7.8414 *    -4.3127 *   -11.3700 *  0.0000     2          
   599  Li    c     -7.8414 *    -0.3921 *    12.1541 *  0.0000     2          
   600  Li    c     -7.8414 *   -12.1541 *     0.3921 *  0.0000     2          
   601  Cl    c     13.7224 *    -4.3127 *    -1.5683 *  0.0000     2          
   602  O     c      3.9207 *    13.3303 *     4.3127 *  0.0000     2          
   603  O     c      0.0000     -14.1144 *    -3.5286 *  0.0000     1          
   604  O     c      7.8414 *     1.5683 *    12.1541 *  0.0000     2          
   605  O     c     11.7620 *    -2.3524 *     8.2334 *  0.0000     2          
   606  Cl    c      5.8810 *    -0.3921 *   -13.3303 *  0.0000     2          
   607  Li    c      5.8810 *     5.4889 *    12.1541 *  0.0000     2          
   608  Li    c      5.8810 *    13.3303 *     0.3921 *  0.0000     2          
   609  Li    c      3.9207 *    11.3700 *     8.2334 *  0.0000     2          
   610  Li    c      3.9207 *    -8.2334 *   -11.3700 *  0.0000     2          
   611  Li    c     11.7620 *     7.4493 *     4.3127 *  0.0000     2          
   612  Li    c     11.7620 *    -4.3127 *    -7.4493 *  0.0000     2          
   613  Cl    c      5.8810 *   -12.1541 *    -5.4889 *  0.0000     2          
   614  Cl    c      9.8017 *     3.5286 *    10.1938 *  0.0000     2          
   615  Li    c     13.7224 *    -2.3524 *     4.3127 *  0.0000     2          
   616  Cl    c     13.7224 *    -4.3127 *     2.3524 *  0.0000     2          
   617  Li    c      9.8017 *   -10.1938 *    -3.5286 *  0.0000     2          
   618  O     c      3.9207 *   -14.1144 *     0.3921 *  0.0000     2          
   619  O     c     -7.8414 *    -2.3524 *    12.1541 *  0.0000     2          
   620  Cl    c      1.9603 *     3.5286 *    14.1144 *  0.0000     2          
   621  Li    c      1.9603 *   -14.1144 *    -3.5286 *  0.0000     2          
   622  Li    c      0.0000      -8.2334 *    12.1541 *  0.0000     1          
   623  Li    c      0.0000     -12.1541 *     8.2334 *  0.0000     1          
   624  Li    c      0.0000      13.3303 *     6.2731 *  0.0000     1          
   625  Li    c      0.0000      -6.2731 *   -13.3303 *  0.0000     1          
   626  Li    c      3.9207 *   -14.1144 *    -1.5683 *  0.0000     2          
   627  Li    c      3.9207 *     1.5683 *    14.1144 *  0.0000     2          
   628  Li    c     11.7620 *    -6.2731 *     6.2731 *  0.0000     2          
   629  O     c      0.0000       9.4096 *   -11.3700 *  0.0000     1          
   630  O     c      0.0000     -14.1144 *     4.3127 *  0.0000     1          
   631  O     c     -7.8414 *     9.4096 *     8.2334 *  0.0000     2          
   632  Li    c      3.9207 *   -12.1541 *    -7.4493 *  0.0000     2          
   633  Cl    c      9.8017 *    -4.3127 *    10.1938 *  0.0000     2          
   634  Li    c      9.8017 *   -10.1938 *     4.3127 *  0.0000     2          
   635  Li    c      3.9207 *     7.4493 *    12.1541 *  0.0000     2          
   636  Li    c     11.7620 *     3.5286 *     8.2334 *  0.0000     2          
   637  Li    c     11.7620 *    -8.2334 *    -3.5286 *  0.0000     2          
   638  Cl    c     13.7224 *    -0.3921 *    -5.4889 *  0.0000     2          
   639  Li    c     13.7224 *     5.4889 *     0.3921 *  0.0000     2          
   640  Li    c      3.9207 *    -2.3524 *    14.1144 *  0.0000     2          
   641  Li    c      3.9207 *   -14.1144 *     2.3524 *  0.0000     2          
   642  O     c      7.8414 *     5.4889 *   -11.3700 *  0.0000     2          
   643  O     c      7.8414 *   -10.1938 *    -7.4493 *  0.0000     2          
   644  Cl    c      1.9603 *    11.3700 *    -9.4096 *  0.0000     2          
   645  Li    c      1.9603 *     9.4096 *   -11.3700 *  0.0000     2          
   646  Li    c      1.9603 *   -14.1144 *     4.3127 *  0.0000     2          
   647  Cl    c      1.9603 *    -4.3127 *    14.1144 *  0.0000     2          
   648  Cl    c      5.8810 *   -12.1541 *     6.2731 *  0.0000     2          
   649  Li    c      5.8810 *    -6.2731 *    12.1541 *  0.0000     2          
   650  Li    c     -7.8414 *     3.5286 *    12.1541 *  0.0000     2          
   651  Li    c     -7.8414 *   -12.1541 *    -3.5286 *  0.0000     2          
   652  Li    c      3.9207 *     5.4889 *   -13.3303 *  0.0000     2          
   653  Li    c      3.9207 *    13.3303 *    -5.4889 *  0.0000     2          
   654  Li    c      3.9207 *   -10.1938 *    10.1938 *  0.0000     2          
   655  O     c     11.7620 *     5.4889 *    -7.4493 *  0.0000     2          
   656  Cl    c      5.8810 *     3.5286 *   -13.3303 *  0.0000     2          
   657  Li    c      5.8810 *    13.3303 *    -3.5286 *  0.0000     2          
   658  Li    c     11.7620 *    -4.3127 *     8.2334 *  0.0000     2          
   659  Li    c     11.7620 *    -8.2334 *     4.3127 *  0.0000     2          
   660  O     c      3.9207 *   -14.1144 *    -3.5286 *  0.0000     2          
   661  O     c     11.7620 *     9.4096 *     0.3921 *  0.0000     2          
   662  Li    c     -7.8414 *   -12.1541 *     4.3127 *  0.0000     2          
   663  Cl    c      9.8017 *    11.3700 *    -1.5683 *  0.0000     2          
   664  Li    c      9.8017 *     1.5683 *   -11.3700 *  0.0000     2          
   665  Li    c      7.8414 *    -4.3127 *    12.1541 *  0.0000     2          
   666  Cl    c     13.7224 *    -0.3921 *     6.2731 *  0.0000     2          
   667  Li    c     13.7224 *    -6.2731 *     0.3921 *  0.0000     2          
   668  Li    c     11.7620 *     1.5683 *    -9.4096 *  0.0000     2          
   669  Li    c     11.7620 *     9.4096 *    -1.5683 *  0.0000     2          
   670  Li    c      0.0000       5.4889 *    14.1144 *  0.0000     1          
   671  Li    c      0.0000     -14.1144 *    -5.4889 *  0.0000     1          
   672  O     c     -7.8414 *    -6.2731 *   -11.3700 *  0.0000     2          
   673  Cl    c      5.8810 *    -4.3127 *   -13.3303 *  0.0000     2          
   674  Li    c      5.8810 *    13.3303 *     4.3127 *  0.0000     2          
   675  Li    c      3.9207 *   -12.1541 *     8.2334 *  0.0000     2          
   676  Cl    c      9.8017 *    11.3700 *     2.3524 *  0.0000     2          
   677  Li    c      9.8017 *    -2.3524 *   -11.3700 *  0.0000     2          
   678  Li    c      3.9207 *    -8.2334 *    12.1541 *  0.0000     2          
   679  Cl    c     13.7224 *     3.5286 *    -5.4889 *  0.0000     2          
   680  Li    c     13.7224 *     5.4889 *    -3.5286 *  0.0000     2          
   681  Li    c      3.9207 *    13.3303 *     6.2731 *  0.0000     2          
   682  Li    c     -3.9207 *    -6.2731 *   -13.3303 *  0.0000     2          
   683  Li    c     11.7620 *    -2.3524 *    -9.4096 *  0.0000     2          
   684  Li    c     11.7620 *     9.4096 *     2.3524 *  0.0000     2          
   685  O     c      0.0000      13.3303 *    -7.4493 *  0.0000     1          
   686  O     c      3.9207 *   -14.1144 *     4.3127 *  0.0000     2          
   687  O     c      0.0000     -10.1938 *   -11.3700 *  0.0000     1          
   688  O     c      3.9207 *     9.4096 *   -11.3700 *  0.0000     2          
   689  O     c      7.8414 *   -10.1938 *     8.2334 *  0.0000     2          
   690  O     c     11.7620 *    -6.2731 *    -7.4493 *  0.0000     2          
   691  Li    c      0.0000      -0.3921 *   -15.2906 *  0.0000     1          
   692  Li    c      0.0000      15.2906 *     0.3921 *  0.0000     1          
   693  Cl    c      5.8810 *    -0.3921 *    14.1144 *  0.0000     2          
   694  Li    c      5.8810 *   -14.1144 *     0.3921 *  0.0000     2          
   695  O     c      0.0000       1.5683 *   -15.2906 *  0.0000     1          
   696  O     c      0.0000       9.4096 *    12.1541 *  0.0000     1          
   697  O     c     11.7620 *     5.4889 *     8.2334 *  0.0000     2          
   698  Cl    c      1.9603 *     7.4493 *   -13.3303 *  0.0000     2          
   699  Li    c      1.9603 *    13.3303 *    -7.4493 *  0.0000     2          
[...]
   2029 y         -7.841351     -7.842891    -0.001540    Cartesian    0.02
   2029 z         11.762026     11.763790     0.001763    Cartesian    0.01
   2030 x         19.603377     19.607373     0.003996    Cartesian    0.02
   2030 y         -3.920675     -3.921653    -0.000978    Cartesian    0.02
   2030 z         -3.920675     -3.921235    -0.000559    Cartesian    0.01
   2031 x         11.762026     11.763253     0.001226    Cartesian    0.01
   2031 y        -15.682702    -15.685399    -0.002697    Cartesian    0.02
   2031 z          3.920675      3.921066     0.000391    Cartesian    0.01
   2032 x          5.881013      5.881123     0.000110    Cartesian    0.00
   2032 y        -13.722364    -13.723054    -0.000690    Cartesian    0.01
   2032 z         13.722364     13.722815     0.000450    Cartesian    0.00
   2033 x          1.960338      1.960338     0.000000    Cartesian    0.00
   2033 y         -9.801689     -9.802404    -0.000715    Cartesian    0.01
   2033 z         17.643040     17.644283     0.001243    Cartesian    0.01
   2034 x          5.881013      5.881300     0.000287    Cartesian    0.00
   2034 y          9.801689      9.802708     0.001019    Cartesian    0.01
   2034 z         17.643040     17.644787     0.001747    Cartesian    0.01
   2035 x        -13.722364    -13.723187    -0.000823    Cartesian    0.01
   2035 y         -9.801689     -9.802246    -0.000558    Cartesian    0.01
   2035 z         -1.960338     -1.960255     0.000082    Cartesian   -0.00
   2036 x          7.841351      7.842959     0.001608    Cartesian    0.02
   2036 y         11.762026     11.764864     0.002837    Cartesian    0.02
   2036 z         15.682702     15.686569     0.003867    Cartesian    0.02
   2037 x         11.762026     11.763621     0.001594    Cartesian    0.01
   2037 y         -7.841351     -7.843013    -0.001662    Cartesian    0.02
   2037 z         15.682702     15.684991     0.002289    Cartesian    0.01
   2038 x         19.603377     19.607721     0.004344    Cartesian    0.02
   2038 y          3.920675      3.921036     0.000360    Cartesian    0.01
   2038 z          7.841351      7.842975     0.001624    Cartesian    0.02
   2039 x          1.960338      1.960338     0.000000    Cartesian    0.00
   2039 y         17.643040     17.644897     0.001857    Cartesian    0.01
   2039 z          9.801689      9.802909     0.001221    Cartesian    0.01
   2040 x          3.920675      3.920980     0.000304    Cartesian    0.01
   2040 y        -15.682702    -15.685624    -0.002922    Cartesian    0.02
   2040 z         11.762026     11.763628     0.001601    Cartesian    0.01
   2041 x         15.682702     15.685958     0.003256    Cartesian    0.02
   2041 y          0.000000     -0.000542    -0.000542    Cartesian    0.00
   2041 z        -11.762026    -11.764287    -0.002261    Cartesian    0.02
   2042 x         15.682702     15.685049     0.002347    Cartesian    0.01
   2042 y        -11.762026    -11.764688    -0.002661    Cartesian    0.02
   2042 z         -3.920675     -3.921164    -0.000489    Cartesian    0.01
   2043 x          5.881013      5.881314     0.000301    Cartesian    0.01
   2043 y         17.643040     17.644617     0.001577    Cartesian    0.01
   2043 z         -5.881013     -5.881926    -0.000913    Cartesian    0.02
   2044 x          9.801689      9.803523     0.001835    Cartesian    0.02
   2044 y         13.722364     13.724723     0.002359    Cartesian    0.02
   2044 z         -9.801689     -9.803682    -0.001993    Cartesian    0.02
   2045 x        -13.722364    -13.723235    -0.000871    Cartesian    0.01
   2045 y         -9.801689     -9.802289    -0.000600    Cartesian    0.01
   2045 z          5.881013      5.881043     0.000030    Cartesian    0.00
   2046 x          3.920675      3.921244     0.000569    Cartesian    0.01
   2046 y         -7.841351     -7.844178    -0.002828    Cartesian    0.04
   2046 z        -15.682702    -15.687325    -0.004623    Cartesian    0.03
   2047 x         11.762026     11.764747     0.002720    Cartesian    0.02
   2047 y         15.682702     15.686357     0.003655    Cartesian    0.02
   2047 z          7.841351      7.843430     0.002079    Cartesian    0.03
   2048 x         19.603377     19.607872     0.004494    Cartesian    0.02
   2048 y          7.841351      7.842740     0.001389    Cartesian    0.02
   2048 z          0.000000      0.000210     0.000210    Cartesian    0.00
   2049 x         19.603377     19.607352     0.003975    Cartesian    0.02
   2049 y         -3.920675     -3.921617    -0.000942    Cartesian    0.02
   2049 z          7.841351      7.842738     0.001387    Cartesian    0.02
   2050 x          1.960338      1.960338     0.000000    Cartesian    0.00
   2050 y          1.960338      1.960224    -0.000114    Cartesian   -0.01
   2050 z        -17.643040    -17.644920    -0.001880    Cartesian    0.01
   2051 x         13.722364     13.724601     0.002236    Cartesian    0.02
   2051 y         13.722364     13.724574     0.002209    Cartesian    0.02
   2051 z         -5.881013     -5.882451    -0.001438    Cartesian    0.02
   2052 x          9.801689      9.802646     0.000958    Cartesian    0.01
   2052 y         17.643040     17.644633     0.001594    Cartesian    0.01
   2052 z         -1.960338     -1.960524    -0.000186    Cartesian    0.01
   2053 x         13.722364     13.724198     0.001834    Cartesian    0.01
   2053 y         -9.801689     -9.803385    -0.001696    Cartesian    0.02
   2053 z         -9.801689     -9.803108    -0.001419    Cartesian    0.01
   2054 x          7.841351      7.842896     0.001545    Cartesian    0.02
   2054 y         15.682702     15.686219     0.003517    Cartesian    0.02
   2054 z         11.762026     11.765147     0.003120    Cartesian    0.03
   2055 x          7.841351      7.842773     0.001422    Cartesian    0.02
   2055 y          3.920675      3.921342     0.000666    Cartesian    0.02
   2055 z         19.603377     19.608346     0.004968    Cartesian    0.03
   2056 x         19.603377     19.608059     0.004681    Cartesian    0.02
   2056 y          7.841351      7.842732     0.001381    Cartesian    0.02
   2056 z          3.920675      3.921538     0.000862    Cartesian    0.02
   2057 x          1.960338      1.960338     0.000000    Cartesian    0.00
   2057 y         -1.960338     -1.960683    -0.000346    Cartesian    0.02
   2057 z        -17.643040    -17.644550    -0.001510    Cartesian    0.01
   2058 x         13.722364     13.723498     0.001134    Cartesian    0.01
   2058 y          1.960338      1.960187    -0.000151    Cartesian   -0.01
   2058 z        -13.722364    -13.723973    -0.001609    Cartesian    0.01
   2059 x         13.722364     13.724631     0.002266    Cartesian    0.02
   2059 y          9.801689      9.803386     0.001697    Cartesian    0.02
   2059 z         13.722364     13.724679     0.002314    Cartesian    0.02
   2060 x          3.920675      3.921211     0.000536    Cartesian    0.01
   2060 y         19.603377     19.608391     0.005014    Cartesian    0.03
   2060 z          0.000000     -0.000081    -0.000081    Cartesian    0.00
   2061 x         15.682702     15.685508     0.002806    Cartesian    0.02
   2061 y        -11.762026    -11.764591    -0.002565    Cartesian    0.02
   2061 z          7.841351      7.842639     0.001288    Cartesian    0.02
   2062 x          9.801689      9.802647     0.000958    Cartesian    0.01
   2062 y         17.643040     17.644795     0.001755    Cartesian    0.01
   2062 z          5.881013      5.881510     0.000497    Cartesian    0.01
   2063 x         13.722364     13.723749     0.001384    Cartesian    0.01
   2063 y         -1.960338     -1.960552    -0.000214    Cartesian    0.01
   2063 z        -13.722364    -13.723783    -0.001419    Cartesian    0.01
   2064 x        -13.722364    -13.723826    -0.001462    Cartesian    0.01
   2064 y          1.960338      1.960114    -0.000224    Cartesian   -0.01
   2064 z         -9.801689     -9.802520    -0.000831    Cartesian    0.01
   2065 x          5.881013      5.881002    -0.000012    Cartesian   -0.00
   2065 y         -9.801689     -9.802527    -0.000838    Cartesian    0.01
   2065 z         17.643040     17.644162     0.001122    Cartesian    0.01
   2066 x          3.920675      3.921203     0.000527    Cartesian    0.01
   2066 y         19.603377     19.608638     0.005260    Cartesian    0.03
   2066 z          3.920675      3.921683     0.001007    Cartesian    0.03
   2067 x         15.682702     15.686635     0.003934    Cartesian    0.03
   2067 y          3.920675      3.921266     0.000591    Cartesian    0.02
   2067 z        -11.762026    -11.765008    -0.002982    Cartesian    0.03
   2068 x          7.841351      7.842572     0.001221    Cartesian    0.02
   2068 y         -3.920675     -3.921864    -0.001189    Cartesian    0.03
   2068 z         19.603377     19.607948     0.004571    Cartesian    0.02
   2069 x          5.881013      5.881309     0.000296    Cartesian    0.01
   2069 y         17.643040     17.644853     0.001813    Cartesian    0.01
   2069 z          9.801689      9.802826     0.001137    Cartesian    0.01
   2070 x        -13.722364    -13.723779    -0.001415    Cartesian    0.01
   2070 y         -1.960338     -1.960402    -0.000065    Cartesian    0.00
   2070 z         -9.801689     -9.802432    -0.000743    Cartesian    0.01
   2071 x          1.960338      1.960338     0.000000    Cartesian    0.00
   2071 y        -17.643040    -17.644718    -0.001678    Cartesian    0.01
   2071 z         -5.881013     -5.881826    -0.000813    Cartesian    0.01
   2072 x          7.841351      7.842410     0.001059    Cartesian    0.01
   2072 y        -11.762026    -11.764602    -0.002575    Cartesian    0.02
   2072 z         15.682702     15.685751     0.003049    Cartesian    0.02
   2073 x          7.841351      7.842747     0.001396    Cartesian    0.02
   2073 y        -15.682702    -15.686893    -0.004191    Cartesian    0.03
   2073 z         -7.841351     -7.843160    -0.001809    Cartesian    0.02
   2074 x         19.603377     19.607973     0.004595    Cartesian    0.02
   2074 y         -7.841351     -7.843327    -0.001976    Cartesian    0.03
   2074 z          0.000000     -0.000254    -0.000254    Cartesian    0.00
   2075 x          9.801689      9.803676     0.001987    Cartesian    0.02
   2075 y          9.801689      9.803697     0.002009    Cartesian    0.02
   2075 z        -13.722364    -13.725110    -0.002746    Cartesian    0.02
   2076 x         13.722364     13.724651     0.002286    Cartesian    0.02
   2076 y         13.722364     13.724689     0.002325    Cartesian    0.02
   2076 z          9.801689      9.803560     0.001872    Cartesian    0.02
   2077 x         15.682702     15.686403     0.003701    Cartesian    0.02
   2077 y         -3.920675     -3.922142    -0.001467    Cartesian    0.04
   2077 z        -11.762026    -11.764821    -0.002794    Cartesian    0.02
   2078 x          3.920675      3.921375     0.000699    Cartesian    0.02
   2078 y          7.841351      7.843238     0.001887    Cartesian    0.02
   2078 z         19.603377     19.609035     0.005657    Cartesian    0.03
   2079 x         19.603377     19.607948     0.004571    Cartesian    0.02
   2079 y         -7.841351     -7.843324    -0.001973    Cartesian    0.03
   2079 z          3.920675      3.921569     0.000893    Cartesian    0.02
   2080 x         11.762026     11.764266     0.002240    Cartesian    0.02
   2080 y        -15.682702    -15.686726    -0.004024    Cartesian    0.03
   2080 z         -3.920675     -3.921591    -0.000916    Cartesian    0.02
   2081 x          5.881013      5.881804     0.000791    Cartesian    0.01
   2081 y          1.960338      1.960180    -0.000158    Cartesian   -0.01
   2081 z        -17.643040    -17.645114    -0.002074    Cartesian    0.01
   2082 x          9.801689      9.803416     0.001727    Cartesian    0.02
   2082 y         13.722364     13.724692     0.002328    Cartesian    0.02
   2082 z         13.722364     13.724690     0.002326    Cartesian    0.02
   2083 x          9.801689      9.802426     0.000737    Cartesian    0.01
   2083 y        -17.643040    -17.644443    -0.001403    Cartesian    0.01
   2083 z          1.960338      1.960318    -0.000020    Cartesian   -0.00
   2084 x         21.563715     21.564503     0.000788    Cartesian    0.00
   2084 y          1.960338      1.960206    -0.000131    Cartesian   -0.01
   2084 z          1.960338      1.960205    -0.000133    Cartesian   -0.01
   2085 x          7.841351      7.843584     0.002233    Cartesian    0.03
   2085 y          7.841351      7.843697     0.002346    Cartesian    0.03
   2085 z        -15.682702    -15.688771    -0.006069    Cartesian    0.04
   2086 x         15.682702     15.686021     0.003319    Cartesian    0.02
   2086 y          0.000000     -0.000443    -0.000443    Cartesian    0.00
   2086 z         15.682702     15.685949     0.003247    Cartesian    0.02
   2087 x          5.881013      5.881983     0.000969    Cartesian    0.02
   2087 y         -1.960338     -1.961310    -0.000972    Cartesian    0.05
   2087 z        -17.643040    -17.645835    -0.002795    Cartesian    0.02
   2088 x          9.801689      9.803171     0.001482    Cartesian    0.02
   2088 y        -13.722364    -13.724436    -0.002072    Cartesian    0.02
   2088 z         -9.801689     -9.803212    -0.001524    Cartesian    0.02
   2089 x         13.722364     13.723984     0.001619    Cartesian    0.01
   2089 y         -9.801689     -9.803347    -0.001658    Cartesian    0.02
   2089 z         13.722364     13.723991     0.001627    Cartesian    0.01
   2090 x        -13.722364    -13.724867    -0.002502    Cartesian    0.02
   2090 y          9.801689      9.803282     0.001593    Cartesian    0.02
   2090 z         -5.881013     -5.882432    -0.001419    Cartesian    0.02
   2091 x         21.563715     21.565037     0.001322    Cartesian    0.01
   2091 y         -1.960338     -1.960852    -0.000514    Cartesian    0.03
   2091 z          1.960338      1.960348     0.000010    Cartesian    0.00
   2092 x         13.722364     13.724079     0.001715    Cartesian    0.01
   2092 y        -13.722364    -13.724355    -0.001990    Cartesian    0.01
   2092 z         -5.881013     -5.882216    -0.001202    Cartesian    0.02
   2093 x          1.960338      1.960338     0.000000    Cartesian    0.00
   2093 y        -17.643040    -17.644303    -0.001263    Cartesian    0.01
   2093 z          9.801689      9.802310     0.000621    Cartesian    0.01
   2094 x         11.762026     11.765405     0.003379    Cartesian    0.03
   2094 y          0.000000     -0.000454    -0.000454    Cartesian    0.00
   2094 z        -15.682702    -15.688484    -0.005782    Cartesian    0.04
   2095 x         11.762026     11.764174     0.002147    Cartesian    0.02
   2095 y        -15.682702    -15.686988    -0.004286    Cartesian    0.03
   2095 z          7.841351      7.842982     0.001631    Cartesian    0.02
   2096 x         17.643040     17.645296     0.002257    Cartesian    0.01
   2096 y          1.960338      1.960736     0.000398    Cartesian    0.02
   2096 z         13.722364     13.723933     0.001568    Cartesian    0.01
   2097 x          5.881013      5.881849     0.000836    Cartesian    0.01
   2097 y        -17.643040    -17.645416    -0.002377    Cartesian    0.01
   2097 z         -5.881013     -5.881989    -0.000975    Cartesian    0.02
   2098 x          7.841351      7.842758     0.001407    Cartesian    0.02
   2098 y        -15.682702    -15.686946    -0.004244    Cartesian    0.03
   2098 z         11.762026     11.764424     0.002398    Cartesian    0.02
   2099 x          3.920675      3.921274     0.000599    Cartesian    0.02
   2099 y         -7.841351     -7.843558    -0.002208    Cartesian    0.03
   2099 z         19.603377     19.608491     0.005113    Cartesian    0.03
   2100 x         19.603377     19.608979     0.005602    Cartesian    0.03
   2100 y          7.841351      7.843198     0.001847    Cartesian    0.02
   2100 z         -3.920675     -3.922026    -0.001350    Cartesian    0.03
   2101 x          1.960338      1.960338     0.000000    Cartesian    0.00
   2101 y          5.881013      5.882131     0.001118    Cartesian    0.02
   2101 z        -17.643040    -17.646548    -0.003509    Cartesian    0.02
   2102 x          9.801689      9.803291     0.001602    Cartesian    0.02
   2102 y         -9.801689     -9.803667    -0.001978    Cartesian    0.02
   2102 z        -13.722364    -13.724529    -0.002164    Cartesian    0.02
   2103 x         13.722364     13.723913     0.001549    Cartesian    0.01
   2103 y          1.960338      1.960837     0.000499    Cartesian    0.03
   2103 z         17.643040     17.645230     0.002190    Cartesian    0.01
   2104 x         17.643040     17.645281     0.002241    Cartesian    0.01
   2104 y         -1.960338     -1.961278    -0.000940    Cartesian    0.05
   2104 z         13.722364     13.724080     0.001716    Cartesian    0.01
   2105 x          9.801689      9.802781     0.001093    Cartesian    0.01
   2105 y        -17.643040    -17.645372    -0.002332    Cartesian    0.01
   2105 z         -1.960338     -1.961018    -0.000680    Cartesian    0.03
   2106 x         21.563715     21.566119     0.002404    Cartesian    0.01
   2106 y          1.960338      1.960898     0.000560    Cartesian    0.03
   2106 z         -1.960338     -1.960912    -0.000575    Cartesian    0.03
   2107 x          7.841351      7.843354     0.002003    Cartesian    0.03
   2107 y         -7.841351     -7.844455    -0.003104    Cartesian    0.04
   2107 z        -15.682702    -15.687918    -0.005216    Cartesian    0.03
   2108 x         15.682702     15.686975     0.004273    Cartesian    0.03
   2108 y          3.920675      3.921517     0.000841    Cartesian    0.02
   2108 z         15.682702     15.687224     0.004522    Cartesian    0.03
   2109 x         19.603377     19.609026     0.005649    Cartesian    0.03
   2109 y          0.000000     -0.000367    -0.000367    Cartesian    0.00
   2109 z         -7.841351     -7.843362    -0.002011    Cartesian    0.03
--------------------------------------------------------------------------------


  Time to end of optimisation  =      345.2205 seconds


  Peak dynamic memory used =    1751.57 MB 


  Timing analysis for GULP :

--------------------------------------------------------------------------------
  Task / Subroutine                                          Time (Seconds)
--------------------------------------------------------------------------------
  Calculation of reciprocal space energy and derivatives          0.0003
  Calculation of reciprocal space energy using symmetry           0.0003
  Calculation of real space energy and derivatives                0.0018
  Calculation of real space energy using symmetry                 0.0038
  Calculation for region 1 energy and derivatives (2-b)         137.7572
  Calculation for region 2a energy                               44.4304
  Calculation for region 2b energy                                0.0024
  Calculation and manipulation of Hessian matrix                  1.5326
  Calculation of matrix inversion                               159.3314
  Symmetry generation of equivalent positions                     0.0019
--------------------------------------------------------------------------------
  Total CPU time                                                345.2205
--------------------------------------------------------------------------------


  Dump file written as Li3OCl.grs


  Job Finished at 12:14.06 23rd October    2020                               

