********************************************************************************
*                       GENERAL UTILITY LATTICE PROGRAM                        *
*                                 Julian Gale                                  *
*                       Curtin Institute for Computation                       *
*                    School of Molecular and Life Sciences                     *
*                    Curtin University, Western Australia                      *
********************************************************************************
* Version = 5.2.0 * Last modified =  10th September 2020                       *
********************************************************************************
*  optimise     - perform optimisation run                                     *
*  conp         - constant pressure calculation                                *
*  property     - calculate properties for final geometry                      *
*  defect       - perform defect calculation after bulk run                    *
*  compare      - compare initial and final structures                         *
********************************************************************************

  Job Started  at 12:24.52  1st December   2020                               

  Number of CPUs =     1


  Total number of configurations input =      1

********************************************************************************
*  Input for Configuration =   1                                               *
********************************************************************************

  Formula = OLi2                                                        

  Number of irreducible atoms/shells =       3


  Total number atoms/shells =       4

  Dimensionality = 3               :  Bulk   


  Symmetry :

  Crystal family                   :  Cubic       
  Crystal class  (Groth - 1921)    :  Cubic Hexakisoctahedral              

  Space group (centrosymmetric)    :  F M 3 M         

  Patterson group                  :  F m -3 m 

  Cartesian lattice vectors (Angstroms) :

        0.000000    0.795000    0.795000
        0.795000    0.000000    0.795000
        0.795000    0.795000    0.000000

  Primitive cell parameters :            Full cell parameters :

  a =   1.1243    alpha =  60.0000       a =   1.5900    alpha =  90.0000
  b =   1.1243    beta  =  60.0000       b =   1.5900    beta  =  90.0000
  c =   1.1243    gamma =  60.0000       c =   1.5900    gamma =  90.0000

  Initial volumes (Angstroms**3):

  Primitive cell =           1.004920    Full cell =           4.019679

  Temperature of configuration =   0.00     K 

  Pressure of configuration =         0.000 GPa 

  Fractional coordinates of asymmetric unit :

--------------------------------------------------------------------------------
   No.  Atomic       x           y          z         Charge      Occupancy
        Label      (Frac)      (Frac)     (Frac)        (e)         (Frac)  
--------------------------------------------------------------------------------
      1 O     c    0.000000    0.000000    0.000000     0.18300    1.000000    
      2 Li    c    0.250000    0.250000    0.250000     1.00000    1.000000    
      3 O     s    0.000000    0.000000    0.000000    -2.18300    1.000000    
--------------------------------------------------------------------------------


  Constraints : 

--------------------------------------------------------------------------------
  Constraint no.      Unconstrained     Constrained    Coefficient    Offset
                         Variable         Variable
--------------------------------------------------------------------------------
           1              Strain 1        Strain 2       1.00000      0.0000
           2              Strain 1        Strain 3       1.00000      0.0000
--------------------------------------------------------------------------------


********************************************************************************
*  General input information                                                   *
********************************************************************************

  Species output for all configurations : 

--------------------------------------------------------------------------------
  Species    Type    Atomic    Atomic    Charge       Radii (Angs)     Library
                     Number     Mass       (e)     Cova   Ionic  VDW   Symbol
--------------------------------------------------------------------------------
    Li       Core        3       6.94   1.000000   0.680  0.000  1.800          
    O        Core        8      16.00   0.183000   0.730  0.000  1.360          
    O        Shell       8       0.00  -2.183000   0.730  0.000  1.360          
    Cl       Core       17      35.45   1.485000   0.990  0.000  0.000          
    Cl       Shell      17       0.00  -2.485000   0.990  0.000  0.000          
    Mg       Core       12      24.31   0.415000   1.100  0.000  0.000          
    Mg       Shell      12       0.00   1.585000   1.100  0.000  0.000          
    Ca       Core       20      40.08  -1.135000   0.990  0.000  0.000          
    Ca       Shell      20       0.00   3.135000   0.990  0.000  0.000          
    Sr       Core       38      87.62  -1.251000   1.120  0.000  0.000          
    Sr       Shell      38       0.00   3.251000   1.120  0.000  0.000          
    Ba       Core       56     137.33  -7.203000   1.340  0.000  0.000          
    Ba       Shell      56       0.00   9.203000   1.340  0.000  0.000          
--------------------------------------------------------------------------------


  Lattice summation method               =    Ewald          (3-D)
                                         =    Parry          (2-D)
                                         =    Saunders et al (1-D)
  Accuracy factor for lattice sums       =   12.000


  Analytic derivatives to be used

  Time limit = Infinity

  Maximum range for interatomic potentials =    100000.000000 Angstroms

  General interatomic potentials :

--------------------------------------------------------------------------------
Atom  Types   Potential      Parameter       Value         Units   Cutoffs(Ang)
  1     2                                                            Min /  Max 
--------------------------------------------------------------------------------
O    c O    s Spring (c-s)  Spring k 2       593.71600    eV*Ang^-2 0.000  0.800
                            Spring k 4       0.0000000    eV*Ang^-4 
--------------------------------------------------------------------------------
Cl   c Cl   s Spring (c-s)  Spring k 2       29.380000    eV*Ang^-2 0.000  0.800
                            Spring k 4       0.0000000    eV*Ang^-4 
--------------------------------------------------------------------------------
Mg   c Mg   s Spring (c-s)  Spring k 2       361.60000    eV*Ang^-2 0.000  0.800
                            Spring k 4       0.0000000    eV*Ang^-4 
--------------------------------------------------------------------------------
Ca   c Ca   s Spring (c-s)  Spring k 2       110.20000    eV*Ang^-2 0.000  0.800
                            Spring k 4       0.0000000    eV*Ang^-4 
--------------------------------------------------------------------------------
Sr   c Sr   s Spring (c-s)  Spring k 2       71.700000    eV*Ang^-2 0.000  0.800
                            Spring k 4       0.0000000    eV*Ang^-4 
--------------------------------------------------------------------------------
Ba   c Ba   s Spring (c-s)  Spring k 2       495.20000    eV*Ang^-2 0.000  0.800
                            Spring k 4       0.0000000    eV*Ang^-4 
--------------------------------------------------------------------------------
Li   c Li   c Buckingham    Buckingham A     360.53000    eV        0.000 12.000
                            Buckingham rho  0.16100000    Ang       
                            Buckingham C     0.0000000    eV*Ang^6  
--------------------------------------------------------------------------------
Li   c O    s Buckingham    Buckingham A     292.30000    eV        0.000 12.000
                            Buckingham rho  0.34700000    Ang       
                            Buckingham C     0.0000000    eV*Ang^6  
--------------------------------------------------------------------------------
Li   c Cl   s Buckingham    Buckingham A     421.04000    eV        0.000 12.000
                            Buckingham rho  0.33400000    Ang       
                            Buckingham C     0.0000000    eV*Ang^6  
--------------------------------------------------------------------------------
O    s O    s Buckingham    Buckingham A     22764.300    eV        0.000 12.000
                            Buckingham rho  0.14900000    Ang       
                            Buckingham C     13.190000    eV*Ang^6  
--------------------------------------------------------------------------------
O    s Cl   s Buckingham    Buckingham A     8286.9100    eV        0.000 12.000
                            Buckingham rho  0.25900000    Ang       
                            Buckingham C     62.200000    eV*Ang^6  
--------------------------------------------------------------------------------
Cl   s Cl   s Buckingham    Buckingham A     1227.2000    eV        0.000 12.000
                            Buckingham rho  0.32100000    Ang       
                            Buckingham C     14.530000    eV*Ang^6  
--------------------------------------------------------------------------------
O    s Mg   s Buckingham    Buckingham A     1428.5000    eV        0.000 12.000
                            Buckingham rho  0.29450000    Ang       
                            Buckingham C     0.0000000    eV*Ang^6  
--------------------------------------------------------------------------------
Mg   s Cl   s Buckingham    Buckingham A     4914.5400    eV        0.000 12.000
                            Buckingham rho  0.25700000    Ang       
                            Buckingham C     0.0000000    eV*Ang^6  
--------------------------------------------------------------------------------
O    s Ca   s Buckingham    Buckingham A     1090.4000    eV        0.000 12.000
                            Buckingham rho  0.34370000    Ang       
                            Buckingham C     0.0000000    eV*Ang^6  
--------------------------------------------------------------------------------
Cl   s Ca   s Buckingham    Buckingham A     2302.0000    eV        0.000 12.000
                            Buckingham rho  0.34020000    Ang       
                            Buckingham C     0.0000000    eV*Ang^6  
--------------------------------------------------------------------------------
O    s Sr   s Buckingham    Buckingham A     959.10000    eV        0.000 12.000
                            Buckingham rho  0.37210000    Ang       
                            Buckingham C     0.0000000    eV*Ang^6  
--------------------------------------------------------------------------------
Cl   s Sr   s Buckingham    Buckingham A     2191.0900    eV        0.000 12.000
                            Buckingham rho  0.34570000    Ang       
                            Buckingham C     0.0000000    eV*Ang^6  
--------------------------------------------------------------------------------
O    s Ba   s Buckingham    Buckingham A     905.70000    eV        0.000 12.000
                            Buckingham rho  0.39760000    Ang       
                            Buckingham C     0.0000000    eV*Ang^6  
--------------------------------------------------------------------------------
Cl   s Ba   s Buckingham    Buckingham A     2704.5500    eV        0.000 12.000
                            Buckingham rho  0.35280000    Ang       
                            Buckingham C     0.0000000    eV*Ang^6  
--------------------------------------------------------------------------------

********************************************************************************
*  Output for configuration   1                                                *
********************************************************************************


  Components of energy : 

--------------------------------------------------------------------------------
  Interatomic potentials     =         627.93385104 eV    
  Monopole - monopole (real) =         -14.36900315 eV    
  Monopole - monopole (recip)=         -91.01707978 eV    
  Monopole - monopole (total)=        -105.38608294 eV    
--------------------------------------------------------------------------------
  Total lattice energy : 
    Primitive unit cell      =         522.54776810 eV    
    Non-primitive unit cell  =        2090.19107239 eV    
--------------------------------------------------------------------------------
  Total lattice energy (in kJmol-1): 
    Primitive unit cell      =           50417.8717 kJ/(mole unit cells)
    Non-primitive unit cell  =          201671.4870 kJ/(mole unit cells)
--------------------------------------------------------------------------------


  Number of variables =        1

  Maximum number of calculations  =          1000
  Maximum Hessian update interval =            10
  Maximum step size               =   1.000000000
  Maximum parameter tolerance     =   0.000010000
  Maximum function  tolerance     =   0.000010000
  Maximum gradient  tolerance     =   0.001000000
  Maximum gradient  component     =   0.010000000

  Symmetry constrained optimisation

  Symmetry used for second derivatives

  Cell parameters to be optimised using strains

  Newton-Raphson optimiser to be used

  BFGS hessian update to be used

  Lower half triangular hessian to be used

  Start of bulk optimisation :

  Cycle:      0 Energy:       522.547768  Gnorm:   2139.258307  CPU:    0.121
  ** Hessian calculated **
  Cycle:      1 Energy:       -10.755500  Gnorm:    125.166435  CPU:    0.132
  ** Hessian calculated **
  Cycle:      2 Energy:       -28.937761  Gnorm:      5.773762  CPU:    0.137
  ** Hessian calculated **
  Cycle:      3 Energy:       -29.040520  Gnorm:      0.110670  CPU:    0.139
  Cycle:      4 Energy:       -29.040563  Gnorm:      0.000086  CPU:    0.141


  **** Optimisation achieved ****


  Final energy =     -29.04056265 eV
  Final Gnorm  =       0.00000019

  Components of energy : 

--------------------------------------------------------------------------------
  Interatomic potentials     =           5.70607540 eV    
  Monopole - monopole (real) =          -4.73757576 eV    
  Monopole - monopole (recip)=         -30.00906229 eV    
  Monopole - monopole (total)=         -34.74663805 eV    
--------------------------------------------------------------------------------
  Total lattice energy : 
    Primitive unit cell      =         -29.04056265 eV    
    Non-primitive unit cell  =        -116.16225059 eV    
--------------------------------------------------------------------------------
  Total lattice energy (in kJmol-1): 
    Primitive unit cell      =           -2801.9704 kJ/(mole unit cells)
    Non-primitive unit cell  =          -11207.8815 kJ/(mole unit cells)
--------------------------------------------------------------------------------

  Final asymmetric unit coordinates :

--------------------------------------------------------------------------------
   No.  Atomic        x           y           z         Radius
        Label       (Frac)      (Frac)      (Frac)       (Angs) 
--------------------------------------------------------------------------------
     1  O     c     0.000000    0.000000    0.000000    0.000000
     2  Li    c     0.250000    0.250000    0.250000    0.000000
     3  O     s     0.000000    0.000000    0.000000    0.000000
--------------------------------------------------------------------------------

  Final Cartesian lattice vectors (Angstroms) :

        0.000000    2.411224    2.411224
        2.411224    0.000000    2.411224
        2.411224    2.411224    0.000000


  Final cell parameters and derivatives :

--------------------------------------------------------------------------------
       a            3.409986 Angstrom     dE/de1(xx)     0.000000 eV/strain
       b            3.409986 Angstrom     dE/de2(yy)     0.000000 eV/strain
       c            3.409986 Angstrom     dE/de3(zz)     0.000000 eV/strain
       alpha       60.000000 Degrees      dE/de4(yz)     0.000000 eV/strain
       beta        60.000000 Degrees      dE/de5(xz)     0.000000 eV/strain
       gamma       60.000000 Degrees      dE/de6(xy)     0.000000 eV/strain
--------------------------------------------------------------------------------

  Primitive cell volume =            28.037727 Angs**3

  Density of cell =      1.769676 g/cm**3

  Non-primitive lattice parameters :

  a    =     4.822448  b   =     4.822448  c    =     4.822448
  alpha=    90.000000  beta=    90.000000  gamma=    90.000000

  Non-primitive cell volume =           112.150907 Angs**3


  Final internal derivatives :

--------------------------------------------------------------------------------
   No.  Atomic          a             b             c           Radius
        Label          (eV)          (eV)          (eV)        (eV/Angs)
--------------------------------------------------------------------------------
      1 O     c       0.000000      0.000000      0.000000      0.000000
      2 Li    c       0.000000      0.000000      0.000000      0.000000
      3 O     s       0.000000      0.000000      0.000000      0.000000
--------------------------------------------------------------------------------
  Maximum abs         0.000000      0.000000      0.000000      0.000000
--------------------------------------------------------------------------------

  Comparison of initial and final structures : 

--------------------------------------------------------------------------------
  Parameter   Initial value   Final value   Difference    Units      Percent
--------------------------------------------------------------------------------
    Volume         4.019679    112.150907   108.131228    Angs**3   2690.05
    a              1.590000      4.822448     3.232448    Angstroms  203.30
    b              1.590000      4.822448     3.232448    Angstroms  203.30
    c              1.590000      4.822448     3.232448    Angstroms  203.30
    alpha         90.000000     90.000000     0.000000    Degrees      0.00
    beta          90.000000     90.000000     0.000000    Degrees      0.00
    gamma         90.000000     90.000000     0.000000    Degrees      0.00
      1 x          0.000000      0.000000     0.000000    Fractional   0.00
      1 y          0.000000      0.000000     0.000000    Fractional   0.00
      1 z          0.000000      0.000000     0.000000    Fractional   0.00
      2 x          0.250000      0.250000     0.000000    Fractional   0.00
      2 y          0.250000      0.250000     0.000000    Fractional   0.00
      2 z          0.250000      0.250000     0.000000    Fractional   0.00
      3 x          0.000000      0.000000     0.000000    Fractional   0.00
      3 y          0.000000      0.000000     0.000000    Fractional   0.00
      3 z          0.000000      0.000000     0.000000    Fractional   0.00
--------------------------------------------------------------------------------


  Born effective charge tensors : 

-------------------------------------------------------------------------------
  Atom             x           y             z
-------------------------------------------------------------------------------
    1 O     x      -1.9952      0.0000     -0.0000
            y       0.0000     -1.9952      0.0000
            z      -0.0000      0.0000     -1.9952
-------------------------------------------------------------------------------
    2 Li    x       0.9976      0.0000      0.0000
            y       0.0000      0.9976     -0.0000
            z       0.0000     -0.0000      0.9976
-------------------------------------------------------------------------------




  Elastic Constant Matrix: (Units=GPa)

-------------------------------------------------------------------------------
  Indices      1         2         3         4         5         6    
-------------------------------------------------------------------------------
       1    201.5766   36.4013   36.4013    0.0000    0.0000    0.0000
       2     36.4013  201.5766   36.4013    0.0000   -0.0000    0.0000
       3     36.4013   36.4013  201.5766    0.0000    0.0000   -0.0000
       4      0.0000    0.0000    0.0000   31.7764    0.0000    0.0000
       5      0.0000   -0.0000    0.0000    0.0000   31.7764    0.0000
       6      0.0000    0.0000   -0.0000    0.0000    0.0000   31.7764
-------------------------------------------------------------------------------


  Elastic Compliance Matrix: (Units=1/GPa)

-------------------------------------------------------------------------------
  Indices      1         2         3         4         5         6    
-------------------------------------------------------------------------------
       1    0.005251 -0.000803 -0.000803 -0.000000 -0.000000 -0.000000
       2   -0.000803  0.005251 -0.000803 -0.000000  0.000000 -0.000000
       3   -0.000803 -0.000803  0.005251 -0.000000 -0.000000  0.000000
       4   -0.000000 -0.000000 -0.000000  0.031470 -0.000000 -0.000000
       5   -0.000000  0.000000 -0.000000 -0.000000  0.031470 -0.000000
       6   -0.000000 -0.000000  0.000000 -0.000000 -0.000000  0.031470
-------------------------------------------------------------------------------

  Mechanical properties :

-------------------------------------------------------------------------------
  Convention :                    Reuss         Voigt         Hill
-------------------------------------------------------------------------------
  Bulk  Modulus (GPa)     =      91.45975      91.45975      91.45975
  Shear Modulus (GPa)     =      42.14919      52.10092      47.12505
-------------------------------------------------------------------------------
  Velocity S-wave (km/s)  =       4.88031       5.42595       5.16035
  Velocity P-wave (km/s)  =       9.13445       9.53605       9.33741
-------------------------------------------------------------------------------
  Compressibility (1/GPa) =    0.01093377
-------------------------------------------------------------------------------
  Stress axis :                     x             y             z
-------------------------------------------------------------------------------
  Youngs Moduli (GPa)     =     190.44061     190.44061     190.44061
-------------------------------------------------------------------------------
  Poissons Ratio (x)      =                     0.15296       0.15296
  Poissons Ratio (y)      =       0.15296                     0.15296
  Poissons Ratio (z)      =       0.15296       0.15296
-------------------------------------------------------------------------------


  Piezoelectric Strain Matrix: (Units=C/m**2)

-------------------------------------------------------------------------------
  Indices      1         2         3         4         5         6    
-------------------------------------------------------------------------------
       x     0.00000   0.00000   0.00000   0.00000   0.00000   0.00000
       y     0.00000   0.00000   0.00000   0.00000   0.00000   0.00000
       z     0.00000   0.00000   0.00000   0.00000   0.00000   0.00000
-------------------------------------------------------------------------------


  Piezoelectric Stress Matrix: (Units=10**-11 C/N)

-------------------------------------------------------------------------------
  Indices      1         2         3         4         5         6    
-------------------------------------------------------------------------------
       x     0.00000   0.00000   0.00000   0.00000   0.00000   0.00000
       y     0.00000   0.00000   0.00000   0.00000   0.00000   0.00000
       z     0.00000   0.00000   0.00000   0.00000   0.00000   0.00000
-------------------------------------------------------------------------------


  Static dielectric constant tensor : 

-------------------------------------------------------------------------------
              x         y         z
-------------------------------------------------------------------------------
       x    13.40532   0.00000   0.00000
       y     0.00000  13.40532  -0.00000
       z     0.00000  -0.00000  13.40532
--------------------------------------------------------------------------------

  High frequency dielectric constant tensor : 

-------------------------------------------------------------------------------
              x         y         z
-------------------------------------------------------------------------------
       x     1.05176  -0.00000   0.00000
       y    -0.00000   1.05176  -0.00000
       z     0.00000  -0.00000   1.05176
-------------------------------------------------------------------------------

  Static refractive indices : 

-------------------------------------------------------------------------------
    1 =    3.66133      2 =    3.66133      3 =    3.66133
-------------------------------------------------------------------------------

  High frequency refractive indices : 

-------------------------------------------------------------------------------
    1 =    1.02556      2 =    1.02556      3 =    1.02556
-------------------------------------------------------------------------------


  Time to end of optimisation =       0.1445 seconds

********************************************************************************
*  Defect calculation for configuration   1 :                                  *
********************************************************************************


  **** No defects for configuration number    1 ****


  Peak dynamic memory used =       7.40 MB 


  Timing analysis for GULP :

--------------------------------------------------------------------------------
  Task / Subroutine                                          Time (Seconds)
--------------------------------------------------------------------------------
  Calculation of reciprocal space energy and derivatives          0.0002
  Calculation of reciprocal space energy using symmetry           0.0006
  Calculation of real space energy and derivatives                0.0014
  Calculation of real space energy using symmetry                 0.1328
  Symmetry generation of equivalent positions                     0.0029
--------------------------------------------------------------------------------
  Total CPU time                                                  0.1447
--------------------------------------------------------------------------------


  Dump file written as Li3OCl.grs


  Job Finished at 12:24.52  1st December   2020                               

