********************************************************************************
*                       GENERAL UTILITY LATTICE PROGRAM                        *
*                                 Julian Gale                                  *
*                       Curtin Institute for Computation                       *
*                    School of Molecular and Life Sciences                     *
*                    Curtin University, Western Australia                      *
********************************************************************************
* Version = 5.2.0 * Last modified =  10th September 2020                       *
********************************************************************************
*  optimise     - perform optimisation run                                     *
*  conp         - constant pressure calculation                                *
*  property     - calculate properties for final geometry                      *
*  defect       - perform defect calculation after bulk run                    *
*  compare      - compare initial and final structures                         *
********************************************************************************

  Job Started  at 12:29.04  1st December   2020                               

  Number of CPUs =     1


  Total number of configurations input =      1

********************************************************************************
*  Input for Configuration =   1                                               *
********************************************************************************

  Formula = ClOLi3                                                      

  Number of irreducible atoms/shells =       5


  Total number atoms/shells =       7

  Dimensionality = 3               :  Bulk   


  Symmetry :

  Crystal family                   :  Cubic       
  Crystal class  (Groth - 1921)    :  Cubic Hexakisoctahedral              

  Space group (centrosymmetric)    :  P M 3 M         

  Patterson group                  :  P m -3 m 

  Cartesian lattice vectors (Angstroms) :

        3.918873    0.000000    0.000000
        0.000000    3.918873    0.000000
        0.000000    0.000000    3.918873

  Cell parameters (Angstroms/Degrees):

  a =       3.9189    alpha =  90.0000
  b =       3.9189    beta  =  90.0000
  c =       3.9189    gamma =  90.0000

  Initial cell volume =          60.184349 Angs**3

  Temperature of configuration =   0.00     K 

  Pressure of configuration =         0.000 GPa 

  Fractional coordinates of asymmetric unit :

--------------------------------------------------------------------------------
   No.  Atomic       x           y          z         Charge      Occupancy
        Label      (Frac)      (Frac)     (Frac)        (e)         (Frac)  
--------------------------------------------------------------------------------
      1 Cl    c    0.000000    0.000000    0.000000     1.48500    1.000000    
      2 O     c    0.500000    0.500000    0.500000     0.18300    1.000000    
      3 Li    c    0.500000    0.500000    0.000000     1.00000    1.000000    
      4 Cl    s    0.000000    0.000000    0.000000    -2.48500    1.000000    
      5 O     s    0.500000    0.500000    0.500000    -2.18300    1.000000    
--------------------------------------------------------------------------------


  Constraints : 

--------------------------------------------------------------------------------
  Constraint no.      Unconstrained     Constrained    Coefficient    Offset
                         Variable         Variable
--------------------------------------------------------------------------------
           1              Strain 1        Strain 2       1.00000      0.0000
           2              Strain 1        Strain 3       1.00000      0.0000
--------------------------------------------------------------------------------


********************************************************************************
*  General input information                                                   *
********************************************************************************

  Species output for all configurations : 

--------------------------------------------------------------------------------
  Species    Type    Atomic    Atomic    Charge       Radii (Angs)     Library
                     Number     Mass       (e)     Cova   Ionic  VDW   Symbol
--------------------------------------------------------------------------------
    Li       Core        3       6.94   1.000000   0.680  0.000  1.800          
    O        Core        8      16.00   0.183000   0.730  0.000  1.360          
    O        Shell       8       0.00  -2.183000   0.730  0.000  1.360          
    Cl       Core       17      35.45   1.485000   0.990  0.000  1.650          
    Cl       Shell      17       0.00  -2.485000   0.990  0.000  1.650          
    Mg       Core       12      24.31   0.415000   1.100  0.000  0.000          
    Mg       Shell      12       0.00   1.585000   1.100  0.000  0.000          
    Ca       Core       20      40.08  -1.135000   0.990  0.000  0.000          
    Ca       Shell      20       0.00   3.135000   0.990  0.000  0.000          
    Sr       Core       38      87.62  -1.251000   1.120  0.000  0.000          
    Sr       Shell      38       0.00   3.251000   1.120  0.000  0.000          
    Ba       Core       56     137.33  -7.203000   1.340  0.000  0.000          
    Ba       Shell      56       0.00   9.203000   1.340  0.000  0.000          
--------------------------------------------------------------------------------


  Lattice summation method               =    Ewald          (3-D)
                                         =    Parry          (2-D)
                                         =    Saunders et al (1-D)
  Accuracy factor for lattice sums       =   12.000


  Analytic derivatives to be used

  Time limit = Infinity

  Maximum range for interatomic potentials =    100000.000000 Angstroms

  General interatomic potentials :

--------------------------------------------------------------------------------
Atom  Types   Potential      Parameter       Value         Units   Cutoffs(Ang)
  1     2                                                            Min /  Max 
--------------------------------------------------------------------------------
O    c O    s Spring (c-s)  Spring k 2       593.71600    eV*Ang^-2 0.000  0.800
                            Spring k 4       0.0000000    eV*Ang^-4 
--------------------------------------------------------------------------------
Cl   c Cl   s Spring (c-s)  Spring k 2       29.380000    eV*Ang^-2 0.000  0.800
                            Spring k 4       0.0000000    eV*Ang^-4 
--------------------------------------------------------------------------------
Mg   c Mg   s Spring (c-s)  Spring k 2       361.60000    eV*Ang^-2 0.000  0.800
                            Spring k 4       0.0000000    eV*Ang^-4 
--------------------------------------------------------------------------------
Ca   c Ca   s Spring (c-s)  Spring k 2       110.20000    eV*Ang^-2 0.000  0.800
                            Spring k 4       0.0000000    eV*Ang^-4 
--------------------------------------------------------------------------------
Sr   c Sr   s Spring (c-s)  Spring k 2       71.700000    eV*Ang^-2 0.000  0.800
                            Spring k 4       0.0000000    eV*Ang^-4 
--------------------------------------------------------------------------------
Ba   c Ba   s Spring (c-s)  Spring k 2       495.20000    eV*Ang^-2 0.000  0.800
                            Spring k 4       0.0000000    eV*Ang^-4 
--------------------------------------------------------------------------------
Li   c Li   c Buckingham    Buckingham A     360.53000    eV        0.000 12.000
                            Buckingham rho  0.16100000    Ang       
                            Buckingham C     0.0000000    eV*Ang^6  
--------------------------------------------------------------------------------
Li   c O    s Buckingham    Buckingham A     292.30000    eV        0.000 12.000
                            Buckingham rho  0.34700000    Ang       
                            Buckingham C     0.0000000    eV*Ang^6  
--------------------------------------------------------------------------------
Li   c Cl   s Buckingham    Buckingham A     421.04000    eV        0.000 12.000
                            Buckingham rho  0.33400000    Ang       
                            Buckingham C     0.0000000    eV*Ang^6  
--------------------------------------------------------------------------------
O    s O    s Buckingham    Buckingham A     22764.300    eV        0.000 12.000
                            Buckingham rho  0.14900000    Ang       
                            Buckingham C     13.190000    eV*Ang^6  
--------------------------------------------------------------------------------
O    s Cl   s Buckingham    Buckingham A     8286.9100    eV        0.000 12.000
                            Buckingham rho  0.25900000    Ang       
                            Buckingham C     62.200000    eV*Ang^6  
--------------------------------------------------------------------------------
Cl   s Cl   s Buckingham    Buckingham A     1227.2000    eV        0.000 12.000
                            Buckingham rho  0.32100000    Ang       
                            Buckingham C     14.530000    eV*Ang^6  
--------------------------------------------------------------------------------
O    s Mg   s Buckingham    Buckingham A     1428.5000    eV        0.000 12.000
                            Buckingham rho  0.29450000    Ang       
                            Buckingham C     0.0000000    eV*Ang^6  
--------------------------------------------------------------------------------
Mg   s Cl   s Buckingham    Buckingham A     4914.5400    eV        0.000 12.000
                            Buckingham rho  0.25700000    Ang       
                            Buckingham C     0.0000000    eV*Ang^6  
--------------------------------------------------------------------------------
O    s Ca   s Buckingham    Buckingham A     1090.4000    eV        0.000 12.000
                            Buckingham rho  0.34370000    Ang       
                            Buckingham C     0.0000000    eV*Ang^6  
--------------------------------------------------------------------------------
Cl   s Ca   s Buckingham    Buckingham A     2302.0000    eV        0.000 12.000
                            Buckingham rho  0.34020000    Ang       
                            Buckingham C     0.0000000    eV*Ang^6  
--------------------------------------------------------------------------------
O    s Sr   s Buckingham    Buckingham A     959.10000    eV        0.000 12.000
                            Buckingham rho  0.37210000    Ang       
                            Buckingham C     0.0000000    eV*Ang^6  
--------------------------------------------------------------------------------
Cl   s Sr   s Buckingham    Buckingham A     2191.0900    eV        0.000 12.000
                            Buckingham rho  0.34570000    Ang       
                            Buckingham C     0.0000000    eV*Ang^6  
--------------------------------------------------------------------------------
O    s Ba   s Buckingham    Buckingham A     905.70000    eV        0.000 12.000
                            Buckingham rho  0.39760000    Ang       
                            Buckingham C     0.0000000    eV*Ang^6  
--------------------------------------------------------------------------------
Cl   s Ba   s Buckingham    Buckingham A     2704.5500    eV        0.000 12.000
                            Buckingham rho  0.35280000    Ang       
                            Buckingham C     0.0000000    eV*Ang^6  
--------------------------------------------------------------------------------

********************************************************************************
*  Output for configuration   1                                                *
********************************************************************************


  Components of energy : 

--------------------------------------------------------------------------------
  Interatomic potentials     =           7.24802695 eV    
  Monopole - monopole (real) =         -11.53475722 eV    
  Monopole - monopole (recip)=         -33.94580548 eV    
  Monopole - monopole (total)=         -45.48056271 eV    
--------------------------------------------------------------------------------
  Total lattice energy       =         -38.23253575 eV    
--------------------------------------------------------------------------------
  Total lattice energy       =           -3688.8553 kJ/(mole unit cells)
--------------------------------------------------------------------------------


  Number of variables =        1

  Maximum number of calculations  =          1000
  Maximum Hessian update interval =            10
  Maximum step size               =   1.000000000
  Maximum parameter tolerance     =   0.000010000
  Maximum function  tolerance     =   0.000010000
  Maximum gradient  tolerance     =   0.001000000
  Maximum gradient  component     =   0.010000000

  Symmetry constrained optimisation

  Symmetry used for second derivatives

  Cell parameters to be optimised using strains

  Newton-Raphson optimiser to be used

  BFGS hessian update to be used

  Lower half triangular hessian to be used

  Start of bulk optimisation :

  Cycle:      0 Energy:       -38.232536  Gnorm:      0.000019  CPU:    0.006


  **** Optimisation achieved ****


  Final energy =     -38.23253575 eV
  Final Gnorm  =       0.00001878

  Components of energy : 

--------------------------------------------------------------------------------
  Interatomic potentials     =           7.24802695 eV    
  Monopole - monopole (real) =         -11.53475722 eV    
  Monopole - monopole (recip)=         -33.94580548 eV    
  Monopole - monopole (total)=         -45.48056271 eV    
--------------------------------------------------------------------------------
  Total lattice energy       =         -38.23253575 eV    
--------------------------------------------------------------------------------
  Total lattice energy       =           -3688.8553 kJ/(mole unit cells)
--------------------------------------------------------------------------------

  Final asymmetric unit coordinates :

--------------------------------------------------------------------------------
   No.  Atomic        x           y           z         Radius
        Label       (Frac)      (Frac)      (Frac)       (Angs) 
--------------------------------------------------------------------------------
     1  Cl    c     0.000000    0.000000    0.000000    0.000000
     2  O     c     0.500000    0.500000    0.500000    0.000000
     3  Li    c     0.500000    0.500000    0.000000    0.000000
     4  Cl    s     0.000000    0.000000    0.000000    0.000000
     5  O     s     0.500000    0.500000    0.500000    0.000000
--------------------------------------------------------------------------------

  Final Cartesian lattice vectors (Angstroms) :

        3.918873    0.000000    0.000000
        0.000000    3.918873    0.000000
        0.000000    0.000000    3.918873


  Final cell parameters and derivatives :

--------------------------------------------------------------------------------
       a            3.918873 Angstrom     dE/de1(xx)    -0.000019 eV/strain
       b            3.918873 Angstrom     dE/de2(yy)     0.000000 eV/strain
       c            3.918873 Angstrom     dE/de3(zz)     0.000000 eV/strain
       alpha       90.000000 Degrees      dE/de4(yz)     0.000000 eV/strain
       beta        90.000000 Degrees      dE/de5(xz)     0.000000 eV/strain
       gamma       90.000000 Degrees      dE/de6(xy)     0.000000 eV/strain
--------------------------------------------------------------------------------

  Primitive cell volume =            60.184349 Angs**3

  Density of cell =      1.994024 g/cm**3

  Non-primitive cell volume =            60.184349 Angs**3


  Final internal derivatives :

--------------------------------------------------------------------------------
   No.  Atomic          a             b             c           Radius
        Label          (eV)          (eV)          (eV)        (eV/Angs)
--------------------------------------------------------------------------------
      1 Cl    c       0.000000      0.000000      0.000000      0.000000
      2 O     c       0.000000      0.000000      0.000000      0.000000
      3 Li    c       0.000000      0.000000      0.000000      0.000000
      4 Cl    s       0.000000      0.000000      0.000000      0.000000
      5 O     s       0.000000      0.000000      0.000000      0.000000
--------------------------------------------------------------------------------
  Maximum abs         0.000000      0.000000      0.000000      0.000000
--------------------------------------------------------------------------------

  Comparison of initial and final structures : 

--------------------------------------------------------------------------------
  Parameter   Initial value   Final value   Difference    Units      Percent
--------------------------------------------------------------------------------
    Volume        60.184349     60.184349     0.000000    Angs**3      0.00
    a              3.918873      3.918873     0.000000    Angstroms    0.00
    b              3.918873      3.918873     0.000000    Angstroms    0.00
    c              3.918873      3.918873     0.000000    Angstroms    0.00
    alpha         90.000000     90.000000     0.000000    Degrees      0.00
    beta          90.000000     90.000000     0.000000    Degrees      0.00
    gamma         90.000000     90.000000     0.000000    Degrees      0.00
      1 x          0.000000      0.000000     0.000000    Fractional   0.00
      1 y          0.000000      0.000000     0.000000    Fractional   0.00
      1 z          0.000000      0.000000     0.000000    Fractional   0.00
      2 x          0.500000      0.500000     0.000000    Fractional   0.00
      2 y          0.500000      0.500000     0.000000    Fractional   0.00
      2 z          0.500000      0.500000     0.000000    Fractional   0.00
      3 x          0.500000      0.500000     0.000000    Fractional   0.00
      3 y          0.500000      0.500000     0.000000    Fractional   0.00
      3 z          0.000000      0.000000     0.000000    Fractional   0.00
      4 x          0.000000      0.000000     0.000000    Fractional   0.00
      4 y          0.000000      0.000000     0.000000    Fractional   0.00
      4 z          0.000000      0.000000     0.000000    Fractional   0.00
      5 x          0.500000      0.500000     0.000000    Fractional   0.00
      5 y          0.500000      0.500000     0.000000    Fractional   0.00
      5 z          0.500000      0.500000     0.000000    Fractional   0.00
--------------------------------------------------------------------------------


  Born effective charge tensors : 

-------------------------------------------------------------------------------
  Atom             x           y             z
-------------------------------------------------------------------------------
    1 Cl    x      -0.9481      0.0000      0.0000
            y       0.0000     -0.9481      0.0000
            z       0.0000      0.0000     -0.9481
-------------------------------------------------------------------------------
    2 O     x      -2.4696     -0.0000     -0.0000
            y      -0.0000     -2.4696     -0.0000
            z      -0.0000     -0.0000     -2.4696
-------------------------------------------------------------------------------
    3 Li    x       1.3129     -0.0000     -0.0000
            y      -0.0000      1.3129      0.0000
            z      -0.0000     -0.0000      0.7918
-------------------------------------------------------------------------------




  Elastic Constant Matrix: (Units=GPa)

-------------------------------------------------------------------------------
  Indices      1         2         3         4         5         6    
-------------------------------------------------------------------------------
       1     94.4615   45.0779   45.0779    0.0000   -0.0000    0.0000
       2     45.0779   94.4615   45.0779   -0.0000    0.0000   -0.0000
       3     45.0779   45.0779   94.4615   -0.0000   -0.0000   -0.0000
       4      0.0000   -0.0000   -0.0000   45.0779   -0.0000   -0.0000
       5     -0.0000    0.0000   -0.0000   -0.0000   45.0779   -0.0000
       6      0.0000   -0.0000   -0.0000   -0.0000   -0.0000   45.0779
-------------------------------------------------------------------------------


  Elastic Compliance Matrix: (Units=1/GPa)

-------------------------------------------------------------------------------
  Indices      1         2         3         4         5         6    
-------------------------------------------------------------------------------
       1    0.015305 -0.004944 -0.004944 -0.000000  0.000000 -0.000000
       2   -0.004944  0.015305 -0.004944  0.000000 -0.000000  0.000000
       3   -0.004944 -0.004944  0.015305  0.000000  0.000000  0.000000
       4   -0.000000  0.000000  0.000000  0.022184  0.000000  0.000000
       5    0.000000 -0.000000  0.000000  0.000000  0.022184  0.000000
       6   -0.000000  0.000000  0.000000  0.000000  0.000000  0.022184
-------------------------------------------------------------------------------

  Mechanical properties :

-------------------------------------------------------------------------------
  Convention :                    Reuss         Voigt         Hill
-------------------------------------------------------------------------------
  Bulk  Modulus (GPa)     =      61.53912      61.53912      61.53912
  Shear Modulus (GPa)     =      33.88682      36.92346      35.40514
-------------------------------------------------------------------------------
  Velocity S-wave (km/s)  =       4.12240       4.30314       4.21374
  Velocity P-wave (km/s)  =       7.31578       7.45327       7.38484
-------------------------------------------------------------------------------
  Compressibility (1/GPa) =    0.01624983
-------------------------------------------------------------------------------
  Stress axis :                     x             y             z
-------------------------------------------------------------------------------
  Youngs Moduli (GPa)     =      65.33688      65.33688      65.33688
-------------------------------------------------------------------------------
  Poissons Ratio (x)      =                     0.32305       0.32305
  Poissons Ratio (y)      =       0.32305                     0.32305
  Poissons Ratio (z)      =       0.32305       0.32305
-------------------------------------------------------------------------------


  Piezoelectric Strain Matrix: (Units=C/m**2)

-------------------------------------------------------------------------------
  Indices      1         2         3         4         5         6    
-------------------------------------------------------------------------------
       x    -0.00000   0.00000   0.00000   0.00000   0.00000   0.00000
       y    -0.00000  -0.00000  -0.00000   0.00000   0.00000  -0.00000
       z    -0.00000  -0.00000   0.00000   0.00000  -0.00000   0.00000
-------------------------------------------------------------------------------


  Piezoelectric Stress Matrix: (Units=10**-11 C/N)

-------------------------------------------------------------------------------
  Indices      1         2         3         4         5         6    
-------------------------------------------------------------------------------
       x    -0.00000   0.00000   0.00000   0.00000   0.00000   0.00000
       y     0.00000   0.00000  -0.00000   0.00000   0.00000  -0.00000
       z    -0.00000  -0.00000   0.00000   0.00000  -0.00000   0.00000
-------------------------------------------------------------------------------


  Static dielectric constant tensor : 

-------------------------------------------------------------------------------
              x         y         z
-------------------------------------------------------------------------------
       x    12.07041   0.00000   0.00000
       y     0.00000  12.07041   0.00000
       z     0.00000   0.00000  12.07041
--------------------------------------------------------------------------------

  High frequency dielectric constant tensor : 

-------------------------------------------------------------------------------
              x         y         z
-------------------------------------------------------------------------------
       x     1.74197  -0.00000  -0.00000
       y    -0.00000   1.74197  -0.00000
       z    -0.00000  -0.00000   1.74197
-------------------------------------------------------------------------------

  Static refractive indices : 

-------------------------------------------------------------------------------
    1 =    3.47425      2 =    3.47425      3 =    3.47425
-------------------------------------------------------------------------------

  High frequency refractive indices : 

-------------------------------------------------------------------------------
    1 =    1.31984      2 =    1.31984      3 =    1.31984
-------------------------------------------------------------------------------


  Time to end of optimisation =       0.0097 seconds

********************************************************************************
*  Defect calculation for configuration   1 :                                  *
********************************************************************************

  Total number of defects =      1

  Total charge on defect  =  -1.00

  Defect centre is at   0.5000   0.0000   0.0000  Frac

  Region 1 radius =  16.0000      Number of ions =   2034

  Number of symmetry inequivalent region 1 ions  =    193

  Region 2 radius =  20.0000      Number of ions =   1840

  Number of symmetry inequivalent region 2a ions =    146

  Region 2a mode = 4 : screened electrostatics due to region 1 
                       neglect correction to region 1 forces from 2a
                       region 2a displacements based on defects only

  Region 2a ions will only interact with defects in region 1

  Interstitials:

--------------------------------------------------------------------------------
    Specification type     Symbol/Number         x          y          z
--------------------------------------------------------------------------------
    Atom/Fractional         Cl               0.500000   0.000000   0.000000
--------------------------------------------------------------------------------


  Symmetry reduced region 1 (Relative to defect centre) :

--------------------------------------------------------------------------------
   No.   Atomic       x            y             z       Radius  Multiplicity   
         Label      (Angs)       (Angs)        (Angs)    (Angs)     
--------------------------------------------------------------------------------
     1  Cl    c      0.0000       0.0000       0.0000    0.0000     1    Defect
     2  Cl    c      1.9594 *     0.0000       0.0000    0.0000     2          
     3  Li    c      0.0000      -1.9594 *     0.0000    0.0000     4          
     4  O     c      0.0000      -1.9594 *    -1.9594    0.0000     4          
     5  Li    c      1.9594 *    -1.9594 *    -1.9594    0.0000     8          
     6  Cl    c      1.9594 *     0.0000       3.9189 *  0.0000     8          
     7  Li    c      0.0000      -1.9594 *     3.9189 *  0.0000     8          
     8  Li    c      3.9189 *    -1.9594 *     0.0000    0.0000     8          
     9  O     c      3.9189 *    -1.9594 *    -1.9594    0.0000     8          
    10  Cl    c      1.9594 *     3.9189 *     3.9189    0.0000     8          
    11  Cl    c      5.8783 *     0.0000       0.0000    0.0000     2          
    12  Li    c      0.0000       5.8783 *     0.0000    0.0000     4          
    13  Li    c      3.9189 *    -1.9594 *     3.9189 *  0.0000    16          
    14  O     c      0.0000      -1.9594 *     5.8783 *  0.0000     8          
    15  Li    c      1.9594 *     5.8783 *    -1.9594 *  0.0000    16          
    16  Li    c      5.8783 *    -1.9594 *    -1.9594    0.0000     8          
    17  Cl    c      5.8783 *     0.0000       3.9189 *  0.0000     8          
    18  Li    c      0.0000       5.8783 *     3.9189 *  0.0000     8          
    19  Li    c      3.9189 *     5.8783 *     0.0000    0.0000     8          
    20  O     c      3.9189 *    -1.9594 *     5.8783 *  0.0000    16          
    21  Li    c      7.8377 *    -1.9594 *     0.0000    0.0000     8          
    22  Cl    c      1.9594 *     0.0000       7.8377 *  0.0000     8          
    23  Cl    c      5.8783 *     3.9189 *     3.9189    0.0000     8          
    24  Li    c      0.0000      -1.9594 *     7.8377 *  0.0000     8          
    25  Li    c      3.9189 *     5.8783 *     3.9189 *  0.0000    16          
    26  O     c      7.8377 *    -1.9594 *    -1.9594    0.0000     8          
    27  O     c      0.0000       5.8783 *     5.8783    0.0000     4          
    28  Li    c      1.9594 *     5.8783 *     5.8783    0.0000     8          
    29  Li    c      5.8783 *    -1.9594 *     5.8783 *  0.0000    16          
    30  Li    c      7.8377 *    -1.9594 *     3.9189 *  0.0000    16          
    31  Cl    c      1.9594 *     3.9189 *     7.8377 *  0.0000    16          
    32  Li    c      3.9189 *    -1.9594 *     7.8377 *  0.0000    16          
    33  O     c      3.9189 *     5.8783 *     5.8783    0.0000     8          
    34  Cl    c      9.7972 *     0.0000       0.0000    0.0000     2          
    35  Li    c      0.0000       9.7972 *     0.0000    0.0000     4          
    36  Li    c      7.8377 *     5.8783 *     0.0000    0.0000     8          
    37  Cl    c      5.8783 *     0.0000       7.8377 *  0.0000     8          
    38  Li    c      0.0000       5.8783 *     7.8377 *  0.0000     8          
    39  O     c      0.0000      -1.9594 *     9.7972 *  0.0000     8          
    40  O     c      7.8377 *    -1.9594 *     5.8783 *  0.0000    16          
    41  Li    c      1.9594 *    -1.9594 *     9.7972 *  0.0000    16          
    42  Li    c      9.7972 *    -1.9594 *    -1.9594    0.0000     8          
    43  Li    c      5.8783 *     5.8783 *     5.8783    0.0000     8          
    44  Cl    c      9.7972 *     0.0000       3.9189 *  0.0000     8          
    45  Li    c      0.0000       9.7972 *     3.9189 *  0.0000     8          
    46  Li    c      3.9189 *     9.7972 *     0.0000    0.0000     8          
    47  Li    c      7.8377 *     5.8783 *     3.9189 *  0.0000    16          
    48  Li    c      3.9189 *     7.8377 *     5.8783 *  0.0000    16          
    49  Cl    c      5.8783 *     3.9189 *     7.8377 *  0.0000    16          
    50  O     c      3.9189 *    -1.9594 *     9.7972 *  0.0000    16          
    51  Li    c      7.8377 *    -1.9594 *     7.8377 *  0.0000    16          
    52  Cl    c      9.7972 *     3.9189 *     3.9189    0.0000     8          
    53  Li    c      3.9189 *     9.7972 *     3.9189 *  0.0000    16          
    54  Cl    c      1.9594 *     7.8377 *     7.8377    0.0000     8          
    55  O     c      0.0000       5.8783 *     9.7972 *  0.0000     8          
    56  O     c      7.8377 *     5.8783 *     5.8783    0.0000     8          
    57  Li    c      1.9594 *     5.8783 *     9.7972 *  0.0000    16          
    58  Li    c      5.8783 *    -1.9594 *     9.7972 *  0.0000    16          
    59  Li    c      9.7972 *    -1.9594 *     5.8783 *  0.0000    16          
    60  Li    c    -11.7566 *    -1.9594 *     0.0000    0.0000     8          
    61  Cl    c      1.9594 *     0.0000      11.7566 *  0.0000     8          
    62  Li    c      0.0000      -1.9594 *    11.7566 *  0.0000     8          
    63  O     c    -11.7566 *    -1.9594 *    -1.9594    0.0000     8          
    64  O     c      3.9189 *     5.8783 *     9.7972 *  0.0000    16          
    65  Li    c    -11.7566 *    -1.9594 *     3.9189 *  0.0000    16          
    66  Cl    c      1.9594 *    11.7566 *     3.9189 *  0.0000    16          
    67  Cl    c      9.7972 *     0.0000       7.8377 *  0.0000     8          
    68  Li    c      0.0000       9.7972 *     7.8377 *  0.0000     8          
    69  Li    c      7.8377 *     5.8783 *     7.8377 *  0.0000    16          
    70  Li    c      7.8377 *     9.7972 *     0.0000    0.0000     8          
    71  Li    c      3.9189 *    11.7566 *    -1.9594 *  0.0000    16          
    72  Cl    c      5.8783 *     7.8377 *     7.8377    0.0000     8          
    73  O     c      7.8377 *    -1.9594 *     9.7972 *  0.0000    16          
    74  Li    c      5.8783 *     5.8783 *     9.7972 *  0.0000    16          
    75  Li    c      9.7972 *     5.8783 *     5.8783    0.0000     8          
    76  Li    c    -11.7566 *     5.8783 *     0.0000    0.0000     8          
    77  Cl    c      9.7972 *     7.8377 *     3.9189 *  0.0000    16          
    78  Li    c      7.8377 *     9.7972 *     3.9189 *  0.0000    16          
    79  Li    c      3.9189 *     7.8377 *     9.7972 *  0.0000    16          
    80  Cl    c      5.8783 *     0.0000      11.7566 *  0.0000     8          
    81  Li    c      0.0000       5.8783 *    11.7566 *  0.0000     8          
    82  O     c    -11.7566 *    -1.9594 *     5.8783 *  0.0000    16          
    83  Cl    c    -13.7161 *     0.0000       0.0000    0.0000     2          
    84  Li    c    -11.7566 *     5.8783 *     3.9189 *  0.0000    16          
    85  Cl    c      5.8783 *    11.7566 *     3.9189 *  0.0000    16          
    86  Li    c      0.0000      13.7161 *     0.0000    0.0000     4          
    87  Li    c      3.9189 *    11.7566 *     5.8783 *  0.0000    16          
    88  O     c      0.0000      -1.9594 *    13.7161 *  0.0000     8          
    89  O     c      0.0000       9.7972 *     9.7972    0.0000     4          
    90  O     c      7.8377 *     5.8783 *     9.7972 *  0.0000    16          
    91  Li    c    -13.7161 *    -1.9594 *    -1.9594    0.0000     8          
    92  Li    c      1.9594 *     9.7972 *     9.7972    0.0000     8          
    93  Li    c      1.9594 *    13.7161 *    -1.9594 *  0.0000    16          
    94  Li    c      9.7972 *    -1.9594 *     9.7972 *  0.0000    16          
    95  Cl    c    -13.7161 *     0.0000       3.9189 *  0.0000     8          
    96  Li    c    -11.7566 *    -1.9594 *     7.8377 *  0.0000    16          
    97  Li    c      0.0000      13.7161 *     3.9189 *  0.0000     8          
    98  Li    c      3.9189 *    13.7161 *     0.0000    0.0000     8          
    99  Li    c      7.8377 *    11.7566 *    -1.9594 *  0.0000    16          
   100  Cl    c      1.9594 *     7.8377 *    11.7566 *  0.0000    16          
   101  O     c    -11.7566 *     5.8783 *     5.8783    0.0000     8          
   102  O     c      3.9189 *     9.7972 *     9.7972    0.0000     8          
   103  O     c      3.9189 *    13.7161 *    -1.9594 *  0.0000    16          
   104  Cl    c    -13.7161 *     3.9189 *     3.9189    0.0000     8          
   105  Li    c      3.9189 *    13.7161 *     3.9189 *  0.0000    16          
   106  Li    c      7.8377 *     7.8377 *     9.7972 *  0.0000    16          
   107  Cl    c      9.7972 *     7.8377 *     7.8377    0.0000     8          
   108  O     c      0.0000       5.8783 *    13.7161 *  0.0000     8          
   109  Li    c    -13.7161 *    -1.9594 *     5.8783 *  0.0000    16          
   110  Li    c      1.9594 *    13.7161 *     5.8783 *  0.0000    16          
   111  Li    c      5.8783 *    13.7161 *    -1.9594 *  0.0000    16          
   112  Li    c      9.7972 *     9.7972 *     5.8783 *  0.0000    16          
   113  Li    c      5.8783 *     9.7972 *     9.7972    0.0000     8          
   114  Li    c    -11.7566 *     9.7972 *     0.0000    0.0000     8          
   115  Li    c    -11.7566 *     5.8783 *     7.8377 *  0.0000    16          
   116  Cl    c      9.7972 *     0.0000      11.7566 *  0.0000     8          
   117  Li    c      0.0000       9.7972 *    11.7566 *  0.0000     8          
   118  Li    c      7.8377 *     5.8783 *    11.7566 *  0.0000    16          
   119  Cl    c      5.8783 *     7.8377 *    11.7566 *  0.0000    16          
   120  O     c    -11.7566 *     9.7972 *    -1.9594 *  0.0000    16          
   121  O     c      3.9189 *    13.7161 *     5.8783 *  0.0000    16          
   122  Li    c    -11.7566 *     9.7972 *     3.9189 *  0.0000    16          
   123  Cl    c    -13.7161 *     0.0000       7.8377 *  0.0000     8          
   124  Cl    c      9.7972 *    11.7566 *     3.9189 *  0.0000    16          
   125  Li    c      7.8377 *    13.7161 *     0.0000    0.0000     8          
   126  Cl    c      1.9594 *     0.0000      15.6755 *  0.0000     8          
   127  Li    c      0.0000      -1.9594 *    15.6755 *  0.0000     8          
   128  Li    c      0.0000      13.7161 *     7.8377 *  0.0000     8          
   129  Li    c      3.9189 *     9.7972 *    11.7566 *  0.0000    16          
   130  Li    c     15.6755 *    -1.9594 *     0.0000    0.0000     8          
   131  O     c      7.8377 *    -1.9594 *    13.7161 *  0.0000    16          
   132  O     c      7.8377 *     9.7972 *     9.7972    0.0000     8          
   133  O     c     15.6755 *    -1.9594 *    -1.9594    0.0000     8          
   134  Cl    s      0.0000       0.0000       0.0000    0.0000     1    Defect
   135  Cl    s      1.9594 *     0.0000       0.0000    0.0000     2          
   136  O     s      0.0000      -1.9594 *    -1.9594    0.0000     4          
   137  Cl    s      1.9594 *     0.0000       3.9189 *  0.0000     8          
   138  O     s      3.9189 *    -1.9594 *    -1.9594    0.0000     8          
   139  Cl    s      1.9594 *     3.9189 *     3.9189    0.0000     8          
   140  Cl    s      5.8783 *     0.0000       0.0000    0.0000     2          
   141  O     s      0.0000      -1.9594 *     5.8783 *  0.0000     8          
   142  Cl    s      5.8783 *     0.0000       3.9189 *  0.0000     8          
   143  O     s      3.9189 *    -1.9594 *     5.8783 *  0.0000    16          
   144  Cl    s      1.9594 *     0.0000       7.8377 *  0.0000     8          
   145  Cl    s      5.8783 *     3.9189 *     3.9189    0.0000     8          
   146  O     s      7.8377 *    -1.9594 *    -1.9594    0.0000     8          
   147  O     s      0.0000       5.8783 *     5.8783    0.0000     4          
   148  Cl    s      1.9594 *     3.9189 *     7.8377 *  0.0000    16          
   149  O     s      3.9189 *     5.8783 *     5.8783    0.0000     8          
   150  Cl    s      9.7972 *     0.0000       0.0000    0.0000     2          
   151  Cl    s      5.8783 *     0.0000       7.8377 *  0.0000     8          
   152  O     s      0.0000      -1.9594 *     9.7972 *  0.0000     8          
   153  O     s      7.8377 *    -1.9594 *     5.8783 *  0.0000    16          
   154  Cl    s      9.7972 *     0.0000       3.9189 *  0.0000     8          
   155  Cl    s      5.8783 *     3.9189 *     7.8377 *  0.0000    16          
   156  O     s      3.9189 *    -1.9594 *     9.7972 *  0.0000    16          
   157  Cl    s      9.7972 *     3.9189 *     3.9189    0.0000     8          
   158  Cl    s      1.9594 *     7.8377 *     7.8377    0.0000     8          
   159  O     s      0.0000       5.8783 *     9.7972 *  0.0000     8          
   160  O     s      7.8377 *     5.8783 *     5.8783    0.0000     8          
   161  Cl    s      1.9594 *     0.0000      11.7566 *  0.0000     8          
   162  O     s    -11.7566 *    -1.9594 *    -1.9594    0.0000     8          
   163  O     s      3.9189 *     5.8783 *     9.7972 *  0.0000    16          
   164  Cl    s      1.9594 *    11.7566 *     3.9189 *  0.0000    16          
   165  Cl    s      9.7972 *     0.0000       7.8377 *  0.0000     8          
   166  Cl    s      5.8783 *     7.8377 *     7.8377    0.0000     8          
   167  O     s      7.8377 *    -1.9594 *     9.7972 *  0.0000    16          
   168  Cl    s      9.7972 *     7.8377 *     3.9189 *  0.0000    16          
   169  Cl    s      5.8783 *     0.0000      11.7566 *  0.0000     8          
   170  O     s    -11.7566 *    -1.9594 *     5.8783 *  0.0000    16          
   171  Cl    s    -13.7161 *     0.0000       0.0000    0.0000     2          
   172  Cl    s      5.8783 *    11.7566 *     3.9189 *  0.0000    16          
   173  O     s      0.0000      -1.9594 *    13.7161 *  0.0000     8          
   174  O     s      0.0000       9.7972 *     9.7972    0.0000     4          
   175  O     s      7.8377 *     5.8783 *     9.7972 *  0.0000    16          
   176  Cl    s    -13.7161 *     0.0000       3.9189 *  0.0000     8          
   177  Cl    s      1.9594 *     7.8377 *    11.7566 *  0.0000    16          
   178  O     s    -11.7566 *     5.8783 *     5.8783    0.0000     8          
   179  O     s      3.9189 *     9.7972 *     9.7972    0.0000     8          
   180  O     s      3.9189 *    13.7161 *    -1.9594 *  0.0000    16          
   181  Cl    s    -13.7161 *     3.9189 *     3.9189    0.0000     8          
   182  Cl    s      9.7972 *     7.8377 *     7.8377    0.0000     8          
   183  O     s      0.0000       5.8783 *    13.7161 *  0.0000     8          
   184  Cl    s      9.7972 *     0.0000      11.7566 *  0.0000     8          
   185  Cl    s      5.8783 *     7.8377 *    11.7566 *  0.0000    16          
   186  O     s    -11.7566 *     9.7972 *    -1.9594 *  0.0000    16          
   187  O     s      3.9189 *    13.7161 *     5.8783 *  0.0000    16          
   188  Cl    s    -13.7161 *     0.0000       7.8377 *  0.0000     8          
   189  Cl    s      9.7972 *    11.7566 *     3.9189 *  0.0000    16          
   190  Cl    s      1.9594 *     0.0000      15.6755 *  0.0000     8          
   191  O     s      7.8377 *    -1.9594 *    13.7161 *  0.0000    16          
   192  O     s      7.8377 *     9.7972 *     9.7972    0.0000     8          
   193  O     s     15.6755 *    -1.9594 *    -1.9594    0.0000     8          
--------------------------------------------------------------------------------


  Constraints on symmetry reduced coordinates :

--------------------------------------------------------------------------------
  Constraint no.      Unconstrained     Constrained    Coefficient    
                         Variable         Variable
--------------------------------------------------------------------------------
           1                 4 y             4 z         1.00000
           2                 5 y             5 z         1.00000
           3                 9 y             9 z         1.00000
           4                10 y            10 z         1.00000
           5                16 y            16 z         1.00000
           6                23 y            23 z         1.00000
           7                26 y            26 z         1.00000
           8                27 y            27 z         1.00000
           9                28 y            28 z         1.00000
          10                33 y            33 z         1.00000
          11                42 y            42 z         1.00000
          12                43 y            43 z         1.00000
          13                52 y            52 z         1.00000
          14                54 y            54 z         1.00000
          15                56 y            56 z         1.00000
          16                63 y            63 z         1.00000
          17                72 y            72 z         1.00000
          18                75 y            75 z         1.00000
          19                89 y            89 z         1.00000
          20                91 y            91 z         1.00000
          21                92 y            92 z         1.00000
          22               101 y           101 z         1.00000
          23               102 y           102 z         1.00000
          24               104 y           104 z         1.00000
          25               107 y           107 z         1.00000
          26               113 y           113 z         1.00000
          27               132 y           132 z         1.00000
          28               133 y           133 z         1.00000
          29               136 y           136 z         1.00000
          30               138 y           138 z         1.00000
          31               139 y           139 z         1.00000
          32               145 y           145 z         1.00000
          33               146 y           146 z         1.00000
          34               147 y           147 z         1.00000
          35               149 y           149 z         1.00000
          36               157 y           157 z         1.00000
          37               158 y           158 z         1.00000
          38               160 y           160 z         1.00000
          39               162 y           162 z         1.00000
          40               166 y           166 z         1.00000
          41               174 y           174 z         1.00000
          42               178 y           178 z         1.00000
          43               179 y           179 z         1.00000
          44               181 y           181 z         1.00000
          45               182 y           182 z         1.00000
          46               192 y           192 z         1.00000
          47               193 y           193 z         1.00000
--------------------------------------------------------------------------------


  Components of defect energy : 

--------------------------------------------------------------------------------
  Region 1 - region 1                   =     37.49052937 eV
  Region 1 - region 2a (unrelaxed)      =    -28.46280913 eV
  Region 1 - 2a (relaxed - correction)  =     -0.15999928 eV
  Region 1 (Total)                      =      8.86772096 eV
  Region 2a                             =      0.07999311 eV
  Region 2b                             =     -0.33078215 eV
--------------------------------------------------------------------------------
  Total defect energy                   =      8.61693192 eV
--------------------------------------------------------------------------------

  Largest displacement in region 2 =   0.0050 Angstroms


  Number of variables =      438

  Maximum number of calculations  =        1000
  Maximum Hessian update interval =          10
  Maximum step size               =   1.0000000
  Maximum parameter tolerance     =   0.0000100
  Maximum function  tolerance     =   0.0000100
  Maximum gradient  tolerance     =   0.0010000

  Symmetry adapted optimisation

  Symmetry to be used for second derivatives

  Newton-Raphson optimiser to be used

  BFGS hessian update to be used

  Lower half triangular hessian to be used

  Start of defect optimisation :

  Cycle:      0 Defect Energy:   8.616932  Gnorm:     0.138923  CPU:   10.409
  ** Hessian calculated **
  Cycle:      1 Defect Energy:   0.032765  Gnorm:     0.024967  CPU:   20.435
  Cycle:      2 Defect Energy:  -0.685783  Gnorm:     0.009125  CPU:   26.727
  Cycle:      3 Defect Energy:  -0.795150  Gnorm:     0.007425  CPU:   28.022
  Cycle:      4 Defect Energy:  -0.888122  Gnorm:     0.005340  CPU:   29.604
  Cycle:      5 Defect Energy:  -0.941654  Gnorm:     0.003864  CPU:   31.379
  Cycle:      6 Defect Energy:  -0.972093  Gnorm:     0.002767  CPU:   33.203
  Cycle:      7 Defect Energy:  -0.988750  Gnorm:     0.001970  CPU:   34.933
  Cycle:      8 Defect Energy:  -0.997633  Gnorm:     0.001398  CPU:   36.692
  Cycle:      9 Defect Energy:  -1.002290  Gnorm:     0.000988  CPU:   38.322
  Cycle:     10 Defect Energy:  -1.004672  Gnorm:     0.000697  CPU:   39.956
  ** Hessian calculated **
  Cycle:     11 Defect Energy:  -1.005889  Gnorm:     0.000489  CPU:   43.835
  Cycle:     12 Defect Energy:  -1.006493  Gnorm:     0.000344  CPU:   45.508
  Cycle:     13 Defect Energy:  -1.006830  Gnorm:     0.000241  CPU:   47.205
  Cycle:     14 Defect Energy:  -1.006979  Gnorm:     0.000169  CPU:   48.895
  Cycle:     15 Defect Energy:  -1.007054  Gnorm:     0.000119  CPU:   50.134
  Cycle:     16 Defect Energy:  -1.007090  Gnorm:     0.000083  CPU:   51.745
  Cycle:     17 Defect Energy:  -1.007108  Gnorm:     0.000058  CPU:   53.373
  Cycle:     18 Defect Energy:  -1.007117  Gnorm:     0.000041  CPU:   55.083
  Cycle:     19 Defect Energy:  -1.007122  Gnorm:     0.000029  CPU:   56.630


  **** Optimisation achieved ****


  Final defect energy  =       -1.00712401
  Final defect Gnorm   =        0.00001997

  Components of defect energy : 

--------------------------------------------------------------------------------
  Region 1 - region 1                   =     27.72404265 eV
  Region 1 - region 2a (unrelaxed)      =    -28.33575725 eV
  Region 1 - 2a (relaxed - correction)  =     -0.12923927 eV
  Region 1 (Total)                      =     -0.74095387 eV
  Region 2a                             =      0.06461201 eV
  Region 2b                             =     -0.33078215 eV
--------------------------------------------------------------------------------
  Total defect energy                   =     -1.00712401 eV
--------------------------------------------------------------------------------

  Largest displacement in region 2 =   0.0050 Angstroms

  Final coordinates of region 1 :

--------------------------------------------------------------------------------
   No.  Atomic        x           y           z          Radius      Charge
        Label       (Angs)      (Angs)      (Angs)       (Angs)       (e) 
--------------------------------------------------------------------------------
     1  Cl    c     1.959436    0.000000    0.000000    0.000000    1.485000
     2  Cl    c     4.543953    0.000000    0.000000    0.000000    1.485000
     3  Cl    c    -0.625080    0.000000    0.000000    0.000000    1.485000
     4  Li    c     1.959436   -2.153302    0.000000    0.000000    1.000000
     5  Li    c     1.959436    2.153302    0.000000    0.000000    1.000000
     6  Li    c     1.959436    0.000000   -2.153302    0.000000    1.000000
     7  Li    c     1.959436    0.000000    2.153302    0.000000    1.000000
     8  O     c     1.959436   -2.116230   -2.116230    0.000000    0.183000
     9  O     c     1.959436   -2.116230    2.116230    0.000000    0.183000
    10  O     c     1.959436    2.116230   -2.116230    0.000000    0.183000
    11  O     c     1.959436    2.116230    2.116230    0.000000    0.183000
    12  Li    c     3.905923   -1.966459   -1.966459    0.000000    1.000000
    13  Li    c     3.905923   -1.966459    1.966459    0.000000    1.000000
    14  Li    c     3.905923    1.966459   -1.966459    0.000000    1.000000
    15  Li    c     3.905923    1.966459    1.966459    0.000000    1.000000
    16  Li    c     0.012950   -1.966459   -1.966459    0.000000    1.000000
    17  Li    c     0.012950   -1.966459    1.966459    0.000000    1.000000
    18  Li    c     0.012950    1.966459   -1.966459    0.000000    1.000000
    19  Li    c     0.012950    1.966459    1.966459    0.000000    1.000000
    20  Cl    c     3.919735    0.000000    3.942588    0.000000    1.485000
    21  Cl    c     3.919735    0.000000   -3.942588    0.000000    1.485000
    22  Cl    c     3.919735    3.942588    0.000000    0.000000    1.485000
    23  Cl    c     3.919735   -3.942588    0.000000    0.000000    1.485000
    24  Cl    c    -0.000862    0.000000    3.942588    0.000000    1.485000
    25  Cl    c    -0.000862    0.000000   -3.942588    0.000000    1.485000
    26  Cl    c    -0.000862    3.942588    0.000000    0.000000    1.485000
    27  Cl    c    -0.000862   -3.942588    0.000000    0.000000    1.485000
    28  Li    c     1.959436   -2.055829    3.972197    0.000000    1.000000
    29  Li    c     1.959436   -2.055829   -3.972197    0.000000    1.000000
    30  Li    c     1.959436    2.055829    3.972197    0.000000    1.000000
    31  Li    c     1.959436    2.055829   -3.972197    0.000000    1.000000
    32  Li    c     1.959436    3.972197   -2.055829    0.000000    1.000000
    33  Li    c     1.959436    3.972197    2.055829    0.000000    1.000000
    34  Li    c     1.959436   -3.972197   -2.055829    0.000000    1.000000
    35  Li    c     1.959436   -3.972197    2.055829    0.000000    1.000000
    36  Li    c     5.909921   -1.943319    0.000000    0.000000    1.000000
    37  Li    c     5.909921    1.943319    0.000000    0.000000    1.000000
    38  Li    c    -1.991048   -1.943319    0.000000    0.000000    1.000000
    39  Li    c    -1.991048    1.943319    0.000000    0.000000    1.000000
    40  Li    c     5.909921    0.000000   -1.943319    0.000000    1.000000
    41  Li    c     5.909921    0.000000    1.943319    0.000000    1.000000
    42  Li    c    -1.991048    0.000000   -1.943319    0.000000    1.000000
    43  Li    c    -1.991048    0.000000    1.943319    0.000000    1.000000
    44  O     c     5.919076   -2.028304   -2.028304    0.000000    0.183000
    45  O     c     5.919076   -2.028304    2.028304    0.000000    0.183000
    46  O     c     5.919076    2.028304   -2.028304    0.000000    0.183000
    47  O     c     5.919076    2.028304    2.028304    0.000000    0.183000
    48  O     c    -2.000203   -2.028304   -2.028304    0.000000    0.183000
    49  O     c    -2.000203   -2.028304    2.028304    0.000000    0.183000
    50  O     c    -2.000203    2.028304   -2.028304    0.000000    0.183000
    51  O     c    -2.000203    2.028304    2.028304    0.000000    0.183000
    52  Cl    c     3.946001    3.991956    3.991956    0.000000    1.485000
    53  Cl    c     3.946001    3.991956   -3.991956    0.000000    1.485000
    54  Cl    c     3.946001   -3.991956    3.991956    0.000000    1.485000
    55  Cl    c     3.946001   -3.991956   -3.991956    0.000000    1.485000
    56  Cl    c    -0.027128    3.991956    3.991956    0.000000    1.485000
    57  Cl    c    -0.027128    3.991956   -3.991956    0.000000    1.485000
    58  Cl    c    -0.027128   -3.991956    3.991956    0.000000    1.485000
    59  Cl    c    -0.027128   -3.991956   -3.991956    0.000000    1.485000
    60  Cl    c     7.982565    0.000000    0.000000    0.000000    1.485000
    61  Cl    c    -4.063692    0.000000    0.000000    0.000000    1.485000
    62  Li    c     1.959436    5.862006    0.000000    0.000000    1.000000
    63  Li    c     1.959436   -5.862006    0.000000    0.000000    1.000000
    64  Li    c     1.959436    0.000000    5.862006    0.000000    1.000000
    65  Li    c     1.959436    0.000000   -5.862006    0.000000    1.000000
    66  Li    c     5.875400   -1.976816    3.929750    0.000000    1.000000
    67  Li    c     5.875400   -1.976816   -3.929750    0.000000    1.000000
    68  Li    c     5.875400    1.976816    3.929750    0.000000    1.000000
    69  Li    c     5.875400    1.976816   -3.929750    0.000000    1.000000
    70  Li    c    -1.956527   -1.976816    3.929750    0.000000    1.000000
    71  Li    c    -1.956527   -1.976816   -3.929750    0.000000    1.000000
    72  Li    c    -1.956527    1.976816    3.929750    0.000000    1.000000
    73  Li    c    -1.956527    1.976816   -3.929750    0.000000    1.000000
    74  Li    c     5.875400    3.929750   -1.976816    0.000000    1.000000
    75  Li    c     5.875400    3.929750    1.976816    0.000000    1.000000
    76  Li    c     5.875400   -3.929750   -1.976816    0.000000    1.000000
    77  Li    c     5.875400   -3.929750    1.976816    0.000000    1.000000
    78  Li    c    -1.956527    3.929750   -1.976816    0.000000    1.000000
    79  Li    c    -1.956527    3.929750    1.976816    0.000000    1.000000
    80  Li    c    -1.956527   -3.929750   -1.976816    0.000000    1.000000
    81  Li    c    -1.956527   -3.929750    1.976816    0.000000    1.000000
    82  O     c     1.959436   -1.979439    5.912716    0.000000    0.183000
    83  O     c     1.959436   -1.979439   -5.912716    0.000000    0.183000
    84  O     c     1.959436    1.979439    5.912716    0.000000    0.183000
    85  O     c     1.959436    1.979439   -5.912716    0.000000    0.183000
    86  O     c     1.959436    5.912716   -1.979439    0.000000    0.183000
    87  O     c     1.959436    5.912716    1.979439    0.000000    0.183000
    88  O     c     1.959436   -5.912716   -1.979439    0.000000    0.183000
    89  O     c     1.959436   -5.912716    1.979439    0.000000    0.183000
    90  Li    c     3.921646    5.895962   -1.969112    0.000000    1.000000
    91  Li    c     3.921646    5.895962    1.969112    0.000000    1.000000
    92  Li    c     3.921646   -5.895962   -1.969112    0.000000    1.000000
    93  Li    c     3.921646   -5.895962    1.969112    0.000000    1.000000
    94  Li    c    -0.002773    5.895962   -1.969112    0.000000    1.000000
    95  Li    c    -0.002773    5.895962    1.969112    0.000000    1.000000
    96  Li    c    -0.002773   -5.895962   -1.969112    0.000000    1.000000
    97  Li    c    -0.002773   -5.895962    1.969112    0.000000    1.000000
    98  Li    c     3.921646   -1.969112    5.895962    0.000000    1.000000
    99  Li    c     3.921646   -1.969112   -5.895962    0.000000    1.000000
   100  Li    c     3.921646    1.969112    5.895962    0.000000    1.000000
   101  Li    c     3.921646    1.969112   -5.895962    0.000000    1.000000
   102  Li    c    -0.002773   -1.969112    5.895962    0.000000    1.000000
   103  Li    c    -0.002773   -1.969112   -5.895962    0.000000    1.000000
   104  Li    c    -0.002773    1.969112    5.895962    0.000000    1.000000
   105  Li    c    -0.002773    1.969112   -5.895962    0.000000    1.000000
   106  Li    c     7.841135   -1.995863   -1.995863    0.000000    1.000000
   107  Li    c     7.841135   -1.995863    1.995863    0.000000    1.000000
   108  Li    c     7.841135    1.995863   -1.995863    0.000000    1.000000
   109  Li    c     7.841135    1.995863    1.995863    0.000000    1.000000
   110  Li    c    -3.922262   -1.995863   -1.995863    0.000000    1.000000
   111  Li    c    -3.922262   -1.995863    1.995863    0.000000    1.000000
   112  Li    c    -3.922262    1.995863   -1.995863    0.000000    1.000000
   113  Li    c    -3.922262    1.995863    1.995863    0.000000    1.000000
   114  Cl    c     7.857448    0.000000    3.939994    0.000000    1.485000
   115  Cl    c     7.857448    0.000000   -3.939994    0.000000    1.485000
   116  Cl    c     7.857448    3.939994    0.000000    0.000000    1.485000
   117  Cl    c     7.857448   -3.939994    0.000000    0.000000    1.485000
   118  Cl    c    -3.938575    0.000000    3.939994    0.000000    1.485000
   119  Cl    c    -3.938575    0.000000   -3.939994    0.000000    1.485000
   120  Cl    c    -3.938575    3.939994    0.000000    0.000000    1.485000
   121  Cl    c    -3.938575   -3.939994    0.000000    0.000000    1.485000
   122  Li    c     1.959436    5.919545    3.947641    0.000000    1.000000
   123  Li    c     1.959436    5.919545   -3.947641    0.000000    1.000000
   124  Li    c     1.959436   -5.919545    3.947641    0.000000    1.000000
   125  Li    c     1.959436   -5.919545   -3.947641    0.000000    1.000000
   126  Li    c     1.959436    3.947641    5.919545    0.000000    1.000000
   127  Li    c     1.959436    3.947641   -5.919545    0.000000    1.000000
   128  Li    c     1.959436   -3.947641    5.919545    0.000000    1.000000
   129  Li    c     1.959436   -3.947641   -5.919545    0.000000    1.000000
   130  Li    c     5.878987    5.874877    0.000000    0.000000    1.000000
   131  Li    c     5.878987   -5.874877    0.000000    0.000000    1.000000
   132  Li    c    -1.960114    5.874877    0.000000    0.000000    1.000000
   133  Li    c    -1.960114   -5.874877    0.000000    0.000000    1.000000
   134  Li    c     5.878987    0.000000    5.874877    0.000000    1.000000
   135  Li    c     5.878987    0.000000   -5.874877    0.000000    1.000000
   136  Li    c    -1.960114    0.000000    5.874877    0.000000    1.000000
   137  Li    c    -1.960114    0.000000   -5.874877    0.000000    1.000000
   138  O     c     5.882978   -1.964324    5.895510    0.000000    0.183000
   139  O     c     5.882978   -1.964324   -5.895510    0.000000    0.183000
   140  O     c     5.882978    1.964324    5.895510    0.000000    0.183000
   141  O     c     5.882978    1.964324   -5.895510    0.000000    0.183000
   142  O     c     5.882978    5.895510   -1.964324    0.000000    0.183000
   143  O     c     5.882978    5.895510    1.964324    0.000000    0.183000
   144  O     c     5.882978   -5.895510   -1.964324    0.000000    0.183000
   145  O     c     5.882978   -5.895510    1.964324    0.000000    0.183000
   146  O     c    -1.964105   -1.964324    5.895510    0.000000    0.183000
   147  O     c    -1.964105   -1.964324   -5.895510    0.000000    0.183000
   148  O     c    -1.964105    1.964324    5.895510    0.000000    0.183000
   149  O     c    -1.964105    1.964324   -5.895510    0.000000    0.183000
   150  O     c    -1.964105    5.895510   -1.964324    0.000000    0.183000
   151  O     c    -1.964105    5.895510    1.964324    0.000000    0.183000
   152  O     c    -1.964105   -5.895510   -1.964324    0.000000    0.183000
   153  O     c    -1.964105   -5.895510    1.964324    0.000000    0.183000
   154  Li    c     9.774371   -1.951332    0.000000    0.000000    1.000000
   155  Li    c     9.774371    1.951332    0.000000    0.000000    1.000000
   156  Li    c     9.774371    0.000000   -1.951332    0.000000    1.000000
   157  Li    c     9.774371    0.000000    1.951332    0.000000    1.000000
   158  Li    c    -5.855498   -1.951332    0.000000    0.000000    1.000000
   159  Li    c    -5.855498    1.951332    0.000000    0.000000    1.000000
   160  Li    c    -5.855498    0.000000   -1.951332    0.000000    1.000000
   161  Li    c    -5.855498    0.000000    1.951332    0.000000    1.000000
   162  Cl    c     3.922151    0.000000    7.852184    0.000000    1.485000
   163  Cl    c     3.922151    0.000000   -7.852184    0.000000    1.485000
   164  Cl    c     3.922151    7.852184    0.000000    0.000000    1.485000
   165  Cl    c     3.922151   -7.852184    0.000000    0.000000    1.485000
   166  Cl    c    -0.003278    0.000000    7.852184    0.000000    1.485000
   167  Cl    c    -0.003278    0.000000   -7.852184    0.000000    1.485000
   168  Cl    c    -0.003278    7.852184    0.000000    0.000000    1.485000
   169  Cl    c    -0.003278   -7.852184    0.000000    0.000000    1.485000
   170  Cl    c     7.867812    3.954190    3.954190    0.000000    1.485000
   171  Cl    c     7.867812    3.954190   -3.954190    0.000000    1.485000
   172  Cl    c     7.867812   -3.954190    3.954190    0.000000    1.485000
   173  Cl    c     7.867812   -3.954190   -3.954190    0.000000    1.485000
   174  Cl    c    -3.948939    3.954190    3.954190    0.000000    1.485000
   175  Cl    c    -3.948939    3.954190   -3.954190    0.000000    1.485000
   176  Cl    c    -3.948939   -3.954190    3.954190    0.000000    1.485000
   177  Cl    c    -3.948939   -3.954190   -3.954190    0.000000    1.485000
   178  Li    c     1.959436   -1.953532    7.847107    0.000000    1.000000
   179  Li    c     1.959436   -1.953532   -7.847107    0.000000    1.000000
   180  Li    c     1.959436    1.953532    7.847107    0.000000    1.000000
   181  Li    c     1.959436    1.953532   -7.847107    0.000000    1.000000
   182  Li    c     1.959436    7.847107   -1.953532    0.000000    1.000000
   183  Li    c     1.959436    7.847107    1.953532    0.000000    1.000000
   184  Li    c     1.959436   -7.847107   -1.953532    0.000000    1.000000
   185  Li    c     1.959436   -7.847107    1.953532    0.000000    1.000000
   186  Li    c     5.877694    5.883787    3.929945    0.000000    1.000000
   187  Li    c     5.877694    5.883787   -3.929945    0.000000    1.000000
   188  Li    c     5.877694   -5.883787    3.929945    0.000000    1.000000
   189  Li    c     5.877694   -5.883787   -3.929945    0.000000    1.000000
   190  Li    c    -1.958821    5.883787    3.929945    0.000000    1.000000
   191  Li    c    -1.958821    5.883787   -3.929945    0.000000    1.000000
   192  Li    c    -1.958821   -5.883787    3.929945    0.000000    1.000000
   193  Li    c    -1.958821   -5.883787   -3.929945    0.000000    1.000000
   194  Li    c     5.877694    3.929945    5.883787    0.000000    1.000000
   195  Li    c     5.877694    3.929945   -5.883787    0.000000    1.000000
   196  Li    c     5.877694   -3.929945    5.883787    0.000000    1.000000
   197  Li    c     5.877694   -3.929945   -5.883787    0.000000    1.000000
   198  Li    c    -1.958821    3.929945    5.883787    0.000000    1.000000
   199  Li    c    -1.958821    3.929945   -5.883787    0.000000    1.000000
   200  Li    c    -1.958821   -3.929945    5.883787    0.000000    1.000000
   201  Li    c    -1.958821   -3.929945   -5.883787    0.000000    1.000000
   202  O     c     9.808505   -1.976429   -1.976429    0.000000    0.183000
   203  O     c     9.808505   -1.976429    1.976429    0.000000    0.183000
   204  O     c     9.808505    1.976429   -1.976429    0.000000    0.183000
   205  O     c     9.808505    1.976429    1.976429    0.000000    0.183000
   206  O     c    -5.889632   -1.976429   -1.976429    0.000000    0.183000
   207  O     c    -5.889632   -1.976429    1.976429    0.000000    0.183000
   208  O     c    -5.889632    1.976429   -1.976429    0.000000    0.183000
   209  O     c    -5.889632    1.976429    1.976429    0.000000    0.183000
   210  O     c     1.959436    5.908553    5.908553    0.000000    0.183000
   211  O     c     1.959436    5.908553   -5.908553    0.000000    0.183000
   212  O     c     1.959436   -5.908553    5.908553    0.000000    0.183000
   213  O     c     1.959436   -5.908553   -5.908553    0.000000    0.183000
   214  Li    c     3.925873    5.886274    5.886274    0.000000    1.000000
   215  Li    c     3.925873    5.886274   -5.886274    0.000000    1.000000
   216  Li    c     3.925873   -5.886274    5.886274    0.000000    1.000000
   217  Li    c     3.925873   -5.886274   -5.886274    0.000000    1.000000
   218  Li    c    -0.007000    5.886274    5.886274    0.000000    1.000000
   219  Li    c    -0.007000    5.886274   -5.886274    0.000000    1.000000
   220  Li    c    -0.007000   -5.886274    5.886274    0.000000    1.000000
   221  Li    c    -0.007000   -5.886274   -5.886274    0.000000    1.000000
   222  Li    c     7.839574   -1.962211    5.878390    0.000000    1.000000
   223  Li    c     7.839574   -1.962211   -5.878390    0.000000    1.000000
   224  Li    c     7.839574    1.962211    5.878390    0.000000    1.000000
   225  Li    c     7.839574    1.962211   -5.878390    0.000000    1.000000
   226  Li    c     7.839574    5.878390   -1.962211    0.000000    1.000000
   227  Li    c     7.839574    5.878390    1.962211    0.000000    1.000000
   228  Li    c     7.839574   -5.878390   -1.962211    0.000000    1.000000
   229  Li    c     7.839574   -5.878390    1.962211    0.000000    1.000000
   230  Li    c    -3.920701   -1.962211    5.878390    0.000000    1.000000
   231  Li    c    -3.920701   -1.962211   -5.878390    0.000000    1.000000
   232  Li    c    -3.920701    1.962211    5.878390    0.000000    1.000000
   233  Li    c    -3.920701    1.962211   -5.878390    0.000000    1.000000
   234  Li    c    -3.920701    5.878390   -1.962211    0.000000    1.000000
   235  Li    c    -3.920701    5.878390    1.962211    0.000000    1.000000
   236  Li    c    -3.920701   -5.878390   -1.962211    0.000000    1.000000
   237  Li    c    -3.920701   -5.878390    1.962211    0.000000    1.000000
   238  Li    c     9.807305   -1.960396    3.924652    0.000000    1.000000
   239  Li    c     9.807305   -1.960396   -3.924652    0.000000    1.000000
   240  Li    c     9.807305    1.960396    3.924652    0.000000    1.000000
   241  Li    c     9.807305    1.960396   -3.924652    0.000000    1.000000
   242  Li    c     9.807305    3.924652   -1.960396    0.000000    1.000000
   243  Li    c     9.807305    3.924652    1.960396    0.000000    1.000000
   244  Li    c     9.807305   -3.924652   -1.960396    0.000000    1.000000
   245  Li    c     9.807305   -3.924652    1.960396    0.000000    1.000000
   246  Li    c    -5.888432   -1.960396    3.924652    0.000000    1.000000
   247  Li    c    -5.888432   -1.960396   -3.924652    0.000000    1.000000
   248  Li    c    -5.888432    1.960396    3.924652    0.000000    1.000000
   249  Li    c    -5.888432    1.960396   -3.924652    0.000000    1.000000
   250  Li    c    -5.888432    3.924652   -1.960396    0.000000    1.000000
   251  Li    c    -5.888432    3.924652    1.960396    0.000000    1.000000
   252  Li    c    -5.888432   -3.924652   -1.960396    0.000000    1.000000
   253  Li    c    -5.888432   -3.924652    1.960396    0.000000    1.000000
   254  Cl    c     3.924544    3.931501    7.861469    0.000000    1.485000
   255  Cl    c     3.924544    3.931501   -7.861469    0.000000    1.485000
   256  Cl    c     3.924544    7.861469    3.931501    0.000000    1.485000
   257  Cl    c     3.924544    7.861469   -3.931501    0.000000    1.485000
   258  Cl    c     3.924544   -3.931501    7.861469    0.000000    1.485000
   259  Cl    c     3.924544   -3.931501   -7.861469    0.000000    1.485000
   260  Cl    c     3.924544   -7.861469    3.931501    0.000000    1.485000
   261  Cl    c     3.924544   -7.861469   -3.931501    0.000000    1.485000
   262  Cl    c    -0.005671    3.931501    7.861469    0.000000    1.485000
   263  Cl    c    -0.005671    3.931501   -7.861469    0.000000    1.485000
   264  Cl    c    -0.005671    7.861469    3.931501    0.000000    1.485000
   265  Cl    c    -0.005671    7.861469   -3.931501    0.000000    1.485000
   266  Cl    c    -0.005671   -3.931501    7.861469    0.000000    1.485000
   267  Cl    c    -0.005671   -3.931501   -7.861469    0.000000    1.485000
   268  Cl    c    -0.005671   -7.861469    3.931501    0.000000    1.485000
   269  Cl    c    -0.005671   -7.861469   -3.931501    0.000000    1.485000
   270  Li    c     5.885152   -1.959300    7.841865    0.000000    1.000000
   271  Li    c     5.885152   -1.959300   -7.841865    0.000000    1.000000
   272  Li    c     5.885152    1.959300    7.841865    0.000000    1.000000
   273  Li    c     5.885152    1.959300   -7.841865    0.000000    1.000000
   274  Li    c    -1.966279   -1.959300    7.841865    0.000000    1.000000
   275  Li    c    -1.966279   -1.959300   -7.841865    0.000000    1.000000
   276  Li    c    -1.966279    1.959300    7.841865    0.000000    1.000000
   277  Li    c    -1.966279    1.959300   -7.841865    0.000000    1.000000
   278  Li    c     5.885152    7.841865   -1.959300    0.000000    1.000000
   279  Li    c     5.885152    7.841865    1.959300    0.000000    1.000000
   280  Li    c     5.885152   -7.841865   -1.959300    0.000000    1.000000
   281  Li    c     5.885152   -7.841865    1.959300    0.000000    1.000000
   282  Li    c    -1.966279    7.841865   -1.959300    0.000000    1.000000
   283  Li    c    -1.966279    7.841865    1.959300    0.000000    1.000000
   284  Li    c    -1.966279   -7.841865   -1.959300    0.000000    1.000000
   285  Li    c    -1.966279   -7.841865    1.959300    0.000000    1.000000
   286  O     c     5.892119    5.899593    5.899593    0.000000    0.183000
   287  O     c     5.892119    5.899593   -5.899593    0.000000    0.183000
   288  O     c     5.892119   -5.899593    5.899593    0.000000    0.183000
   289  O     c     5.892119   -5.899593   -5.899593    0.000000    0.183000
   290  O     c    -1.973246    5.899593    5.899593    0.000000    0.183000
   291  O     c    -1.973246    5.899593   -5.899593    0.000000    0.183000
   292  O     c    -1.973246   -5.899593    5.899593    0.000000    0.183000
   293  O     c    -1.973246   -5.899593   -5.899593    0.000000    0.183000
   294  Cl    c    11.775073    0.000000    0.000000    0.000000    1.485000
   295  Cl    c    -7.856200    0.000000    0.000000    0.000000    1.485000
   296  Li    c     1.959436    9.803021    0.000000    0.000000    1.000000
   297  Li    c     1.959436   -9.803021    0.000000    0.000000    1.000000
   298  Li    c     1.959436    0.000000    9.803021    0.000000    1.000000
   299  Li    c     1.959436    0.000000   -9.803021    0.000000    1.000000
   300  Li    c     9.793747    5.877088    0.000000    0.000000    1.000000
   301  Li    c     9.793747   -5.877088    0.000000    0.000000    1.000000
   302  Li    c     9.793747    0.000000    5.877088    0.000000    1.000000
   303  Li    c     9.793747    0.000000   -5.877088    0.000000    1.000000
   304  Li    c    -5.874874    5.877088    0.000000    0.000000    1.000000
   305  Li    c    -5.874874   -5.877088    0.000000    0.000000    1.000000
   306  Li    c    -5.874874    0.000000    5.877088    0.000000    1.000000
   307  Li    c    -5.874874    0.000000   -5.877088    0.000000    1.000000
   308  Cl    c     7.845345    0.000000    7.850430    0.000000    1.485000
   309  Cl    c     7.845345    0.000000   -7.850430    0.000000    1.485000
   310  Cl    c     7.845345    7.850430    0.000000    0.000000    1.485000
   311  Cl    c     7.845345   -7.850430    0.000000    0.000000    1.485000
   312  Cl    c    -3.926472    0.000000    7.850430    0.000000    1.485000
   313  Cl    c    -3.926472    0.000000   -7.850430    0.000000    1.485000
   314  Cl    c    -3.926472    7.850430    0.000000    0.000000    1.485000
   315  Cl    c    -3.926472   -7.850430    0.000000    0.000000    1.485000
   316  Li    c     1.959436    5.901413    7.851705    0.000000    1.000000
   317  Li    c     1.959436    5.901413   -7.851705    0.000000    1.000000
   318  Li    c     1.959436   -5.901413    7.851705    0.000000    1.000000
   319  Li    c     1.959436   -5.901413   -7.851705    0.000000    1.000000
   320  Li    c     1.959436    7.851705    5.901413    0.000000    1.000000
   321  Li    c     1.959436    7.851705   -5.901413    0.000000    1.000000
   322  Li    c     1.959436   -7.851705    5.901413    0.000000    1.000000
   323  Li    c     1.959436   -7.851705   -5.901413    0.000000    1.000000
   324  O     c     1.959436   -1.960862    9.806795    0.000000    0.183000
   325  O     c     1.959436   -1.960862   -9.806795    0.000000    0.183000
   326  O     c     1.959436    1.960862    9.806795    0.000000    0.183000
   327  O     c     1.959436    1.960862   -9.806795    0.000000    0.183000
   328  O     c     1.959436    9.806795   -1.960862    0.000000    0.183000
   329  O     c     1.959436    9.806795    1.960862    0.000000    0.183000
   330  O     c     1.959436   -9.806795   -1.960862    0.000000    0.183000
   331  O     c     1.959436   -9.806795    1.960862    0.000000    0.183000
   332  O     c     9.804730   -1.961800    5.887550    0.000000    0.183000
   333  O     c     9.804730   -1.961800   -5.887550    0.000000    0.183000
   334  O     c     9.804730    1.961800    5.887550    0.000000    0.183000
   335  O     c     9.804730    1.961800   -5.887550    0.000000    0.183000
   336  O     c     9.804730    5.887550   -1.961800    0.000000    0.183000
   337  O     c     9.804730    5.887550    1.961800    0.000000    0.183000
   338  O     c     9.804730   -5.887550   -1.961800    0.000000    0.183000
   339  O     c     9.804730   -5.887550    1.961800    0.000000    0.183000
   340  O     c    -5.885857   -1.961800    5.887550    0.000000    0.183000
   341  O     c    -5.885857   -1.961800   -5.887550    0.000000    0.183000
   342  O     c    -5.885857    1.961800    5.887550    0.000000    0.183000
   343  O     c    -5.885857    1.961800   -5.887550    0.000000    0.183000
   344  O     c    -5.885857    5.887550   -1.961800    0.000000    0.183000
   345  O     c    -5.885857    5.887550    1.961800    0.000000    0.183000
   346  O     c    -5.885857   -5.887550   -1.961800    0.000000    0.183000
   347  O     c    -5.885857   -5.887550    1.961800    0.000000    0.183000
   348  Li    c     3.920501   -1.961037    9.797930    0.000000    1.000000
   349  Li    c     3.920501   -1.961037   -9.797930    0.000000    1.000000
   350  Li    c     3.920501    1.961037    9.797930    0.000000    1.000000
   351  Li    c     3.920501    1.961037   -9.797930    0.000000    1.000000
   352  Li    c    -0.001628   -1.961037    9.797930    0.000000    1.000000
   353  Li    c    -0.001628   -1.961037   -9.797930    0.000000    1.000000
   354  Li    c    -0.001628    1.961037    9.797930    0.000000    1.000000
   355  Li    c    -0.001628    1.961037   -9.797930    0.000000    1.000000
   356  Li    c     3.920501    9.797930   -1.961037    0.000000    1.000000
   357  Li    c     3.920501    9.797930    1.961037    0.000000    1.000000
   358  Li    c     3.920501   -9.797930   -1.961037    0.000000    1.000000
   359  Li    c     3.920501   -9.797930    1.961037    0.000000    1.000000
   360  Li    c    -0.001628    9.797930   -1.961037    0.000000    1.000000
   361  Li    c    -0.001628    9.797930    1.961037    0.000000    1.000000
   362  Li    c    -0.001628   -9.797930   -1.961037    0.000000    1.000000
   363  Li    c    -0.001628   -9.797930    1.961037    0.000000    1.000000
   364  Li    c    11.751968   -1.957033   -1.957033    0.000000    1.000000
   365  Li    c    11.751968   -1.957033    1.957033    0.000000    1.000000
   366  Li    c    11.751968    1.957033   -1.957033    0.000000    1.000000
   367  Li    c    11.751968    1.957033    1.957033    0.000000    1.000000
   368  Li    c    -7.833095   -1.957033   -1.957033    0.000000    1.000000
   369  Li    c    -7.833095   -1.957033    1.957033    0.000000    1.000000
   370  Li    c    -7.833095    1.957033   -1.957033    0.000000    1.000000
   371  Li    c    -7.833095    1.957033    1.957033    0.000000    1.000000
   372  Li    c     7.843289    5.882383    5.882383    0.000000    1.000000
   373  Li    c     7.843289    5.882383   -5.882383    0.000000    1.000000
   374  Li    c     7.843289   -5.882383    5.882383    0.000000    1.000000
   375  Li    c     7.843289   -5.882383   -5.882383    0.000000    1.000000
   376  Li    c    -3.924416    5.882383    5.882383    0.000000    1.000000
   377  Li    c    -3.924416    5.882383   -5.882383    0.000000    1.000000
   378  Li    c    -3.924416   -5.882383    5.882383    0.000000    1.000000
   379  Li    c    -3.924416   -5.882383   -5.882383    0.000000    1.000000
   380  Cl    c    11.766737    0.000000    3.925967    0.000000    1.485000
   381  Cl    c    11.766737    0.000000   -3.925967    0.000000    1.485000
   382  Cl    c    11.766737    3.925967    0.000000    0.000000    1.485000
[...]
    113 y          9.797182      9.797149    -0.000034    Cartesian   -0.00
    113 z          9.797182      9.797149    -0.000034    Cartesian   -0.00
    114 x         -9.797182     -9.796572     0.000610    Cartesian   -0.01
    114 y          9.797182      9.795935    -0.001248    Cartesian   -0.01
    114 z          0.000000      0.000000     0.000000    Cartesian    0.00
    115 x         -9.797182     -9.794728     0.002455    Cartesian   -0.03
    115 y          5.878309      5.877226    -0.001083    Cartesian   -0.02
    115 z          7.837746      7.836772    -0.000974    Cartesian   -0.01
    116 x         11.756619     11.759980     0.003361    Cartesian    0.03
    116 y          0.000000      0.000000     0.000000    Cartesian    0.00
    116 z         11.756619     11.762712     0.006093    Cartesian    0.05
    117 x          1.959436      1.959436     0.000000    Cartesian    0.00
    117 y          9.797182      9.798440     0.001258    Cartesian    0.01
    117 z         11.756619     11.756351    -0.000268    Cartesian   -0.00
    118 x          9.797182      9.797161    -0.000021    Cartesian   -0.00
    118 y          5.878309      5.877213    -0.001096    Cartesian   -0.02
    118 z         11.756619     11.756207    -0.000412    Cartesian   -0.00
    119 x          7.837746      7.841255     0.003509    Cartesian    0.04
    119 y          7.837746      7.841904     0.004158    Cartesian    0.05
    119 z         11.756619     11.763553     0.006934    Cartesian    0.06
    120 x         -9.797182     -9.800201    -0.003019    Cartesian    0.03
    120 y          9.797182      9.799918     0.002736    Cartesian    0.03
    120 z         -1.959436     -1.959553    -0.000117    Cartesian    0.01
    121 x          5.878309      5.879989     0.001679    Cartesian    0.03
    121 y         13.716055     13.720405     0.004349    Cartesian    0.03
    121 z          5.878309      5.880101     0.001791    Cartesian    0.03
    122 x         -9.797182     -9.792865     0.004317    Cartesian   -0.04
    122 y          9.797182      9.793514    -0.003668    Cartesian   -0.04
    122 z          3.918873      3.918146    -0.000727    Cartesian   -0.02
    123 x        -11.756619    -11.763899    -0.007280    Cartesian    0.06
    123 y          0.000000      0.000000     0.000000    Cartesian    0.00
    123 z          7.837746      7.842020     0.004274    Cartesian    0.05
    124 x         11.756619     11.761265     0.004646    Cartesian    0.04
    124 y         11.756619     11.763299     0.006680    Cartesian    0.06
    124 z          3.918873      3.920625     0.001752    Cartesian    0.04
    125 x          9.797182      9.796160    -0.001022    Cartesian   -0.01
    125 y         13.716055     13.713784    -0.002272    Cartesian   -0.02
    125 z          0.000000      0.000000     0.000000    Cartesian    0.00
    126 x          3.918873      3.919743     0.000870    Cartesian    0.02
    126 y          0.000000      0.000000     0.000000    Cartesian    0.00
    126 z         15.675492     15.683347     0.007855    Cartesian    0.05
    127 x          1.959436      1.959436     0.000000    Cartesian    0.00
    127 y         -1.959436     -1.956766     0.002670    Cartesian   -0.14
    127 z         15.675492     15.672483    -0.003009    Cartesian   -0.02
    128 x          1.959436      1.959436     0.000000    Cartesian    0.00
    128 y         13.716055     13.711214    -0.004842    Cartesian   -0.04
    128 z          7.837746      7.836263    -0.001483    Cartesian   -0.02
    129 x          5.878309      5.878353     0.000043    Cartesian    0.00
    129 y          9.797182      9.795524    -0.001658    Cartesian   -0.02
    129 z         11.756619     11.755322    -0.001297    Cartesian   -0.01
    130 x         17.634928     17.630978    -0.003951    Cartesian   -0.02
    130 y         -1.959436     -1.958960     0.000477    Cartesian   -0.02
    130 z          0.000000      0.000000     0.000000    Cartesian    0.00
    131 x          9.797182      9.799587     0.002405    Cartesian    0.02
    131 y         -1.959436     -1.960387    -0.000951    Cartesian    0.05
    131 z         13.716055     13.720537     0.004481    Cartesian    0.03
    132 x          9.797182      9.800892     0.003709    Cartesian    0.04
    132 y          9.797182      9.801874     0.004691    Cartesian    0.05
    132 z          9.797182      9.801874     0.004691    Cartesian    0.05
    133 x         17.634928     17.638905     0.003976    Cartesian    0.02
    133 y         -1.959436     -1.960604    -0.001168    Cartesian    0.06
    133 z         -1.959436     -1.960604    -0.001168    Cartesian    0.06
    134 x          1.959436      1.959436     0.000000    Cartesian    0.00
    134 y          0.000000      0.000000     0.000000    Cartesian    0.00
    134 z          0.000000      0.000000     0.000000    Cartesian    0.00
    135 x          3.918873      4.657609     0.738736    Cartesian   18.85
    135 y          0.000000      0.000000     0.000000    Cartesian    0.00
    135 z          0.000000      0.000000     0.000000    Cartesian    0.00
    136 x          1.959436      1.959436     0.000000    Cartesian    0.00
    136 y         -1.959436     -2.116458    -0.157021    Cartesian    8.01
    136 z         -1.959436     -2.116458    -0.157021    Cartesian    8.01
    137 x          3.918873      3.915482    -0.003391    Cartesian   -0.09
    137 y          0.000000      0.000000     0.000000    Cartesian    0.00
    137 z          3.918873      3.942862     0.023989    Cartesian    0.61
    138 x          5.878309      5.919164     0.040855    Cartesian    0.70
    138 y         -1.959436     -2.028415    -0.068979    Cartesian    3.52
    138 z         -1.959436     -2.028415    -0.068979    Cartesian    3.52
    139 x          3.918873      3.949031     0.030158    Cartesian    0.77
    139 y          3.918873      4.001580     0.082707    Cartesian    2.11
    139 z          3.918873      4.001580     0.082707    Cartesian    2.11
    140 x          7.837746      8.007400     0.169654    Cartesian    2.16
    140 y          0.000000      0.000000     0.000000    Cartesian    0.00
    140 z          0.000000      0.000000     0.000000    Cartesian    0.00
    141 x          1.959436      1.959436     0.000000    Cartesian    0.00
    141 y         -1.959436     -1.979462    -0.020025    Cartesian    1.02
    141 z          5.878309      5.912710     0.034401    Cartesian    0.59
    142 x          7.837746      7.861835     0.024089    Cartesian    0.31
    142 y          0.000000      0.000000     0.000000    Cartesian    0.00
    142 z          3.918873      3.943528     0.024655    Cartesian    0.63
    143 x          5.878309      5.882981     0.004671    Cartesian    0.08
    143 y         -1.959436     -1.964325    -0.004888    Cartesian    0.25
    143 z          5.878309      5.895525     0.017216    Cartesian    0.29
    144 x          3.918873      3.922675     0.003802    Cartesian    0.10
    144 y          0.000000      0.000000     0.000000    Cartesian    0.00
    144 z          7.837746      7.854878     0.017132    Cartesian    0.22
    145 x          7.837746      7.872638     0.034892    Cartesian    0.45
    145 y          3.918873      3.958575     0.039702    Cartesian    1.01
    145 z          3.918873      3.958575     0.039702    Cartesian    1.01
    146 x          9.797182      9.808521     0.011338    Cartesian    0.12
    146 y         -1.959436     -1.976456    -0.017019    Cartesian    0.87
    146 z         -1.959436     -1.976456    -0.017019    Cartesian    0.87
    147 x          1.959436      1.959436     0.000000    Cartesian    0.00
    147 y          5.878309      5.908567     0.030258    Cartesian    0.51
    147 z          5.878309      5.908567     0.030258    Cartesian    0.51
    148 x          3.918873      3.924734     0.005861    Cartesian    0.15
    148 y          3.918873      3.932527     0.013654    Cartesian    0.35
    148 z          7.837746      7.863952     0.026206    Cartesian    0.33
    149 x          5.878309      5.892129     0.013819    Cartesian    0.24
    149 y          5.878309      5.899611     0.021302    Cartesian    0.36
    149 z          5.878309      5.899611     0.021302    Cartesian    0.36
    150 x         11.756619     11.779846     0.023227    Cartesian    0.20
    150 y          0.000000      0.000000     0.000000    Cartesian    0.00
    150 z          0.000000      0.000000     0.000000    Cartesian    0.00
    151 x          7.837746      7.846531     0.008785    Cartesian    0.11
    151 y          0.000000      0.000000     0.000000    Cartesian    0.00
    151 z          7.837746      7.852802     0.015056    Cartesian    0.19
    152 x          1.959436      1.959436     0.000000    Cartesian    0.00
    152 y         -1.959436     -1.960860    -0.001424    Cartesian    0.07
    152 z          9.797182      9.806800     0.009617    Cartesian    0.10
    153 x          9.797182      9.804740     0.007558    Cartesian    0.08
    153 y         -1.959436     -1.961800    -0.002363    Cartesian    0.12
    153 z          5.878309      5.887556     0.009247    Cartesian    0.16
    154 x         11.756619     11.769488     0.012869    Cartesian    0.11
    154 y          0.000000      0.000000     0.000000    Cartesian    0.00
    154 z          3.918873      3.927847     0.008974    Cartesian    0.23
    155 x          7.837746      7.846626     0.008880    Cartesian    0.11
    155 y          3.918873      3.923538     0.004665    Cartesian    0.12
    155 z          7.837746      7.854330     0.016584    Cartesian    0.21
    156 x          5.878309      5.881657     0.003348    Cartesian    0.06
    156 y         -1.959436     -1.960308    -0.000871    Cartesian    0.04
    156 z          9.797182      9.804539     0.007357    Cartesian    0.08
    157 x         11.756619     11.772270     0.015651    Cartesian    0.13
    157 y          3.918873      3.929107     0.010234    Cartesian    0.26
    157 z          3.918873      3.929107     0.010234    Cartesian    0.26
    158 x          3.918873      3.923326     0.004453    Cartesian    0.11
    158 y          7.837746      7.855917     0.018171    Cartesian    0.23
    158 z          7.837746      7.855917     0.018171    Cartesian    0.23
    159 x          1.959436      1.959436     0.000000    Cartesian    0.00
    159 y          5.878309      5.886389     0.008079    Cartesian    0.14
    159 z          9.797182      9.806980     0.009797    Cartesian    0.10
    160 x          9.797182      9.807009     0.009826    Cartesian    0.10
    160 y          5.878309      5.888697     0.010387    Cartesian    0.18
    160 z          5.878309      5.888697     0.010387    Cartesian    0.18
    161 x          3.918873      3.920992     0.002119    Cartesian    0.05
    161 y          0.000000      0.000000     0.000000    Cartesian    0.00
    161 z         11.756619     11.766108     0.009489    Cartesian    0.08
    162 x         -9.797182     -9.800000    -0.002817    Cartesian    0.03
    162 y         -1.959436     -1.960915    -0.001479    Cartesian    0.08
    162 z         -1.959436     -1.960915    -0.001479    Cartesian    0.08
    163 x          5.878309      5.883358     0.005048    Cartesian    0.09
    163 y          5.878309      5.884013     0.005703    Cartesian    0.10
    163 z          9.797182      9.805469     0.008287    Cartesian    0.08
    164 x          3.918873      3.921070     0.002197    Cartesian    0.06
    164 y         11.756619     11.765884     0.009265    Cartesian    0.08
    164 z          3.918873      3.922650     0.003777    Cartesian    0.10
    165 x         11.756619     11.765415     0.008796    Cartesian    0.07
    165 y          0.000000      0.000000     0.000000    Cartesian    0.00
    165 z          7.837746      7.847997     0.010251    Cartesian    0.13
    166 x          7.837746      7.848476     0.010730    Cartesian    0.14
    166 y          7.837746      7.852402     0.014656    Cartesian    0.19
    166 z          7.837746      7.852402     0.014656    Cartesian    0.19
    167 x          9.797182      9.801207     0.004025    Cartesian    0.04
    167 y         -1.959436     -1.960141    -0.000705    Cartesian    0.04
    167 z          9.797182      9.803112     0.005930    Cartesian    0.06
    168 x         11.756619     11.763880     0.007261    Cartesian    0.06
    168 y          7.837746      7.846808     0.009062    Cartesian    0.12
    168 z          3.918873      3.920594     0.001721    Cartesian    0.04
    169 x          7.837746      7.843141     0.005395    Cartesian    0.07
    169 y          0.000000      0.000000     0.000000    Cartesian    0.00
    169 z         11.756619     11.766131     0.009512    Cartesian    0.08
    170 x         -9.797182     -9.800082    -0.002900    Cartesian    0.03
    170 y         -1.959436     -1.959153     0.000284    Cartesian   -0.01
    170 z          5.878309      5.881090     0.002781    Cartesian    0.05
    171 x        -11.756619    -11.766321    -0.009702    Cartesian    0.08
    171 y          0.000000      0.000000     0.000000    Cartesian    0.00
    171 z          0.000000      0.000000     0.000000    Cartesian    0.00
    172 x          7.837746      7.841046     0.003300    Cartesian    0.04
    172 y         11.756619     11.764715     0.008096    Cartesian    0.07
    172 z          3.918873      3.919924     0.001051    Cartesian    0.03
    173 x          1.959436      1.959436     0.000000    Cartesian    0.00
    173 y         -1.959436     -1.958770     0.000667    Cartesian   -0.03
    173 z         13.716055     13.718453     0.002397    Cartesian    0.02
    174 x          1.959436      1.959436     0.000000    Cartesian    0.00
    174 y          9.797182      9.802450     0.005268    Cartesian    0.05
    174 z          9.797182      9.802450     0.005268    Cartesian    0.05
    175 x          9.797182      9.800319     0.003137    Cartesian    0.03
    175 y          5.878309      5.880175     0.001866    Cartesian    0.03
    175 z          9.797182      9.801582     0.004399    Cartesian    0.04
    176 x        -11.756619    -11.763237    -0.006618    Cartesian    0.06
    176 y          0.000000      0.000000     0.000000    Cartesian    0.00
    176 z          3.918873      3.919579     0.000706    Cartesian    0.02
    177 x          3.918873      3.920521     0.001648    Cartesian    0.04
    177 y          7.837746      7.842007     0.004261    Cartesian    0.05
    177 z         11.756619     11.764462     0.007843    Cartesian    0.07
    178 x         -9.797182     -9.800023    -0.002841    Cartesian    0.03
    178 y          5.878309      5.880658     0.002349    Cartesian    0.04
    178 z          5.878309      5.880658     0.002349    Cartesian    0.04
    179 x          5.878309      5.880912     0.002602    Cartesian    0.04
    179 y          9.797182      9.800895     0.003712    Cartesian    0.04
    179 z          9.797182      9.800895     0.003712    Cartesian    0.04
    180 x          5.878309      5.878953     0.000643    Cartesian    0.01
    180 y         13.716055     13.719051     0.002996    Cartesian    0.02
    180 z         -1.959436     -1.959538    -0.000102    Cartesian    0.01
    181 x        -11.756619    -11.763506    -0.006887    Cartesian    0.06
    181 y          3.918873      3.920872     0.001999    Cartesian    0.05
    181 z          3.918873      3.920872     0.001999    Cartesian    0.05
    182 x         11.756619     11.762595     0.005976    Cartesian    0.05
    182 y          7.837746      7.845123     0.007377    Cartesian    0.09
    182 z          7.837746      7.845123     0.007377    Cartesian    0.09
    183 x          1.959436      1.959436     0.000000    Cartesian    0.00
    183 y          5.878309      5.879112     0.000802    Cartesian    0.01
    183 z         13.716055     13.719135     0.003080    Cartesian    0.02
    184 x         11.756619     11.760512     0.003893    Cartesian    0.03
    184 y          0.000000      0.000000     0.000000    Cartesian    0.00
    184 z         11.756619     11.763839     0.007220    Cartesian    0.06
    185 x          7.837746      7.841620     0.003874    Cartesian    0.05
    185 y          7.837746      7.842593     0.004847    Cartesian    0.06
    185 z         11.756619     11.764676     0.008057    Cartesian    0.07
    186 x         -9.797182     -9.800205    -0.003022    Cartesian    0.03
    186 y          9.797182      9.799922     0.002739    Cartesian    0.03
    186 z         -1.959436     -1.959554    -0.000117    Cartesian    0.01
    187 x          5.878309      5.879992     0.001682    Cartesian    0.03
    187 y         13.716055     13.720409     0.004354    Cartesian    0.03
    187 z          5.878309      5.880104     0.001795    Cartesian    0.03
    188 x        -11.756619    -11.765294    -0.008675    Cartesian    0.07
    188 y          0.000000      0.000000     0.000000    Cartesian    0.00
    188 z          7.837746      7.843124     0.005378    Cartesian    0.07
    189 x         11.756619     11.762088     0.005469    Cartesian    0.05
    189 y         11.756619     11.764633     0.008014    Cartesian    0.07
    189 z          3.918873      3.920954     0.002081    Cartesian    0.05
    190 x          3.918873      3.919882     0.001009    Cartesian    0.03
    190 y          0.000000      0.000000     0.000000    Cartesian    0.00
    190 z         15.675492     15.685101     0.009609    Cartesian    0.06
    191 x          9.797182      9.799591     0.002409    Cartesian    0.02
    191 y         -1.959436     -1.960389    -0.000953    Cartesian    0.05
    191 z         13.716055     13.720542     0.004487    Cartesian    0.03
    192 x          9.797182      9.800896     0.003714    Cartesian    0.04
    192 y          9.797182      9.801880     0.004698    Cartesian    0.05
    192 z          9.797182      9.801880     0.004698    Cartesian    0.05
    193 x         17.634928     17.638912     0.003984    Cartesian    0.02
    193 y         -1.959436     -1.960606    -0.001170    Cartesian    0.06
    193 z         -1.959436     -1.960606    -0.001170    Cartesian    0.06
--------------------------------------------------------------------------------


  Time to end of optimisation  =       58.1715 seconds


  Peak dynamic memory used =     692.96 MB 


  Timing analysis for GULP :

--------------------------------------------------------------------------------
  Task / Subroutine                                          Time (Seconds)
--------------------------------------------------------------------------------
  Calculation of reciprocal space energy and derivatives          0.0003
  Calculation of reciprocal space energy using symmetry           0.0001
  Calculation of real space energy and derivatives                0.0025
  Calculation of real space energy using symmetry                 0.0014
  Calculation for region 1 energy and derivatives (2-b)          40.1265
  Calculation for region 2a energy                               15.7900
  Calculation for region 2b energy                                0.0002
  Calculation and manipulation of Hessian matrix                  1.5814
  Calculation of matrix inversion                                 0.0808
  Symmetry generation of equivalent positions                     0.0019
--------------------------------------------------------------------------------
  Total CPU time                                                 58.1717
--------------------------------------------------------------------------------


  Dump file written as Li3OCl.grs


  Job Finished at 12:30.07  1st December   2020                               

