********************************************************************************
*                       GENERAL UTILITY LATTICE PROGRAM                        *
*                                 Julian Gale                                  *
*                       Curtin Institute for Computation                       *
*                    School of Molecular and Life Sciences                     *
*                    Curtin University, Western Australia                      *
********************************************************************************
* Version = 5.2.0 * Last modified =  10th September 2020                       *
********************************************************************************
*  optimise     - perform optimisation run                                     *
*  conp         - constant pressure calculation                                *
*  property     - calculate properties for final geometry                      *
*  defect       - perform defect calculation after bulk run                    *
*  compare      - compare initial and final structures                         *
********************************************************************************

  Job Started  at 12:29.04  1st December   2020                               

  Number of CPUs =     1


  Total number of configurations input =      1

********************************************************************************
*  Input for Configuration =   1                                               *
********************************************************************************

  Formula = ClOLi3                                                      

  Number of irreducible atoms/shells =       5


  Total number atoms/shells =       7

  Dimensionality = 3               :  Bulk   


  Symmetry :

  Crystal family                   :  Cubic       
  Crystal class  (Groth - 1921)    :  Cubic Hexakisoctahedral              

  Space group (centrosymmetric)    :  P M 3 M         

  Patterson group                  :  P m -3 m 

  Cartesian lattice vectors (Angstroms) :

        3.918873    0.000000    0.000000
        0.000000    3.918873    0.000000
        0.000000    0.000000    3.918873

  Cell parameters (Angstroms/Degrees):

  a =       3.9189    alpha =  90.0000
  b =       3.9189    beta  =  90.0000
  c =       3.9189    gamma =  90.0000

  Initial cell volume =          60.184349 Angs**3

  Temperature of configuration =   0.00     K 

  Pressure of configuration =         0.000 GPa 

  Fractional coordinates of asymmetric unit :

--------------------------------------------------------------------------------
   No.  Atomic       x           y          z         Charge      Occupancy
        Label      (Frac)      (Frac)     (Frac)        (e)         (Frac)  
--------------------------------------------------------------------------------
      1 Cl    c    0.000000    0.000000    0.000000     1.48500    1.000000    
      2 O     c    0.500000    0.500000    0.500000     0.18300    1.000000    
      3 Li    c    0.500000    0.500000    0.000000     1.00000    1.000000    
      4 Cl    s    0.000000    0.000000    0.000000    -2.48500    1.000000    
      5 O     s    0.500000    0.500000    0.500000    -2.18300    1.000000    
--------------------------------------------------------------------------------


  Constraints : 

--------------------------------------------------------------------------------
  Constraint no.      Unconstrained     Constrained    Coefficient    Offset
                         Variable         Variable
--------------------------------------------------------------------------------
           1              Strain 1        Strain 2       1.00000      0.0000
           2              Strain 1        Strain 3       1.00000      0.0000
--------------------------------------------------------------------------------


********************************************************************************
*  General input information                                                   *
********************************************************************************

  Species output for all configurations : 

--------------------------------------------------------------------------------
  Species    Type    Atomic    Atomic    Charge       Radii (Angs)     Library
                     Number     Mass       (e)     Cova   Ionic  VDW   Symbol
--------------------------------------------------------------------------------
    Li       Core        3       6.94   1.000000   0.680  0.000  1.800          
    O        Core        8      16.00   0.183000   0.730  0.000  1.360          
    O        Shell       8       0.00  -2.183000   0.730  0.000  1.360          
    Cl       Core       17      35.45   1.485000   0.990  0.000  1.650          
    Cl       Shell      17       0.00  -2.485000   0.990  0.000  1.650          
    Mg       Core       12      24.31   0.415000   1.100  0.000  0.000          
    Mg       Shell      12       0.00   1.585000   1.100  0.000  0.000          
    Ca       Core       20      40.08  -1.135000   0.990  0.000  0.000          
    Ca       Shell      20       0.00   3.135000   0.990  0.000  0.000          
    Sr       Core       38      87.62  -1.251000   1.120  0.000  0.000          
    Sr       Shell      38       0.00   3.251000   1.120  0.000  0.000          
    Ba       Core       56     137.33  -7.203000   1.340  0.000  0.000          
    Ba       Shell      56       0.00   9.203000   1.340  0.000  0.000          
--------------------------------------------------------------------------------


  Lattice summation method               =    Ewald          (3-D)
                                         =    Parry          (2-D)
                                         =    Saunders et al (1-D)
  Accuracy factor for lattice sums       =   12.000


  Analytic derivatives to be used

  Time limit = Infinity

  Maximum range for interatomic potentials =    100000.000000 Angstroms

  General interatomic potentials :

--------------------------------------------------------------------------------
Atom  Types   Potential      Parameter       Value         Units   Cutoffs(Ang)
  1     2                                                            Min /  Max 
--------------------------------------------------------------------------------
O    c O    s Spring (c-s)  Spring k 2       593.71600    eV*Ang^-2 0.000  0.800
                            Spring k 4       0.0000000    eV*Ang^-4 
--------------------------------------------------------------------------------
Cl   c Cl   s Spring (c-s)  Spring k 2       29.380000    eV*Ang^-2 0.000  0.800
                            Spring k 4       0.0000000    eV*Ang^-4 
--------------------------------------------------------------------------------
Mg   c Mg   s Spring (c-s)  Spring k 2       361.60000    eV*Ang^-2 0.000  0.800
                            Spring k 4       0.0000000    eV*Ang^-4 
--------------------------------------------------------------------------------
Ca   c Ca   s Spring (c-s)  Spring k 2       110.20000    eV*Ang^-2 0.000  0.800
                            Spring k 4       0.0000000    eV*Ang^-4 
--------------------------------------------------------------------------------
Sr   c Sr   s Spring (c-s)  Spring k 2       71.700000    eV*Ang^-2 0.000  0.800
                            Spring k 4       0.0000000    eV*Ang^-4 
--------------------------------------------------------------------------------
Ba   c Ba   s Spring (c-s)  Spring k 2       495.20000    eV*Ang^-2 0.000  0.800
                            Spring k 4       0.0000000    eV*Ang^-4 
--------------------------------------------------------------------------------
Li   c Li   c Buckingham    Buckingham A     360.53000    eV        0.000 12.000
                            Buckingham rho  0.16100000    Ang       
                            Buckingham C     0.0000000    eV*Ang^6  
--------------------------------------------------------------------------------
Li   c O    s Buckingham    Buckingham A     292.30000    eV        0.000 12.000
                            Buckingham rho  0.34700000    Ang       
                            Buckingham C     0.0000000    eV*Ang^6  
--------------------------------------------------------------------------------
Li   c Cl   s Buckingham    Buckingham A     421.04000    eV        0.000 12.000
                            Buckingham rho  0.33400000    Ang       
                            Buckingham C     0.0000000    eV*Ang^6  
--------------------------------------------------------------------------------
O    s O    s Buckingham    Buckingham A     22764.300    eV        0.000 12.000
                            Buckingham rho  0.14900000    Ang       
                            Buckingham C     13.190000    eV*Ang^6  
--------------------------------------------------------------------------------
O    s Cl   s Buckingham    Buckingham A     8286.9100    eV        0.000 12.000
                            Buckingham rho  0.25900000    Ang       
                            Buckingham C     62.200000    eV*Ang^6  
--------------------------------------------------------------------------------
Cl   s Cl   s Buckingham    Buckingham A     1227.2000    eV        0.000 12.000
                            Buckingham rho  0.32100000    Ang       
                            Buckingham C     14.530000    eV*Ang^6  
--------------------------------------------------------------------------------
O    s Mg   s Buckingham    Buckingham A     1428.5000    eV        0.000 12.000
                            Buckingham rho  0.29450000    Ang       
                            Buckingham C     0.0000000    eV*Ang^6  
--------------------------------------------------------------------------------
Mg   s Cl   s Buckingham    Buckingham A     4914.5400    eV        0.000 12.000
                            Buckingham rho  0.25700000    Ang       
                            Buckingham C     0.0000000    eV*Ang^6  
--------------------------------------------------------------------------------
O    s Ca   s Buckingham    Buckingham A     1090.4000    eV        0.000 12.000
                            Buckingham rho  0.34370000    Ang       
                            Buckingham C     0.0000000    eV*Ang^6  
--------------------------------------------------------------------------------
Cl   s Ca   s Buckingham    Buckingham A     2302.0000    eV        0.000 12.000
                            Buckingham rho  0.34020000    Ang       
                            Buckingham C     0.0000000    eV*Ang^6  
--------------------------------------------------------------------------------
O    s Sr   s Buckingham    Buckingham A     959.10000    eV        0.000 12.000
                            Buckingham rho  0.37210000    Ang       
                            Buckingham C     0.0000000    eV*Ang^6  
--------------------------------------------------------------------------------
Cl   s Sr   s Buckingham    Buckingham A     2191.0900    eV        0.000 12.000
                            Buckingham rho  0.34570000    Ang       
                            Buckingham C     0.0000000    eV*Ang^6  
--------------------------------------------------------------------------------
O    s Ba   s Buckingham    Buckingham A     905.70000    eV        0.000 12.000
                            Buckingham rho  0.39760000    Ang       
                            Buckingham C     0.0000000    eV*Ang^6  
--------------------------------------------------------------------------------
Cl   s Ba   s Buckingham    Buckingham A     2704.5500    eV        0.000 12.000
                            Buckingham rho  0.35280000    Ang       
                            Buckingham C     0.0000000    eV*Ang^6  
--------------------------------------------------------------------------------

********************************************************************************
*  Output for configuration   1                                                *
********************************************************************************


  Components of energy : 

--------------------------------------------------------------------------------
  Interatomic potentials     =           7.24802695 eV    
  Monopole - monopole (real) =         -11.53475722 eV    
  Monopole - monopole (recip)=         -33.94580548 eV    
  Monopole - monopole (total)=         -45.48056271 eV    
--------------------------------------------------------------------------------
  Total lattice energy       =         -38.23253575 eV    
--------------------------------------------------------------------------------
  Total lattice energy       =           -3688.8553 kJ/(mole unit cells)
--------------------------------------------------------------------------------


  Number of variables =        1

  Maximum number of calculations  =          1000
  Maximum Hessian update interval =            10
  Maximum step size               =   1.000000000
  Maximum parameter tolerance     =   0.000010000
  Maximum function  tolerance     =   0.000010000
  Maximum gradient  tolerance     =   0.001000000
  Maximum gradient  component     =   0.010000000

  Symmetry constrained optimisation

  Symmetry used for second derivatives

  Cell parameters to be optimised using strains

  Newton-Raphson optimiser to be used

  BFGS hessian update to be used

  Lower half triangular hessian to be used

  Start of bulk optimisation :

  Cycle:      0 Energy:       -38.232536  Gnorm:      0.000019  CPU:    0.009


  **** Optimisation achieved ****


  Final energy =     -38.23253575 eV
  Final Gnorm  =       0.00001878

  Components of energy : 

--------------------------------------------------------------------------------
  Interatomic potentials     =           7.24802695 eV    
  Monopole - monopole (real) =         -11.53475722 eV    
  Monopole - monopole (recip)=         -33.94580548 eV    
  Monopole - monopole (total)=         -45.48056271 eV    
--------------------------------------------------------------------------------
  Total lattice energy       =         -38.23253575 eV    
--------------------------------------------------------------------------------
  Total lattice energy       =           -3688.8553 kJ/(mole unit cells)
--------------------------------------------------------------------------------

  Final asymmetric unit coordinates :

--------------------------------------------------------------------------------
   No.  Atomic        x           y           z         Radius
        Label       (Frac)      (Frac)      (Frac)       (Angs) 
--------------------------------------------------------------------------------
     1  Cl    c     0.000000    0.000000    0.000000    0.000000
     2  O     c     0.500000    0.500000    0.500000    0.000000
     3  Li    c     0.500000    0.500000    0.000000    0.000000
     4  Cl    s     0.000000    0.000000    0.000000    0.000000
     5  O     s     0.500000    0.500000    0.500000    0.000000
--------------------------------------------------------------------------------

  Final Cartesian lattice vectors (Angstroms) :

        3.918873    0.000000    0.000000
        0.000000    3.918873    0.000000
        0.000000    0.000000    3.918873


  Final cell parameters and derivatives :

--------------------------------------------------------------------------------
       a            3.918873 Angstrom     dE/de1(xx)    -0.000019 eV/strain
       b            3.918873 Angstrom     dE/de2(yy)     0.000000 eV/strain
       c            3.918873 Angstrom     dE/de3(zz)     0.000000 eV/strain
       alpha       90.000000 Degrees      dE/de4(yz)     0.000000 eV/strain
       beta        90.000000 Degrees      dE/de5(xz)     0.000000 eV/strain
       gamma       90.000000 Degrees      dE/de6(xy)     0.000000 eV/strain
--------------------------------------------------------------------------------

  Primitive cell volume =            60.184349 Angs**3

  Density of cell =      1.994024 g/cm**3

  Non-primitive cell volume =            60.184349 Angs**3


  Final internal derivatives :

--------------------------------------------------------------------------------
   No.  Atomic          a             b             c           Radius
        Label          (eV)          (eV)          (eV)        (eV/Angs)
--------------------------------------------------------------------------------
      1 Cl    c       0.000000      0.000000      0.000000      0.000000
      2 O     c       0.000000      0.000000      0.000000      0.000000
      3 Li    c       0.000000      0.000000      0.000000      0.000000
      4 Cl    s       0.000000      0.000000      0.000000      0.000000
      5 O     s       0.000000      0.000000      0.000000      0.000000
--------------------------------------------------------------------------------
  Maximum abs         0.000000      0.000000      0.000000      0.000000
--------------------------------------------------------------------------------

  Comparison of initial and final structures : 

--------------------------------------------------------------------------------
  Parameter   Initial value   Final value   Difference    Units      Percent
--------------------------------------------------------------------------------
    Volume        60.184349     60.184349     0.000000    Angs**3      0.00
    a              3.918873      3.918873     0.000000    Angstroms    0.00
    b              3.918873      3.918873     0.000000    Angstroms    0.00
    c              3.918873      3.918873     0.000000    Angstroms    0.00
    alpha         90.000000     90.000000     0.000000    Degrees      0.00
    beta          90.000000     90.000000     0.000000    Degrees      0.00
    gamma         90.000000     90.000000     0.000000    Degrees      0.00
      1 x          0.000000      0.000000     0.000000    Fractional   0.00
      1 y          0.000000      0.000000     0.000000    Fractional   0.00
      1 z          0.000000      0.000000     0.000000    Fractional   0.00
      2 x          0.500000      0.500000     0.000000    Fractional   0.00
      2 y          0.500000      0.500000     0.000000    Fractional   0.00
      2 z          0.500000      0.500000     0.000000    Fractional   0.00
      3 x          0.500000      0.500000     0.000000    Fractional   0.00
      3 y          0.500000      0.500000     0.000000    Fractional   0.00
      3 z          0.000000      0.000000     0.000000    Fractional   0.00
      4 x          0.000000      0.000000     0.000000    Fractional   0.00
      4 y          0.000000      0.000000     0.000000    Fractional   0.00
      4 z          0.000000      0.000000     0.000000    Fractional   0.00
      5 x          0.500000      0.500000     0.000000    Fractional   0.00
      5 y          0.500000      0.500000     0.000000    Fractional   0.00
      5 z          0.500000      0.500000     0.000000    Fractional   0.00
--------------------------------------------------------------------------------


  Born effective charge tensors : 

-------------------------------------------------------------------------------
  Atom             x           y             z
-------------------------------------------------------------------------------
    1 Cl    x      -0.9481      0.0000      0.0000
            y       0.0000     -0.9481      0.0000
            z       0.0000      0.0000     -0.9481
-------------------------------------------------------------------------------
    2 O     x      -2.4696     -0.0000     -0.0000
            y      -0.0000     -2.4696     -0.0000
            z      -0.0000     -0.0000     -2.4696
-------------------------------------------------------------------------------
    3 Li    x       1.3129     -0.0000     -0.0000
            y      -0.0000      1.3129      0.0000
            z      -0.0000     -0.0000      0.7918
-------------------------------------------------------------------------------




  Elastic Constant Matrix: (Units=GPa)

-------------------------------------------------------------------------------
  Indices      1         2         3         4         5         6    
-------------------------------------------------------------------------------
       1     94.4615   45.0779   45.0779    0.0000   -0.0000    0.0000
       2     45.0779   94.4615   45.0779   -0.0000    0.0000   -0.0000
       3     45.0779   45.0779   94.4615   -0.0000   -0.0000   -0.0000
       4      0.0000   -0.0000   -0.0000   45.0779   -0.0000   -0.0000
       5     -0.0000    0.0000   -0.0000   -0.0000   45.0779   -0.0000
       6      0.0000   -0.0000   -0.0000   -0.0000   -0.0000   45.0779
-------------------------------------------------------------------------------


  Elastic Compliance Matrix: (Units=1/GPa)

-------------------------------------------------------------------------------
  Indices      1         2         3         4         5         6    
-------------------------------------------------------------------------------
       1    0.015305 -0.004944 -0.004944 -0.000000  0.000000 -0.000000
       2   -0.004944  0.015305 -0.004944  0.000000 -0.000000  0.000000
       3   -0.004944 -0.004944  0.015305  0.000000  0.000000  0.000000
       4   -0.000000  0.000000  0.000000  0.022184  0.000000  0.000000
       5    0.000000 -0.000000  0.000000  0.000000  0.022184  0.000000
       6   -0.000000  0.000000  0.000000  0.000000  0.000000  0.022184
-------------------------------------------------------------------------------

  Mechanical properties :

-------------------------------------------------------------------------------
  Convention :                    Reuss         Voigt         Hill
-------------------------------------------------------------------------------
  Bulk  Modulus (GPa)     =      61.53912      61.53912      61.53912
  Shear Modulus (GPa)     =      33.88682      36.92346      35.40514
-------------------------------------------------------------------------------
  Velocity S-wave (km/s)  =       4.12240       4.30314       4.21374
  Velocity P-wave (km/s)  =       7.31578       7.45327       7.38484
-------------------------------------------------------------------------------
  Compressibility (1/GPa) =    0.01624983
-------------------------------------------------------------------------------
  Stress axis :                     x             y             z
-------------------------------------------------------------------------------
  Youngs Moduli (GPa)     =      65.33688      65.33688      65.33688
-------------------------------------------------------------------------------
  Poissons Ratio (x)      =                     0.32305       0.32305
  Poissons Ratio (y)      =       0.32305                     0.32305
  Poissons Ratio (z)      =       0.32305       0.32305
-------------------------------------------------------------------------------


  Piezoelectric Strain Matrix: (Units=C/m**2)

-------------------------------------------------------------------------------
  Indices      1         2         3         4         5         6    
-------------------------------------------------------------------------------
       x    -0.00000   0.00000   0.00000   0.00000   0.00000   0.00000
       y    -0.00000  -0.00000  -0.00000   0.00000   0.00000  -0.00000
       z    -0.00000  -0.00000   0.00000   0.00000  -0.00000   0.00000
-------------------------------------------------------------------------------


  Piezoelectric Stress Matrix: (Units=10**-11 C/N)

-------------------------------------------------------------------------------
  Indices      1         2         3         4         5         6    
-------------------------------------------------------------------------------
       x    -0.00000   0.00000   0.00000   0.00000   0.00000   0.00000
       y     0.00000   0.00000  -0.00000   0.00000   0.00000  -0.00000
       z    -0.00000  -0.00000   0.00000   0.00000  -0.00000   0.00000
-------------------------------------------------------------------------------


  Static dielectric constant tensor : 

-------------------------------------------------------------------------------
              x         y         z
-------------------------------------------------------------------------------
       x    12.07041   0.00000   0.00000
       y     0.00000  12.07041   0.00000
       z     0.00000   0.00000  12.07041
--------------------------------------------------------------------------------

  High frequency dielectric constant tensor : 

-------------------------------------------------------------------------------
              x         y         z
-------------------------------------------------------------------------------
       x     1.74197  -0.00000  -0.00000
       y    -0.00000   1.74197  -0.00000
       z    -0.00000  -0.00000   1.74197
-------------------------------------------------------------------------------

  Static refractive indices : 

-------------------------------------------------------------------------------
    1 =    3.47425      2 =    3.47425      3 =    3.47425
-------------------------------------------------------------------------------

  High frequency refractive indices : 

-------------------------------------------------------------------------------
    1 =    1.31984      2 =    1.31984      3 =    1.31984
-------------------------------------------------------------------------------


  Time to end of optimisation =       0.0126 seconds

********************************************************************************
*  Defect calculation for configuration   1 :                                  *
********************************************************************************

  Total number of defects =      1

  Total charge on defect  =   1.00

  Defect centre is at   0.5000   0.0000   0.0000  Frac

  Region 1 radius =  16.0000      Number of ions =   2033

  Number of symmetry inequivalent region 1 ions  =    192

  Region 2 radius =  20.0000      Number of ions =   1840

  Number of symmetry inequivalent region 2a ions =    146

  Region 2a mode = 4 : screened electrostatics due to region 1 
                       neglect correction to region 1 forces from 2a
                       region 2a displacements based on defects only

  Region 2a ions will only interact with defects in region 1

  Interstitials:

--------------------------------------------------------------------------------
    Specification type     Symbol/Number         x          y          z
--------------------------------------------------------------------------------
    Atom/Fractional         Li               0.500000   0.000000   0.000000
--------------------------------------------------------------------------------


  Symmetry reduced region 1 (Relative to defect centre) :

--------------------------------------------------------------------------------
   No.   Atomic       x            y             z       Radius  Multiplicity   
         Label      (Angs)       (Angs)        (Angs)    (Angs)     
--------------------------------------------------------------------------------
     1  Li    c      0.0000       0.0000       0.0000    0.0000     1    Defect
     2  Cl    c      1.9594 *     0.0000       0.0000    0.0000     2          
     3  Li    c      0.0000      -1.9594 *     0.0000    0.0000     4          
     4  O     c      0.0000      -1.9594 *    -1.9594    0.0000     4          
     5  Li    c      1.9594 *    -1.9594 *    -1.9594    0.0000     8          
     6  Cl    c      1.9594 *     0.0000       3.9189 *  0.0000     8          
     7  Li    c      0.0000      -1.9594 *     3.9189 *  0.0000     8          
     8  Li    c      3.9189 *    -1.9594 *     0.0000    0.0000     8          
     9  O     c      3.9189 *    -1.9594 *    -1.9594    0.0000     8          
    10  Cl    c      1.9594 *     3.9189 *     3.9189    0.0000     8          
    11  Cl    c      5.8783 *     0.0000       0.0000    0.0000     2          
    12  Li    c      0.0000       5.8783 *     0.0000    0.0000     4          
    13  Li    c      3.9189 *    -1.9594 *     3.9189 *  0.0000    16          
    14  O     c      0.0000      -1.9594 *     5.8783 *  0.0000     8          
    15  Li    c      1.9594 *     5.8783 *    -1.9594 *  0.0000    16          
    16  Li    c      5.8783 *    -1.9594 *    -1.9594    0.0000     8          
    17  Cl    c      5.8783 *     0.0000       3.9189 *  0.0000     8          
    18  Li    c      0.0000       5.8783 *     3.9189 *  0.0000     8          
    19  Li    c      3.9189 *     5.8783 *     0.0000    0.0000     8          
    20  O     c      3.9189 *    -1.9594 *     5.8783 *  0.0000    16          
    21  Li    c      7.8377 *    -1.9594 *     0.0000    0.0000     8          
    22  Cl    c      1.9594 *     0.0000       7.8377 *  0.0000     8          
    23  Cl    c      5.8783 *     3.9189 *     3.9189    0.0000     8          
    24  Li    c      0.0000      -1.9594 *     7.8377 *  0.0000     8          
    25  Li    c      3.9189 *     5.8783 *     3.9189 *  0.0000    16          
    26  O     c      7.8377 *    -1.9594 *    -1.9594    0.0000     8          
    27  O     c      0.0000       5.8783 *     5.8783    0.0000     4          
    28  Li    c      1.9594 *     5.8783 *     5.8783    0.0000     8          
    29  Li    c      5.8783 *    -1.9594 *     5.8783 *  0.0000    16          
    30  Li    c      7.8377 *    -1.9594 *     3.9189 *  0.0000    16          
    31  Cl    c      1.9594 *     3.9189 *     7.8377 *  0.0000    16          
    32  Li    c      3.9189 *    -1.9594 *     7.8377 *  0.0000    16          
    33  O     c      3.9189 *     5.8783 *     5.8783    0.0000     8          
    34  Cl    c      9.7972 *     0.0000       0.0000    0.0000     2          
    35  Li    c      0.0000       9.7972 *     0.0000    0.0000     4          
    36  Li    c      7.8377 *     5.8783 *     0.0000    0.0000     8          
    37  Cl    c      5.8783 *     0.0000       7.8377 *  0.0000     8          
    38  Li    c      0.0000       5.8783 *     7.8377 *  0.0000     8          
    39  O     c      0.0000      -1.9594 *     9.7972 *  0.0000     8          
    40  O     c      7.8377 *    -1.9594 *     5.8783 *  0.0000    16          
    41  Li    c      1.9594 *    -1.9594 *     9.7972 *  0.0000    16          
    42  Li    c      9.7972 *    -1.9594 *    -1.9594    0.0000     8          
    43  Li    c      5.8783 *     5.8783 *     5.8783    0.0000     8          
    44  Cl    c      9.7972 *     0.0000       3.9189 *  0.0000     8          
    45  Li    c      0.0000       9.7972 *     3.9189 *  0.0000     8          
    46  Li    c      3.9189 *     9.7972 *     0.0000    0.0000     8          
    47  Li    c      7.8377 *     5.8783 *     3.9189 *  0.0000    16          
    48  Li    c      3.9189 *     7.8377 *     5.8783 *  0.0000    16          
    49  Cl    c      5.8783 *     3.9189 *     7.8377 *  0.0000    16          
    50  O     c      3.9189 *    -1.9594 *     9.7972 *  0.0000    16          
    51  Li    c      7.8377 *    -1.9594 *     7.8377 *  0.0000    16          
    52  Cl    c      9.7972 *     3.9189 *     3.9189    0.0000     8          
    53  Li    c      3.9189 *     9.7972 *     3.9189 *  0.0000    16          
    54  Cl    c      1.9594 *     7.8377 *     7.8377    0.0000     8          
    55  O     c      0.0000       5.8783 *     9.7972 *  0.0000     8          
    56  O     c      7.8377 *     5.8783 *     5.8783    0.0000     8          
    57  Li    c      1.9594 *     5.8783 *     9.7972 *  0.0000    16          
    58  Li    c      5.8783 *    -1.9594 *     9.7972 *  0.0000    16          
    59  Li    c      9.7972 *    -1.9594 *     5.8783 *  0.0000    16          
    60  Li    c    -11.7566 *    -1.9594 *     0.0000    0.0000     8          
    61  Cl    c      1.9594 *     0.0000      11.7566 *  0.0000     8          
    62  Li    c      0.0000      -1.9594 *    11.7566 *  0.0000     8          
    63  O     c    -11.7566 *    -1.9594 *    -1.9594    0.0000     8          
    64  O     c      3.9189 *     5.8783 *     9.7972 *  0.0000    16          
    65  Li    c    -11.7566 *    -1.9594 *     3.9189 *  0.0000    16          
    66  Cl    c      1.9594 *    11.7566 *     3.9189 *  0.0000    16          
    67  Cl    c      9.7972 *     0.0000       7.8377 *  0.0000     8          
    68  Li    c      0.0000       9.7972 *     7.8377 *  0.0000     8          
    69  Li    c      7.8377 *     5.8783 *     7.8377 *  0.0000    16          
    70  Li    c      7.8377 *     9.7972 *     0.0000    0.0000     8          
    71  Li    c      3.9189 *    11.7566 *    -1.9594 *  0.0000    16          
    72  Cl    c      5.8783 *     7.8377 *     7.8377    0.0000     8          
    73  O     c      7.8377 *    -1.9594 *     9.7972 *  0.0000    16          
    74  Li    c      5.8783 *     5.8783 *     9.7972 *  0.0000    16          
    75  Li    c      9.7972 *     5.8783 *     5.8783    0.0000     8          
    76  Li    c    -11.7566 *     5.8783 *     0.0000    0.0000     8          
    77  Cl    c      9.7972 *     7.8377 *     3.9189 *  0.0000    16          
    78  Li    c      7.8377 *     9.7972 *     3.9189 *  0.0000    16          
    79  Li    c      3.9189 *     7.8377 *     9.7972 *  0.0000    16          
    80  Cl    c      5.8783 *     0.0000      11.7566 *  0.0000     8          
    81  Li    c      0.0000       5.8783 *    11.7566 *  0.0000     8          
    82  O     c    -11.7566 *    -1.9594 *     5.8783 *  0.0000    16          
    83  Cl    c    -13.7161 *     0.0000       0.0000    0.0000     2          
    84  Li    c    -11.7566 *     5.8783 *     3.9189 *  0.0000    16          
    85  Cl    c      5.8783 *    11.7566 *     3.9189 *  0.0000    16          
    86  Li    c      0.0000      13.7161 *     0.0000    0.0000     4          
    87  Li    c      3.9189 *    11.7566 *     5.8783 *  0.0000    16          
    88  O     c      0.0000      -1.9594 *    13.7161 *  0.0000     8          
    89  O     c      0.0000       9.7972 *     9.7972    0.0000     4          
    90  O     c      7.8377 *     5.8783 *     9.7972 *  0.0000    16          
    91  Li    c    -13.7161 *    -1.9594 *    -1.9594    0.0000     8          
    92  Li    c      1.9594 *     9.7972 *     9.7972    0.0000     8          
    93  Li    c      1.9594 *    13.7161 *    -1.9594 *  0.0000    16          
    94  Li    c      9.7972 *    -1.9594 *     9.7972 *  0.0000    16          
    95  Cl    c    -13.7161 *     0.0000       3.9189 *  0.0000     8          
    96  Li    c    -11.7566 *    -1.9594 *     7.8377 *  0.0000    16          
    97  Li    c      0.0000      13.7161 *     3.9189 *  0.0000     8          
    98  Li    c      3.9189 *    13.7161 *     0.0000    0.0000     8          
    99  Li    c      7.8377 *    11.7566 *    -1.9594 *  0.0000    16          
   100  Cl    c      1.9594 *     7.8377 *    11.7566 *  0.0000    16          
   101  O     c    -11.7566 *     5.8783 *     5.8783    0.0000     8          
   102  O     c      3.9189 *     9.7972 *     9.7972    0.0000     8          
   103  O     c      3.9189 *    13.7161 *    -1.9594 *  0.0000    16          
   104  Cl    c    -13.7161 *     3.9189 *     3.9189    0.0000     8          
   105  Li    c      3.9189 *    13.7161 *     3.9189 *  0.0000    16          
   106  Li    c      7.8377 *     7.8377 *     9.7972 *  0.0000    16          
   107  Cl    c      9.7972 *     7.8377 *     7.8377    0.0000     8          
   108  O     c      0.0000       5.8783 *    13.7161 *  0.0000     8          
   109  Li    c    -13.7161 *    -1.9594 *     5.8783 *  0.0000    16          
   110  Li    c      1.9594 *    13.7161 *     5.8783 *  0.0000    16          
   111  Li    c      5.8783 *    13.7161 *    -1.9594 *  0.0000    16          
   112  Li    c      9.7972 *     9.7972 *     5.8783 *  0.0000    16          
   113  Li    c      5.8783 *     9.7972 *     9.7972    0.0000     8          
   114  Li    c    -11.7566 *     9.7972 *     0.0000    0.0000     8          
   115  Li    c    -11.7566 *     5.8783 *     7.8377 *  0.0000    16          
   116  Cl    c      9.7972 *     0.0000      11.7566 *  0.0000     8          
   117  Li    c      0.0000       9.7972 *    11.7566 *  0.0000     8          
   118  Li    c      7.8377 *     5.8783 *    11.7566 *  0.0000    16          
   119  Cl    c      5.8783 *     7.8377 *    11.7566 *  0.0000    16          
   120  O     c    -11.7566 *     9.7972 *    -1.9594 *  0.0000    16          
   121  O     c      3.9189 *    13.7161 *     5.8783 *  0.0000    16          
   122  Li    c    -11.7566 *     9.7972 *     3.9189 *  0.0000    16          
   123  Cl    c    -13.7161 *     0.0000       7.8377 *  0.0000     8          
   124  Cl    c      9.7972 *    11.7566 *     3.9189 *  0.0000    16          
   125  Li    c      7.8377 *    13.7161 *     0.0000    0.0000     8          
   126  Cl    c      1.9594 *     0.0000      15.6755 *  0.0000     8          
   127  Li    c      0.0000      -1.9594 *    15.6755 *  0.0000     8          
   128  Li    c      0.0000      13.7161 *     7.8377 *  0.0000     8          
   129  Li    c      3.9189 *     9.7972 *    11.7566 *  0.0000    16          
   130  Li    c     15.6755 *    -1.9594 *     0.0000    0.0000     8          
   131  O     c      7.8377 *    -1.9594 *    13.7161 *  0.0000    16          
   132  O     c      7.8377 *     9.7972 *     9.7972    0.0000     8          
   133  O     c     15.6755 *    -1.9594 *    -1.9594    0.0000     8          
   134  Cl    s      1.9594 *     0.0000       0.0000    0.0000     2          
   135  O     s      0.0000      -1.9594 *    -1.9594    0.0000     4          
   136  Cl    s      1.9594 *     0.0000       3.9189 *  0.0000     8          
   137  O     s      3.9189 *    -1.9594 *    -1.9594    0.0000     8          
   138  Cl    s      1.9594 *     3.9189 *     3.9189    0.0000     8          
   139  Cl    s      5.8783 *     0.0000       0.0000    0.0000     2          
   140  O     s      0.0000      -1.9594 *     5.8783 *  0.0000     8          
   141  Cl    s      5.8783 *     0.0000       3.9189 *  0.0000     8          
   142  O     s      3.9189 *    -1.9594 *     5.8783 *  0.0000    16          
   143  Cl    s      1.9594 *     0.0000       7.8377 *  0.0000     8          
   144  Cl    s      5.8783 *     3.9189 *     3.9189    0.0000     8          
   145  O     s      7.8377 *    -1.9594 *    -1.9594    0.0000     8          
   146  O     s      0.0000       5.8783 *     5.8783    0.0000     4          
   147  Cl    s      1.9594 *     3.9189 *     7.8377 *  0.0000    16          
   148  O     s      3.9189 *     5.8783 *     5.8783    0.0000     8          
   149  Cl    s      9.7972 *     0.0000       0.0000    0.0000     2          
   150  Cl    s      5.8783 *     0.0000       7.8377 *  0.0000     8          
   151  O     s      0.0000      -1.9594 *     9.7972 *  0.0000     8          
   152  O     s      7.8377 *    -1.9594 *     5.8783 *  0.0000    16          
   153  Cl    s      9.7972 *     0.0000       3.9189 *  0.0000     8          
   154  Cl    s      5.8783 *     3.9189 *     7.8377 *  0.0000    16          
   155  O     s      3.9189 *    -1.9594 *     9.7972 *  0.0000    16          
   156  Cl    s      9.7972 *     3.9189 *     3.9189    0.0000     8          
   157  Cl    s      1.9594 *     7.8377 *     7.8377    0.0000     8          
   158  O     s      0.0000       5.8783 *     9.7972 *  0.0000     8          
   159  O     s      7.8377 *     5.8783 *     5.8783    0.0000     8          
   160  Cl    s      1.9594 *     0.0000      11.7566 *  0.0000     8          
   161  O     s    -11.7566 *    -1.9594 *    -1.9594    0.0000     8          
   162  O     s      3.9189 *     5.8783 *     9.7972 *  0.0000    16          
   163  Cl    s      1.9594 *    11.7566 *     3.9189 *  0.0000    16          
   164  Cl    s      9.7972 *     0.0000       7.8377 *  0.0000     8          
   165  Cl    s      5.8783 *     7.8377 *     7.8377    0.0000     8          
   166  O     s      7.8377 *    -1.9594 *     9.7972 *  0.0000    16          
   167  Cl    s      9.7972 *     7.8377 *     3.9189 *  0.0000    16          
   168  Cl    s      5.8783 *     0.0000      11.7566 *  0.0000     8          
   169  O     s    -11.7566 *    -1.9594 *     5.8783 *  0.0000    16          
   170  Cl    s    -13.7161 *     0.0000       0.0000    0.0000     2          
   171  Cl    s      5.8783 *    11.7566 *     3.9189 *  0.0000    16          
   172  O     s      0.0000      -1.9594 *    13.7161 *  0.0000     8          
   173  O     s      0.0000       9.7972 *     9.7972    0.0000     4          
   174  O     s      7.8377 *     5.8783 *     9.7972 *  0.0000    16          
   175  Cl    s    -13.7161 *     0.0000       3.9189 *  0.0000     8          
   176  Cl    s      1.9594 *     7.8377 *    11.7566 *  0.0000    16          
   177  O     s    -11.7566 *     5.8783 *     5.8783    0.0000     8          
   178  O     s      3.9189 *     9.7972 *     9.7972    0.0000     8          
   179  O     s      3.9189 *    13.7161 *    -1.9594 *  0.0000    16          
   180  Cl    s    -13.7161 *     3.9189 *     3.9189    0.0000     8          
   181  Cl    s      9.7972 *     7.8377 *     7.8377    0.0000     8          
   182  O     s      0.0000       5.8783 *    13.7161 *  0.0000     8          
   183  Cl    s      9.7972 *     0.0000      11.7566 *  0.0000     8          
   184  Cl    s      5.8783 *     7.8377 *    11.7566 *  0.0000    16          
   185  O     s    -11.7566 *     9.7972 *    -1.9594 *  0.0000    16          
   186  O     s      3.9189 *    13.7161 *     5.8783 *  0.0000    16          
   187  Cl    s    -13.7161 *     0.0000       7.8377 *  0.0000     8          
   188  Cl    s      9.7972 *    11.7566 *     3.9189 *  0.0000    16          
   189  Cl    s      1.9594 *     0.0000      15.6755 *  0.0000     8          
   190  O     s      7.8377 *    -1.9594 *    13.7161 *  0.0000    16          
   191  O     s      7.8377 *     9.7972 *     9.7972    0.0000     8          
   192  O     s     15.6755 *    -1.9594 *    -1.9594    0.0000     8          
--------------------------------------------------------------------------------


  Constraints on symmetry reduced coordinates :

--------------------------------------------------------------------------------
  Constraint no.      Unconstrained     Constrained    Coefficient    
                         Variable         Variable
--------------------------------------------------------------------------------
           1                 4 y             4 z         1.00000
           2                 5 y             5 z         1.00000
           3                 9 y             9 z         1.00000
           4                10 y            10 z         1.00000
           5                16 y            16 z         1.00000
           6                23 y            23 z         1.00000
           7                26 y            26 z         1.00000
           8                27 y            27 z         1.00000
           9                28 y            28 z         1.00000
          10                33 y            33 z         1.00000
          11                42 y            42 z         1.00000
          12                43 y            43 z         1.00000
          13                52 y            52 z         1.00000
          14                54 y            54 z         1.00000
          15                56 y            56 z         1.00000
          16                63 y            63 z         1.00000
          17                72 y            72 z         1.00000
          18                75 y            75 z         1.00000
          19                89 y            89 z         1.00000
          20                91 y            91 z         1.00000
          21                92 y            92 z         1.00000
          22               101 y           101 z         1.00000
          23               102 y           102 z         1.00000
          24               104 y           104 z         1.00000
          25               107 y           107 z         1.00000
          26               113 y           113 z         1.00000
          27               132 y           132 z         1.00000
          28               133 y           133 z         1.00000
          29               135 y           135 z         1.00000
          30               137 y           137 z         1.00000
          31               138 y           138 z         1.00000
          32               144 y           144 z         1.00000
          33               145 y           145 z         1.00000
          34               146 y           146 z         1.00000
          35               148 y           148 z         1.00000
          36               156 y           156 z         1.00000
          37               157 y           157 z         1.00000
          38               159 y           159 z         1.00000
          39               161 y           161 z         1.00000
          40               165 y           165 z         1.00000
          41               173 y           173 z         1.00000
          42               177 y           177 z         1.00000
          43               178 y           178 z         1.00000
          44               180 y           180 z         1.00000
          45               181 y           181 z         1.00000
          46               191 y           191 z         1.00000
          47               192 y           192 z         1.00000
--------------------------------------------------------------------------------


  Components of defect energy : 

--------------------------------------------------------------------------------
  Region 1 - region 1                   =    -24.68131832 eV
  Region 1 - region 2a (unrelaxed)      =     28.46280892 eV
  Region 1 - 2a (relaxed - correction)  =     -0.16002541 eV
  Region 1 (Total)                      =      3.62146518 eV
  Region 2a                             =      0.08001924 eV
  Region 2b                             =     -0.33078215 eV
--------------------------------------------------------------------------------
  Total defect energy                   =      3.37070228 eV
--------------------------------------------------------------------------------

  Largest displacement in region 2 =   0.0050 Angstroms


  Number of variables =      438

  Maximum number of calculations  =        1000
  Maximum Hessian update interval =          10
  Maximum step size               =   1.0000000
  Maximum parameter tolerance     =   0.0000100
  Maximum function  tolerance     =   0.0000100
  Maximum gradient  tolerance     =   0.0010000

  Symmetry adapted optimisation

  Symmetry to be used for second derivatives

  Newton-Raphson optimiser to be used

  BFGS hessian update to be used

  Lower half triangular hessian to be used

  Start of defect optimisation :

  Cycle:      0 Defect Energy:   3.370702  Gnorm:     0.119052  CPU:   10.546
  ** Hessian calculated **
  Cycle:      1 Defect Energy:  -1.881965  Gnorm:     0.009109  CPU:   19.078
  Cycle:      2 Defect Energy:  -1.942405  Gnorm:     0.006863  CPU:   20.406
  Cycle:      3 Defect Energy:  -1.986801  Gnorm:     0.004759  CPU:   21.942
  Cycle:      4 Defect Energy:  -2.010034  Gnorm:     0.003341  CPU:   23.464
  Cycle:      5 Defect Energy:  -2.021971  Gnorm:     0.002348  CPU:   25.121
  Cycle:      6 Defect Energy:  -2.028036  Gnorm:     0.001649  CPU:   26.315
  Cycle:      7 Defect Energy:  -2.031098  Gnorm:     0.001158  CPU:   28.077
  Cycle:      8 Defect Energy:  -2.032636  Gnorm:     0.000812  CPU:   29.702
  Cycle:      9 Defect Energy:  -2.033407  Gnorm:     0.000570  CPU:   31.318
  Cycle:     10 Defect Energy:  -2.033793  Gnorm:     0.000399  CPU:   32.809
  ** Hessian calculated **
  Cycle:     11 Defect Energy:  -2.033986  Gnorm:     0.000280  CPU:   37.598
  Cycle:     12 Defect Energy:  -2.034084  Gnorm:     0.000196  CPU:   39.307
  Cycle:     13 Defect Energy:  -2.034133  Gnorm:     0.000137  CPU:   40.794
  Cycle:     14 Defect Energy:  -2.034159  Gnorm:     0.000096  CPU:   42.165
  Cycle:     15 Defect Energy:  -2.034172  Gnorm:     0.000067  CPU:   43.836


  **** Optimisation achieved ****


  Final defect energy  =       -2.03417876
  Final defect Gnorm   =        0.00004707

  Components of defect energy : 

--------------------------------------------------------------------------------
  Region 1 - region 1                   =    -30.12297858 eV
  Region 1 - region 2a (unrelaxed)      =     28.48395039 eV
  Region 1 - 2a (relaxed - correction)  =     -0.12872986 eV
  Region 1 (Total)                      =     -1.76775805 eV
  Region 2a                             =      0.06436144 eV
  Region 2b                             =     -0.33078215 eV
--------------------------------------------------------------------------------
  Total defect energy                   =     -2.03417876 eV
--------------------------------------------------------------------------------

  Largest displacement in region 2 =   0.0050 Angstroms

  Final coordinates of region 1 :

--------------------------------------------------------------------------------
   No.  Atomic        x           y           z          Radius      Charge
        Label       (Angs)      (Angs)      (Angs)       (Angs)       (e) 
--------------------------------------------------------------------------------
     1  Li    c     1.959436    0.000000    0.000000    0.000000    1.000000
     2  Cl    c     4.151458    0.000000    0.000000    0.000000    1.485000
     3  Cl    c    -0.232585    0.000000    0.000000    0.000000    1.485000
     4  Li    c     1.959436   -2.381155    0.000000    0.000000    1.000000
     5  Li    c     1.959436    2.381155    0.000000    0.000000    1.000000
     6  Li    c     1.959436    0.000000   -2.381155    0.000000    1.000000
     7  Li    c     1.959436    0.000000    2.381155    0.000000    1.000000
     8  O     c     1.959436   -1.867982   -1.867982    0.000000    0.183000
     9  O     c     1.959436   -1.867982    1.867982    0.000000    0.183000
    10  O     c     1.959436    1.867982   -1.867982    0.000000    0.183000
    11  O     c     1.959436    1.867982    1.867982    0.000000    0.183000
    12  Li    c     3.945079   -1.929364   -1.929364    0.000000    1.000000
    13  Li    c     3.945079   -1.929364    1.929364    0.000000    1.000000
    14  Li    c     3.945079    1.929364   -1.929364    0.000000    1.000000
    15  Li    c     3.945079    1.929364    1.929364    0.000000    1.000000
    16  Li    c    -0.026206   -1.929364   -1.929364    0.000000    1.000000
    17  Li    c    -0.026206   -1.929364    1.929364    0.000000    1.000000
    18  Li    c    -0.026206    1.929364   -1.929364    0.000000    1.000000
    19  Li    c    -0.026206    1.929364    1.929364    0.000000    1.000000
    20  Cl    c     3.901805    0.000000    3.925724    0.000000    1.485000
    21  Cl    c     3.901805    0.000000   -3.925724    0.000000    1.485000
    22  Cl    c     3.901805    3.925724    0.000000    0.000000    1.485000
    23  Cl    c     3.901805   -3.925724    0.000000    0.000000    1.485000
    24  Cl    c     0.017068    0.000000    3.925724    0.000000    1.485000
    25  Cl    c     0.017068    0.000000   -3.925724    0.000000    1.485000
    26  Cl    c     0.017068    3.925724    0.000000    0.000000    1.485000
    27  Cl    c     0.017068   -3.925724    0.000000    0.000000    1.485000
    28  Li    c     1.959436   -2.049341    3.969404    0.000000    1.000000
    29  Li    c     1.959436   -2.049341   -3.969404    0.000000    1.000000
    30  Li    c     1.959436    2.049341    3.969404    0.000000    1.000000
    31  Li    c     1.959436    2.049341   -3.969404    0.000000    1.000000
    32  Li    c     1.959436    3.969404   -2.049341    0.000000    1.000000
    33  Li    c     1.959436    3.969404    2.049341    0.000000    1.000000
    34  Li    c     1.959436   -3.969404   -2.049341    0.000000    1.000000
    35  Li    c     1.959436   -3.969404    2.049341    0.000000    1.000000
    36  Li    c     5.948201   -1.973392    0.000000    0.000000    1.000000
    37  Li    c     5.948201    1.973392    0.000000    0.000000    1.000000
    38  Li    c    -2.029328   -1.973392    0.000000    0.000000    1.000000
    39  Li    c    -2.029328    1.973392    0.000000    0.000000    1.000000
    40  Li    c     5.948201    0.000000   -1.973392    0.000000    1.000000
    41  Li    c     5.948201    0.000000    1.973392    0.000000    1.000000
    42  Li    c    -2.029328    0.000000   -1.973392    0.000000    1.000000
    43  Li    c    -2.029328    0.000000    1.973392    0.000000    1.000000
    44  O     c     5.895005   -1.964492   -1.964492    0.000000    0.183000
    45  O     c     5.895005   -1.964492    1.964492    0.000000    0.183000
    46  O     c     5.895005    1.964492   -1.964492    0.000000    0.183000
    47  O     c     5.895005    1.964492    1.964492    0.000000    0.183000
    48  O     c    -1.976132   -1.964492   -1.964492    0.000000    0.183000
    49  O     c    -1.976132   -1.964492    1.964492    0.000000    0.183000
    50  O     c    -1.976132    1.964492   -1.964492    0.000000    0.183000
    51  O     c    -1.976132    1.964492    1.964492    0.000000    0.183000
    52  Cl    c     3.875626    3.886532    3.886532    0.000000    1.485000
    53  Cl    c     3.875626    3.886532   -3.886532    0.000000    1.485000
    54  Cl    c     3.875626   -3.886532    3.886532    0.000000    1.485000
    55  Cl    c     3.875626   -3.886532   -3.886532    0.000000    1.485000
    56  Cl    c     0.043247    3.886532    3.886532    0.000000    1.485000
    57  Cl    c     0.043247    3.886532   -3.886532    0.000000    1.485000
    58  Cl    c     0.043247   -3.886532    3.886532    0.000000    1.485000
    59  Cl    c     0.043247   -3.886532   -3.886532    0.000000    1.485000
    60  Cl    c     7.855478    0.000000    0.000000    0.000000    1.485000
    61  Cl    c    -3.936605    0.000000    0.000000    0.000000    1.485000
    62  Li    c     1.959436    5.902546    0.000000    0.000000    1.000000
    63  Li    c     1.959436   -5.902546    0.000000    0.000000    1.000000
    64  Li    c     1.959436    0.000000    5.902546    0.000000    1.000000
    65  Li    c     1.959436    0.000000   -5.902546    0.000000    1.000000
    66  Li    c     5.885596   -1.970491    3.924149    0.000000    1.000000
    67  Li    c     5.885596   -1.970491   -3.924149    0.000000    1.000000
    68  Li    c     5.885596    1.970491    3.924149    0.000000    1.000000
    69  Li    c     5.885596    1.970491   -3.924149    0.000000    1.000000
    70  Li    c    -1.966723   -1.970491    3.924149    0.000000    1.000000
    71  Li    c    -1.966723   -1.970491   -3.924149    0.000000    1.000000
    72  Li    c    -1.966723    1.970491    3.924149    0.000000    1.000000
    73  Li    c    -1.966723    1.970491   -3.924149    0.000000    1.000000
    74  Li    c     5.885596    3.924149   -1.970491    0.000000    1.000000
    75  Li    c     5.885596    3.924149    1.970491    0.000000    1.000000
    76  Li    c     5.885596   -3.924149   -1.970491    0.000000    1.000000
    77  Li    c     5.885596   -3.924149    1.970491    0.000000    1.000000
    78  Li    c    -1.966723    3.924149   -1.970491    0.000000    1.000000
    79  Li    c    -1.966723    3.924149    1.970491    0.000000    1.000000
    80  Li    c    -1.966723   -3.924149   -1.970491    0.000000    1.000000
    81  Li    c    -1.966723   -3.924149    1.970491    0.000000    1.000000
    82  O     c     1.959436   -1.968016    5.882503    0.000000    0.183000
    83  O     c     1.959436   -1.968016   -5.882503    0.000000    0.183000
    84  O     c     1.959436    1.968016    5.882503    0.000000    0.183000
    85  O     c     1.959436    1.968016   -5.882503    0.000000    0.183000
    86  O     c     1.959436    5.882503   -1.968016    0.000000    0.183000
    87  O     c     1.959436    5.882503    1.968016    0.000000    0.183000
    88  O     c     1.959436   -5.882503   -1.968016    0.000000    0.183000
    89  O     c     1.959436   -5.882503    1.968016    0.000000    0.183000
    90  Li    c     3.923911    5.902718   -1.962706    0.000000    1.000000
    91  Li    c     3.923911    5.902718    1.962706    0.000000    1.000000
    92  Li    c     3.923911   -5.902718   -1.962706    0.000000    1.000000
    93  Li    c     3.923911   -5.902718    1.962706    0.000000    1.000000
    94  Li    c    -0.005038    5.902718   -1.962706    0.000000    1.000000
    95  Li    c    -0.005038    5.902718    1.962706    0.000000    1.000000
    96  Li    c    -0.005038   -5.902718   -1.962706    0.000000    1.000000
    97  Li    c    -0.005038   -5.902718    1.962706    0.000000    1.000000
    98  Li    c     3.923911   -1.962706    5.902718    0.000000    1.000000
    99  Li    c     3.923911   -1.962706   -5.902718    0.000000    1.000000
   100  Li    c     3.923911    1.962706    5.902718    0.000000    1.000000
   101  Li    c     3.923911    1.962706   -5.902718    0.000000    1.000000
   102  Li    c    -0.005038   -1.962706    5.902718    0.000000    1.000000
   103  Li    c    -0.005038   -1.962706   -5.902718    0.000000    1.000000
   104  Li    c    -0.005038    1.962706    5.902718    0.000000    1.000000
   105  Li    c    -0.005038    1.962706   -5.902718    0.000000    1.000000
   106  Li    c     7.858500   -1.980368   -1.980368    0.000000    1.000000
   107  Li    c     7.858500   -1.980368    1.980368    0.000000    1.000000
   108  Li    c     7.858500    1.980368   -1.980368    0.000000    1.000000
   109  Li    c     7.858500    1.980368    1.980368    0.000000    1.000000
   110  Li    c    -3.939627   -1.980368   -1.980368    0.000000    1.000000
   111  Li    c    -3.939627   -1.980368    1.980368    0.000000    1.000000
   112  Li    c    -3.939627    1.980368   -1.980368    0.000000    1.000000
   113  Li    c    -3.939627    1.980368    1.980368    0.000000    1.000000
   114  Cl    c     7.831660    0.000000    3.919429    0.000000    1.485000
   115  Cl    c     7.831660    0.000000   -3.919429    0.000000    1.485000
   116  Cl    c     7.831660    3.919429    0.000000    0.000000    1.485000
   117  Cl    c     7.831660   -3.919429    0.000000    0.000000    1.485000
   118  Cl    c    -3.912787    0.000000    3.919429    0.000000    1.485000
   119  Cl    c    -3.912787    0.000000   -3.919429    0.000000    1.485000
   120  Cl    c    -3.912787    3.919429    0.000000    0.000000    1.485000
   121  Cl    c    -3.912787   -3.919429    0.000000    0.000000    1.485000
   122  Li    c     1.959436    5.922779    3.940328    0.000000    1.000000
   123  Li    c     1.959436    5.922779   -3.940328    0.000000    1.000000
   124  Li    c     1.959436   -5.922779    3.940328    0.000000    1.000000
   125  Li    c     1.959436   -5.922779   -3.940328    0.000000    1.000000
   126  Li    c     1.959436    3.940328    5.922779    0.000000    1.000000
   127  Li    c     1.959436    3.940328   -5.922779    0.000000    1.000000
   128  Li    c     1.959436   -3.940328    5.922779    0.000000    1.000000
   129  Li    c     1.959436   -3.940328   -5.922779    0.000000    1.000000
   130  Li    c     5.893121    5.891868    0.000000    0.000000    1.000000
   131  Li    c     5.893121   -5.891868    0.000000    0.000000    1.000000
   132  Li    c    -1.974248    5.891868    0.000000    0.000000    1.000000
   133  Li    c    -1.974248   -5.891868    0.000000    0.000000    1.000000
   134  Li    c     5.893121    0.000000    5.891868    0.000000    1.000000
   135  Li    c     5.893121    0.000000   -5.891868    0.000000    1.000000
   136  Li    c    -1.974248    0.000000    5.891868    0.000000    1.000000
   137  Li    c    -1.974248    0.000000   -5.891868    0.000000    1.000000
   138  O     c     5.873822   -1.960970    5.875140    0.000000    0.183000
   139  O     c     5.873822   -1.960970   -5.875140    0.000000    0.183000
   140  O     c     5.873822    1.960970    5.875140    0.000000    0.183000
   141  O     c     5.873822    1.960970   -5.875140    0.000000    0.183000
   142  O     c     5.873822    5.875140   -1.960970    0.000000    0.183000
   143  O     c     5.873822    5.875140    1.960970    0.000000    0.183000
   144  O     c     5.873822   -5.875140   -1.960970    0.000000    0.183000
   145  O     c     5.873822   -5.875140    1.960970    0.000000    0.183000
   146  O     c    -1.954949   -1.960970    5.875140    0.000000    0.183000
   147  O     c    -1.954949   -1.960970   -5.875140    0.000000    0.183000
   148  O     c    -1.954949    1.960970    5.875140    0.000000    0.183000
   149  O     c    -1.954949    1.960970   -5.875140    0.000000    0.183000
   150  O     c    -1.954949    5.875140   -1.960970    0.000000    0.183000
   151  O     c    -1.954949    5.875140    1.960970    0.000000    0.183000
   152  O     c    -1.954949   -5.875140   -1.960970    0.000000    0.183000
   153  O     c    -1.954949   -5.875140    1.960970    0.000000    0.183000
   154  Li    c     9.805112   -1.960087    0.000000    0.000000    1.000000
   155  Li    c     9.805112    1.960087    0.000000    0.000000    1.000000
   156  Li    c     9.805112    0.000000   -1.960087    0.000000    1.000000
   157  Li    c     9.805112    0.000000    1.960087    0.000000    1.000000
   158  Li    c    -5.886239   -1.960087    0.000000    0.000000    1.000000
   159  Li    c    -5.886239    1.960087    0.000000    0.000000    1.000000
   160  Li    c    -5.886239    0.000000   -1.960087    0.000000    1.000000
   161  Li    c    -5.886239    0.000000    1.960087    0.000000    1.000000
   162  Cl    c     3.915876    0.000000    7.829360    0.000000    1.485000
   163  Cl    c     3.915876    0.000000   -7.829360    0.000000    1.485000
   164  Cl    c     3.915876    7.829360    0.000000    0.000000    1.485000
   165  Cl    c     3.915876   -7.829360    0.000000    0.000000    1.485000
   166  Cl    c     0.002997    0.000000    7.829360    0.000000    1.485000
   167  Cl    c     0.002997    0.000000   -7.829360    0.000000    1.485000
   168  Cl    c     0.002997    7.829360    0.000000    0.000000    1.485000
   169  Cl    c     0.002997   -7.829360    0.000000    0.000000    1.485000
   170  Cl    c     7.830156    3.920786    3.920786    0.000000    1.485000
   171  Cl    c     7.830156    3.920786   -3.920786    0.000000    1.485000
   172  Cl    c     7.830156   -3.920786    3.920786    0.000000    1.485000
   173  Cl    c     7.830156   -3.920786   -3.920786    0.000000    1.485000
   174  Cl    c    -3.911283    3.920786    3.920786    0.000000    1.485000
   175  Cl    c    -3.911283    3.920786   -3.920786    0.000000    1.485000
   176  Cl    c    -3.911283   -3.920786    3.920786    0.000000    1.485000
   177  Cl    c    -3.911283   -3.920786   -3.920786    0.000000    1.485000
   178  Li    c     1.959436   -1.962335    7.850472    0.000000    1.000000
   179  Li    c     1.959436   -1.962335   -7.850472    0.000000    1.000000
   180  Li    c     1.959436    1.962335    7.850472    0.000000    1.000000
   181  Li    c     1.959436    1.962335   -7.850472    0.000000    1.000000
   182  Li    c     1.959436    7.850472   -1.962335    0.000000    1.000000
   183  Li    c     1.959436    7.850472    1.962335    0.000000    1.000000
   184  Li    c     1.959436   -7.850472   -1.962335    0.000000    1.000000
   185  Li    c     1.959436   -7.850472    1.962335    0.000000    1.000000
   186  Li    c     5.887200    5.892482    3.922307    0.000000    1.000000
   187  Li    c     5.887200    5.892482   -3.922307    0.000000    1.000000
   188  Li    c     5.887200   -5.892482    3.922307    0.000000    1.000000
   189  Li    c     5.887200   -5.892482   -3.922307    0.000000    1.000000
   190  Li    c    -1.968327    5.892482    3.922307    0.000000    1.000000
   191  Li    c    -1.968327    5.892482   -3.922307    0.000000    1.000000
   192  Li    c    -1.968327   -5.892482    3.922307    0.000000    1.000000
   193  Li    c    -1.968327   -5.892482   -3.922307    0.000000    1.000000
   194  Li    c     5.887200    3.922307    5.892482    0.000000    1.000000
   195  Li    c     5.887200    3.922307   -5.892482    0.000000    1.000000
   196  Li    c     5.887200   -3.922307    5.892482    0.000000    1.000000
   197  Li    c     5.887200   -3.922307   -5.892482    0.000000    1.000000
   198  Li    c    -1.968327    3.922307    5.892482    0.000000    1.000000
   199  Li    c    -1.968327    3.922307   -5.892482    0.000000    1.000000
   200  Li    c    -1.968327   -3.922307    5.892482    0.000000    1.000000
   201  Li    c    -1.968327   -3.922307   -5.892482    0.000000    1.000000
   202  O     c     9.801307   -1.963417   -1.963417    0.000000    0.183000
   203  O     c     9.801307   -1.963417    1.963417    0.000000    0.183000
   204  O     c     9.801307    1.963417   -1.963417    0.000000    0.183000
   205  O     c     9.801307    1.963417    1.963417    0.000000    0.183000
   206  O     c    -5.882434   -1.963417   -1.963417    0.000000    0.183000
   207  O     c    -5.882434   -1.963417    1.963417    0.000000    0.183000
   208  O     c    -5.882434    1.963417   -1.963417    0.000000    0.183000
   209  O     c    -5.882434    1.963417    1.963417    0.000000    0.183000
   210  O     c     1.959436    5.886676    5.886676    0.000000    0.183000
   211  O     c     1.959436    5.886676   -5.886676    0.000000    0.183000
   212  O     c     1.959436   -5.886676    5.886676    0.000000    0.183000
   213  O     c     1.959436   -5.886676   -5.886676    0.000000    0.183000
   214  Li    c     3.920483    5.893465    5.893465    0.000000    1.000000
   215  Li    c     3.920483    5.893465   -5.893465    0.000000    1.000000
   216  Li    c     3.920483   -5.893465    5.893465    0.000000    1.000000
   217  Li    c     3.920483   -5.893465   -5.893465    0.000000    1.000000
   218  Li    c    -0.001610    5.893465    5.893465    0.000000    1.000000
   219  Li    c    -0.001610    5.893465   -5.893465    0.000000    1.000000
   220  Li    c    -0.001610   -5.893465    5.893465    0.000000    1.000000
   221  Li    c    -0.001610   -5.893465   -5.893465    0.000000    1.000000
   222  Li    c     7.843790   -1.963183    5.879454    0.000000    1.000000
   223  Li    c     7.843790   -1.963183   -5.879454    0.000000    1.000000
   224  Li    c     7.843790    1.963183    5.879454    0.000000    1.000000
   225  Li    c     7.843790    1.963183   -5.879454    0.000000    1.000000
   226  Li    c     7.843790    5.879454   -1.963183    0.000000    1.000000
   227  Li    c     7.843790    5.879454    1.963183    0.000000    1.000000
   228  Li    c     7.843790   -5.879454   -1.963183    0.000000    1.000000
   229  Li    c     7.843790   -5.879454    1.963183    0.000000    1.000000
   230  Li    c    -3.924917   -1.963183    5.879454    0.000000    1.000000
   231  Li    c    -3.924917   -1.963183   -5.879454    0.000000    1.000000
   232  Li    c    -3.924917    1.963183    5.879454    0.000000    1.000000
   233  Li    c    -3.924917    1.963183   -5.879454    0.000000    1.000000
   234  Li    c    -3.924917    5.879454   -1.963183    0.000000    1.000000
   235  Li    c    -3.924917    5.879454    1.963183    0.000000    1.000000
   236  Li    c    -3.924917   -5.879454   -1.963183    0.000000    1.000000
   237  Li    c    -3.924917   -5.879454    1.963183    0.000000    1.000000
   238  Li    c     9.815483   -1.961112    3.924212    0.000000    1.000000
   239  Li    c     9.815483   -1.961112   -3.924212    0.000000    1.000000
   240  Li    c     9.815483    1.961112    3.924212    0.000000    1.000000
   241  Li    c     9.815483    1.961112   -3.924212    0.000000    1.000000
   242  Li    c     9.815483    3.924212   -1.961112    0.000000    1.000000
   243  Li    c     9.815483    3.924212    1.961112    0.000000    1.000000
   244  Li    c     9.815483   -3.924212   -1.961112    0.000000    1.000000
   245  Li    c     9.815483   -3.924212    1.961112    0.000000    1.000000
   246  Li    c    -5.896610   -1.961112    3.924212    0.000000    1.000000
   247  Li    c    -5.896610   -1.961112   -3.924212    0.000000    1.000000
   248  Li    c    -5.896610    1.961112    3.924212    0.000000    1.000000
   249  Li    c    -5.896610    1.961112   -3.924212    0.000000    1.000000
   250  Li    c    -5.896610    3.924212   -1.961112    0.000000    1.000000
   251  Li    c    -5.896610    3.924212    1.961112    0.000000    1.000000
   252  Li    c    -5.896610   -3.924212   -1.961112    0.000000    1.000000
   253  Li    c    -5.896610   -3.924212    1.961112    0.000000    1.000000
   254  Cl    c     3.916586    3.919109    7.831648    0.000000    1.485000
   255  Cl    c     3.916586    3.919109   -7.831648    0.000000    1.485000
   256  Cl    c     3.916586    7.831648    3.919109    0.000000    1.485000
   257  Cl    c     3.916586    7.831648   -3.919109    0.000000    1.485000
   258  Cl    c     3.916586   -3.919109    7.831648    0.000000    1.485000
   259  Cl    c     3.916586   -3.919109   -7.831648    0.000000    1.485000
   260  Cl    c     3.916586   -7.831648    3.919109    0.000000    1.485000
   261  Cl    c     3.916586   -7.831648   -3.919109    0.000000    1.485000
   262  Cl    c     0.002287    3.919109    7.831648    0.000000    1.485000
   263  Cl    c     0.002287    3.919109   -7.831648    0.000000    1.485000
   264  Cl    c     0.002287    7.831648    3.919109    0.000000    1.485000
   265  Cl    c     0.002287    7.831648   -3.919109    0.000000    1.485000
   266  Cl    c     0.002287   -3.919109    7.831648    0.000000    1.485000
   267  Cl    c     0.002287   -3.919109   -7.831648    0.000000    1.485000
   268  Cl    c     0.002287   -7.831648    3.919109    0.000000    1.485000
   269  Cl    c     0.002287   -7.831648   -3.919109    0.000000    1.485000
   270  Li    c     5.885994   -1.960814    7.844793    0.000000    1.000000
   271  Li    c     5.885994   -1.960814   -7.844793    0.000000    1.000000
   272  Li    c     5.885994    1.960814    7.844793    0.000000    1.000000
   273  Li    c     5.885994    1.960814   -7.844793    0.000000    1.000000
   274  Li    c    -1.967121   -1.960814    7.844793    0.000000    1.000000
   275  Li    c    -1.967121   -1.960814   -7.844793    0.000000    1.000000
   276  Li    c    -1.967121    1.960814    7.844793    0.000000    1.000000
   277  Li    c    -1.967121    1.960814   -7.844793    0.000000    1.000000
   278  Li    c     5.885994    7.844793   -1.960814    0.000000    1.000000
   279  Li    c     5.885994    7.844793    1.960814    0.000000    1.000000
   280  Li    c     5.885994   -7.844793   -1.960814    0.000000    1.000000
   281  Li    c     5.885994   -7.844793    1.960814    0.000000    1.000000
   282  Li    c    -1.967121    7.844793   -1.960814    0.000000    1.000000
   283  Li    c    -1.967121    7.844793    1.960814    0.000000    1.000000
   284  Li    c    -1.967121   -7.844793   -1.960814    0.000000    1.000000
   285  Li    c    -1.967121   -7.844793    1.960814    0.000000    1.000000
   286  O     c     5.870415    5.873227    5.873227    0.000000    0.183000
   287  O     c     5.870415    5.873227   -5.873227    0.000000    0.183000
   288  O     c     5.870415   -5.873227    5.873227    0.000000    0.183000
   289  O     c     5.870415   -5.873227   -5.873227    0.000000    0.183000
   290  O     c    -1.951542    5.873227    5.873227    0.000000    0.183000
   291  O     c    -1.951542    5.873227   -5.873227    0.000000    0.183000
   292  O     c    -1.951542   -5.873227    5.873227    0.000000    0.183000
   293  O     c    -1.951542   -5.873227   -5.873227    0.000000    0.183000
   294  Cl    c    11.751369    0.000000    0.000000    0.000000    1.485000
   295  Cl    c    -7.832496    0.000000    0.000000    0.000000    1.485000
   296  Li    c     1.959436    9.808026    0.000000    0.000000    1.000000
   297  Li    c     1.959436   -9.808026    0.000000    0.000000    1.000000
   298  Li    c     1.959436    0.000000    9.808026    0.000000    1.000000
   299  Li    c     1.959436    0.000000   -9.808026    0.000000    1.000000
   300  Li    c     9.803596    5.883758    0.000000    0.000000    1.000000
   301  Li    c     9.803596   -5.883758    0.000000    0.000000    1.000000
   302  Li    c     9.803596    0.000000    5.883758    0.000000    1.000000
   303  Li    c     9.803596    0.000000   -5.883758    0.000000    1.000000
   304  Li    c    -5.884723    5.883758    0.000000    0.000000    1.000000
   305  Li    c    -5.884723   -5.883758    0.000000    0.000000    1.000000
   306  Li    c    -5.884723    0.000000    5.883758    0.000000    1.000000
   307  Li    c    -5.884723    0.000000   -5.883758    0.000000    1.000000
   308  Cl    c     7.830279    0.000000    7.829979    0.000000    1.485000
   309  Cl    c     7.830279    0.000000   -7.829979    0.000000    1.485000
   310  Cl    c     7.830279    7.829979    0.000000    0.000000    1.485000
   311  Cl    c     7.830279   -7.829979    0.000000    0.000000    1.485000
   312  Cl    c    -3.911406    0.000000    7.829979    0.000000    1.485000
   313  Cl    c    -3.911406    0.000000   -7.829979    0.000000    1.485000
   314  Cl    c    -3.911406    7.829979    0.000000    0.000000    1.485000
   315  Cl    c    -3.911406   -7.829979    0.000000    0.000000    1.485000
   316  Li    c     1.959436    5.897575    7.852683    0.000000    1.000000
   317  Li    c     1.959436    5.897575   -7.852683    0.000000    1.000000
   318  Li    c     1.959436   -5.897575    7.852683    0.000000    1.000000
   319  Li    c     1.959436   -5.897575   -7.852683    0.000000    1.000000
   320  Li    c     1.959436    7.852683    5.897575    0.000000    1.000000
   321  Li    c     1.959436    7.852683   -5.897575    0.000000    1.000000
   322  Li    c     1.959436   -7.852683    5.897575    0.000000    1.000000
   323  Li    c     1.959436   -7.852683   -5.897575    0.000000    1.000000
   324  O     c     1.959436   -1.959923    9.797605    0.000000    0.183000
   325  O     c     1.959436   -1.959923   -9.797605    0.000000    0.183000
   326  O     c     1.959436    1.959923    9.797605    0.000000    0.183000
   327  O     c     1.959436    1.959923   -9.797605    0.000000    0.183000
   328  O     c     1.959436    9.797605   -1.959923    0.000000    0.183000
   329  O     c     1.959436    9.797605    1.959923    0.000000    0.183000
   330  O     c     1.959436   -9.797605   -1.959923    0.000000    0.183000
   331  O     c     1.959436   -9.797605    1.959923    0.000000    0.183000
   332  O     c     9.797218   -1.959962    5.878091    0.000000    0.183000
   333  O     c     9.797218   -1.959962   -5.878091    0.000000    0.183000
   334  O     c     9.797218    1.959962    5.878091    0.000000    0.183000
   335  O     c     9.797218    1.959962   -5.878091    0.000000    0.183000
   336  O     c     9.797218    5.878091   -1.959962    0.000000    0.183000
   337  O     c     9.797218    5.878091    1.959962    0.000000    0.183000
   338  O     c     9.797218   -5.878091   -1.959962    0.000000    0.183000
   339  O     c     9.797218   -5.878091    1.959962    0.000000    0.183000
   340  O     c    -5.878345   -1.959962    5.878091    0.000000    0.183000
   341  O     c    -5.878345   -1.959962   -5.878091    0.000000    0.183000
   342  O     c    -5.878345    1.959962    5.878091    0.000000    0.183000
   343  O     c    -5.878345    1.959962   -5.878091    0.000000    0.183000
   344  O     c    -5.878345    5.878091   -1.959962    0.000000    0.183000
   345  O     c    -5.878345    5.878091    1.959962    0.000000    0.183000
   346  O     c    -5.878345   -5.878091   -1.959962    0.000000    0.183000
   347  O     c    -5.878345   -5.878091    1.959962    0.000000    0.183000
   348  Li    c     3.920110   -1.961294    9.805960    0.000000    1.000000
   349  Li    c     3.920110   -1.961294   -9.805960    0.000000    1.000000
   350  Li    c     3.920110    1.961294    9.805960    0.000000    1.000000
   351  Li    c     3.920110    1.961294   -9.805960    0.000000    1.000000
   352  Li    c    -0.001237   -1.961294    9.805960    0.000000    1.000000
   353  Li    c    -0.001237   -1.961294   -9.805960    0.000000    1.000000
   354  Li    c    -0.001237    1.961294    9.805960    0.000000    1.000000
   355  Li    c    -0.001237    1.961294   -9.805960    0.000000    1.000000
   356  Li    c     3.920110    9.805960   -1.961294    0.000000    1.000000
   357  Li    c     3.920110    9.805960    1.961294    0.000000    1.000000
   358  Li    c     3.920110   -9.805960   -1.961294    0.000000    1.000000
   359  Li    c     3.920110   -9.805960    1.961294    0.000000    1.000000
   360  Li    c    -0.001237    9.805960   -1.961294    0.000000    1.000000
   361  Li    c    -0.001237    9.805960    1.961294    0.000000    1.000000
   362  Li    c    -0.001237   -9.805960   -1.961294    0.000000    1.000000
   363  Li    c    -0.001237   -9.805960    1.961294    0.000000    1.000000
   364  Li    c    11.763377   -1.959857   -1.959857    0.000000    1.000000
   365  Li    c    11.763377   -1.959857    1.959857    0.000000    1.000000
   366  Li    c    11.763377    1.959857   -1.959857    0.000000    1.000000
   367  Li    c    11.763377    1.959857    1.959857    0.000000    1.000000
   368  Li    c    -7.844504   -1.959857   -1.959857    0.000000    1.000000
   369  Li    c    -7.844504   -1.959857    1.959857    0.000000    1.000000
   370  Li    c    -7.844504    1.959857   -1.959857    0.000000    1.000000
   371  Li    c    -7.844504    1.959857    1.959857    0.000000    1.000000
   372  Li    c     7.840816    5.881067    5.881067    0.000000    1.000000
   373  Li    c     7.840816    5.881067   -5.881067    0.000000    1.000000
   374  Li    c     7.840816   -5.881067    5.881067    0.000000    1.000000
   375  Li    c     7.840816   -5.881067   -5.881067    0.000000    1.000000
   376  Li    c    -3.921943    5.881067    5.881067    0.000000    1.000000
   377  Li    c    -3.921943    5.881067   -5.881067    0.000000    1.000000
   378  Li    c    -3.921943   -5.881067    5.881067    0.000000    1.000000
   379  Li    c    -3.921943   -5.881067   -5.881067    0.000000    1.000000
   380  Cl    c    11.753078    0.000000    3.919380    0.000000    1.485000
   381  Cl    c    11.753078    0.000000   -3.919380    0.000000    1.485000
   382  Cl    c    11.753078    3.919380    0.000000    0.000000    1.485000
   383  Cl    c    11.753078   -3.919380    0.000000    0.000000    1.485000
   384  Cl    c    -7.834205    0.000000    3.919380    0.000000    1.485000
   385  Cl    c    -7.834205    0.000000   -3.919380    0.000000    1.485000
   386  Cl    c    -7.834205    3.919380    0.000000    0.000000    1.485000
   387  Cl    c    -7.834205   -3.919380    0.000000    0.000000    1.485000
[...]
    112 y          9.797182      9.798804     0.001622    Cartesian    0.02
    112 z          5.878309      5.878860     0.000550    Cartesian    0.01
    113 x          7.837746      7.838244     0.000498    Cartesian    0.01
    113 y          9.797182      9.799339     0.002157    Cartesian    0.02
    113 z          9.797182      9.799339     0.002157    Cartesian    0.02
    114 x         -9.797182     -9.798956    -0.001774    Cartesian    0.02
    114 y          9.797182      9.799004     0.001822    Cartesian    0.02
    114 z          0.000000      0.000000     0.000000    Cartesian    0.00
    115 x         -9.797182     -9.802268    -0.005085    Cartesian    0.05
    115 y          5.878309      5.880146     0.001836    Cartesian    0.03
    115 z          7.837746      7.839698     0.001952    Cartesian    0.02
    116 x         11.756619     11.753493    -0.003126    Cartesian   -0.03
    116 y          0.000000      0.000000     0.000000    Cartesian    0.00
    116 z         11.756619     11.752255    -0.004364    Cartesian   -0.04
    117 x          1.959436      1.959436     0.000000    Cartesian    0.00
    117 y          9.797182      9.802718     0.005536    Cartesian    0.06
    117 z         11.756619     11.761273     0.004654    Cartesian    0.04
    118 x          9.797182      9.800486     0.003304    Cartesian    0.03
    118 y          5.878309      5.880421     0.002111    Cartesian    0.04
    118 z         11.756619     11.758864     0.002245    Cartesian    0.02
    119 x          7.837746      7.835612    -0.002134    Cartesian   -0.03
    119 y          7.837746      7.835130    -0.002616    Cartesian   -0.03
    119 z         11.756619     11.752770    -0.003849    Cartesian   -0.03
    120 x         -9.797182     -9.795341     0.001841    Cartesian   -0.02
    120 y          9.797182      9.795778    -0.001404    Cartesian   -0.01
    120 z         -1.959436     -1.959489    -0.000053    Cartesian    0.00
    121 x          5.878309      5.876931    -0.001378    Cartesian   -0.02
    121 y         13.716055     13.713044    -0.003011    Cartesian   -0.02
    121 z          5.878309      5.876760    -0.001549    Cartesian   -0.03
    122 x         -9.797182     -9.801872    -0.004689    Cartesian    0.05
    122 y          9.797182      9.800520     0.003338    Cartesian    0.03
    122 z          3.918873      3.919822     0.000949    Cartesian    0.02
    123 x        -11.756619    -11.750538     0.006081    Cartesian   -0.05
    123 y          0.000000      0.000000     0.000000    Cartesian    0.00
    123 z          7.837746      7.835376    -0.002370    Cartesian   -0.03
    124 x         11.756619     11.752397    -0.004222    Cartesian   -0.04
    124 y         11.756619     11.751749    -0.004870    Cartesian   -0.04
    124 z          3.918873      3.917328    -0.001545    Cartesian   -0.04
    125 x          9.797182      9.798974     0.001791    Cartesian    0.02
    125 y         13.716055     13.719323     0.003267    Cartesian    0.02
    125 z          0.000000      0.000000     0.000000    Cartesian    0.00
    126 x          3.918873      3.917925    -0.000948    Cartesian   -0.02
    126 y          0.000000      0.000000     0.000000    Cartesian    0.00
    126 z         15.675492     15.668205    -0.007287    Cartesian   -0.05
    127 x          1.959436      1.959436     0.000000    Cartesian    0.00
    127 y         -1.959436     -1.961922    -0.002485    Cartesian    0.13
    127 z         15.675492     15.679622     0.004130    Cartesian    0.03
    128 x          1.959436      1.959436     0.000000    Cartesian    0.00
    128 y         13.716055     13.723004     0.006948    Cartesian    0.05
    128 z          7.837746      7.840285     0.002539    Cartesian    0.03
    129 x          5.878309      5.880483     0.002173    Cartesian    0.04
    129 y          9.797182      9.801951     0.004768    Cartesian    0.05
    129 z         11.756619     11.760391     0.003772    Cartesian    0.03
    130 x         17.634928     17.638415     0.003486    Cartesian    0.02
    130 y         -1.959436     -1.959792    -0.000355    Cartesian    0.02
    130 z          0.000000      0.000000     0.000000    Cartesian    0.00
    131 x          9.797182      9.795064    -0.002119    Cartesian   -0.02
    131 y         -1.959436     -1.958396     0.001041    Cartesian   -0.05
    131 z         13.716055     13.712435    -0.003621    Cartesian   -0.03
    132 x          9.797182      9.794230    -0.002952    Cartesian   -0.03
    132 y          9.797182      9.794195    -0.002988    Cartesian   -0.03
    132 z          9.797182      9.794195    -0.002988    Cartesian   -0.03
    133 x         17.634928     17.631019    -0.003910    Cartesian   -0.02
    133 y         -1.959436     -1.958568     0.000869    Cartesian   -0.04
    133 z         -1.959436     -1.958568     0.000869    Cartesian   -0.04
    134 x          3.918873      4.096738     0.177865    Cartesian    4.54
    134 y          0.000000      0.000000     0.000000    Cartesian    0.00
    134 z          0.000000      0.000000     0.000000    Cartesian    0.00
    135 x          1.959436      1.959436     0.000000    Cartesian    0.00
    135 y         -1.959436     -1.867943     0.091494    Cartesian   -4.67
    135 z         -1.959436     -1.867943     0.091494    Cartesian   -4.67
    136 x          3.918873      3.880645    -0.038228    Cartesian   -0.98
    136 y          0.000000      0.000000     0.000000    Cartesian    0.00
    136 z          3.918873      3.911975    -0.006898    Cartesian   -0.18
    137 x          5.878309      5.895008     0.016698    Cartesian    0.28
    137 y         -1.959436     -1.964498    -0.005061    Cartesian    0.26
    137 z         -1.959436     -1.964498    -0.005061    Cartesian    0.26
    138 x          3.918873      3.862575    -0.056298    Cartesian   -1.44
    138 y          3.918873      3.878337    -0.040536    Cartesian   -1.03
    138 z          3.918873      3.878337    -0.040536    Cartesian   -1.03
    139 x          7.837746      7.852554     0.014808    Cartesian    0.19
    139 y          0.000000      0.000000     0.000000    Cartesian    0.00
    139 z          0.000000      0.000000     0.000000    Cartesian    0.00
    140 x          1.959436      1.959436     0.000000    Cartesian    0.00
    140 y         -1.959436     -1.968029    -0.008593    Cartesian    0.44
    140 z          5.878309      5.882451     0.004142    Cartesian    0.07
    141 x          7.837746      7.827413    -0.010333    Cartesian   -0.13
    141 y          0.000000      0.000000     0.000000    Cartesian    0.00
    141 z          3.918873      3.916822    -0.002051    Cartesian   -0.05
    142 x          5.878309      5.873809    -0.004500    Cartesian   -0.08
    142 y         -1.959436     -1.960973    -0.001536    Cartesian    0.08
    142 z          5.878309      5.875131    -0.003178    Cartesian   -0.05
    143 x          3.918873      3.914439    -0.004434    Cartesian   -0.11
    143 y          0.000000      0.000000     0.000000    Cartesian    0.00
    143 z          7.837746      7.825453    -0.012293    Cartesian   -0.16
    144 x          7.837746      7.827050    -0.010696    Cartesian   -0.14
    144 y          3.918873      3.919480     0.000607    Cartesian    0.02
    144 z          3.918873      3.919480     0.000607    Cartesian    0.02
    145 x          9.797182      9.801290     0.004108    Cartesian    0.04
    145 y         -1.959436     -1.963422    -0.003986    Cartesian    0.20
    145 z         -1.959436     -1.963422    -0.003986    Cartesian    0.20
    146 x          1.959436      1.959436     0.000000    Cartesian    0.00
    146 y          5.878309      5.886665     0.008356    Cartesian    0.14
    146 z          5.878309      5.886665     0.008356    Cartesian    0.14
    147 x          3.918873      3.915167    -0.003706    Cartesian   -0.09
    147 y          3.918873      3.917858    -0.001015    Cartesian   -0.03
    147 z          7.837746      7.827976    -0.009770    Cartesian   -0.12
    148 x          5.878309      5.870402    -0.007908    Cartesian   -0.13
    148 y          5.878309      5.873216    -0.005093    Cartesian   -0.09
    148 z          5.878309      5.873216    -0.005093    Cartesian   -0.09
    149 x         11.756619     11.749171    -0.007448    Cartesian   -0.06
    149 y          0.000000      0.000000     0.000000    Cartesian    0.00
    149 z          0.000000      0.000000     0.000000    Cartesian    0.00
    150 x          7.837746      7.827617    -0.010129    Cartesian   -0.13
    150 y          0.000000      0.000000     0.000000    Cartesian    0.00
    150 z          7.837746      7.827450    -0.010296    Cartesian   -0.13
    151 x          1.959436      1.959436     0.000000    Cartesian    0.00
    151 y         -1.959436     -1.959921    -0.000484    Cartesian    0.02
    151 z          9.797182      9.797591     0.000408    Cartesian    0.00
    152 x          9.797182      9.797212     0.000029    Cartesian    0.00
    152 y         -1.959436     -1.959961    -0.000524    Cartesian    0.03
    152 z          5.878309      5.878085    -0.000225    Cartesian   -0.00
    153 x         11.756619     11.750897    -0.005722    Cartesian   -0.05
    153 y          0.000000      0.000000     0.000000    Cartesian    0.00
    153 z          3.918873      3.918930     0.000057    Cartesian    0.00
    154 x          7.837746      7.829374    -0.008372    Cartesian   -0.11
    154 y          3.918873      3.917053    -0.001820    Cartesian   -0.05
    154 z          7.837746      7.830269    -0.007477    Cartesian   -0.10
    155 x          5.878309      5.877289    -0.001021    Cartesian   -0.02
    155 y         -1.959436     -1.959568    -0.000131    Cartesian    0.01
    155 z          9.797182      9.795877    -0.001305    Cartesian   -0.01
    156 x         11.756619     11.751995    -0.004624    Cartesian   -0.04
    156 y          3.918873      3.918880     0.000007    Cartesian    0.00
    156 z          3.918873      3.918880     0.000007    Cartesian    0.00
    157 x          3.918873      3.918120    -0.000753    Cartesian   -0.02
    157 y          7.837746      7.835003    -0.002743    Cartesian   -0.03
    157 z          7.837746      7.835003    -0.002743    Cartesian   -0.03
    158 x          1.959436      1.959436     0.000000    Cartesian    0.00
    158 y          5.878309      5.881281     0.002971    Cartesian    0.05
    158 z          9.797182      9.799647     0.002464    Cartesian    0.03
    159 x          9.797182      9.796049    -0.001133    Cartesian   -0.01
    159 y          5.878309      5.878419     0.000110    Cartesian    0.00
    159 z          5.878309      5.878419     0.000110    Cartesian    0.00
    160 x          3.918873      3.917436    -0.001437    Cartesian   -0.04
    160 y          0.000000      0.000000     0.000000    Cartesian    0.00
    160 z         11.756619     11.749904    -0.006715    Cartesian   -0.06
    161 x         -9.797182     -9.796470     0.000712    Cartesian   -0.01
    161 y         -1.959436     -1.959438    -0.000002    Cartesian    0.00
    161 z         -1.959436     -1.959438    -0.000002    Cartesian    0.00
    162 x          5.878309      5.876991    -0.001319    Cartesian   -0.02
    162 y          5.878309      5.877865    -0.000444    Cartesian   -0.01
    162 z          9.797182      9.796686    -0.000496    Cartesian   -0.01
    163 x          3.918873      3.917277    -0.001596    Cartesian   -0.04
    163 y         11.756619     11.750522    -0.006097    Cartesian   -0.05
    163 z          3.918873      3.916989    -0.001884    Cartesian   -0.05
    164 x         11.756619     11.750357    -0.006262    Cartesian   -0.05
    164 y          0.000000      0.000000     0.000000    Cartesian    0.00
    164 z          7.837746      7.833843    -0.003903    Cartesian   -0.05
    165 x          7.837746      7.829653    -0.008093    Cartesian   -0.10
    165 y          7.837746      7.830784    -0.006962    Cartesian   -0.09
    165 z          7.837746      7.830784    -0.006962    Cartesian   -0.09
    166 x          9.797182      9.794709    -0.002474    Cartesian   -0.03
    166 y         -1.959436     -1.959113     0.000324    Cartesian   -0.02
    166 z          9.797182      9.794815    -0.002367    Cartesian   -0.02
    167 x         11.756619     11.751719    -0.004900    Cartesian   -0.04
    167 y          7.837746      7.834802    -0.002944    Cartesian   -0.04
    167 z          3.918873      3.918170    -0.000703    Cartesian   -0.02
    168 x          7.837746      7.832570    -0.005176    Cartesian   -0.07
    168 y          0.000000      0.000000     0.000000    Cartesian    0.00
    168 z         11.756619     11.749780    -0.006839    Cartesian   -0.06
    169 x         -9.797182     -9.796809     0.000374    Cartesian   -0.00
    169 y         -1.959436     -1.960356    -0.000919    Cartesian    0.05
    169 z          5.878309      5.879192     0.000882    Cartesian    0.02
    170 x        -11.756619    -11.748755     0.007864    Cartesian   -0.07
    170 y          0.000000      0.000000     0.000000    Cartesian    0.00
    170 z          0.000000      0.000000     0.000000    Cartesian    0.00
    171 x          7.837746      7.834879    -0.002867    Cartesian   -0.04
    171 y         11.756619     11.751506    -0.005113    Cartesian   -0.04
    171 z          3.918873      3.918070    -0.000803    Cartesian   -0.02
    172 x          1.959436      1.959436     0.000000    Cartesian    0.00
    172 y         -1.959436     -1.960722    -0.001285    Cartesian    0.07
    172 z         13.716055     13.715898    -0.000158    Cartesian   -0.00
    173 x          1.959436      1.959436     0.000000    Cartesian    0.00
    173 y          9.797182      9.799705     0.002523    Cartesian    0.03
    173 z          9.797182      9.799705     0.002523    Cartesian    0.03
    174 x          9.797182      9.796275    -0.000907    Cartesian   -0.01
    174 y          5.878309      5.878382     0.000073    Cartesian    0.00
    174 z          9.797182      9.796420    -0.000763    Cartesian   -0.01
    175 x        -11.756619    -11.750840     0.005779    Cartesian   -0.05
    175 y          0.000000      0.000000     0.000000    Cartesian    0.00
    175 z          3.918873      3.919661     0.000788    Cartesian    0.02
    176 x          3.918873      3.918192    -0.000681    Cartesian   -0.02
    176 y          7.837746      7.836667    -0.001079    Cartesian   -0.01
    176 z         11.756619     11.753085    -0.003534    Cartesian   -0.03
    177 x         -9.797182     -9.796917     0.000266    Cartesian   -0.00
    177 y          5.878309      5.878711     0.000402    Cartesian    0.01
    177 z          5.878309      5.878711     0.000402    Cartesian    0.01
    178 x          5.878309      5.878353     0.000044    Cartesian    0.00
    178 y          9.797182      9.798190     0.001008    Cartesian    0.01
    178 z          9.797182      9.798190     0.001008    Cartesian    0.01
    179 x          5.878309      5.877948    -0.000361    Cartesian   -0.01
    179 y         13.716055     13.714777    -0.001278    Cartesian   -0.01
    179 z         -1.959436     -1.959499    -0.000062    Cartesian    0.00
    180 x        -11.756619    -11.750807     0.005812    Cartesian   -0.05
    180 y          3.918873      3.918135    -0.000738    Cartesian   -0.02
    180 z          3.918873      3.918135    -0.000738    Cartesian   -0.02
    181 x         11.756619     11.752887    -0.003732    Cartesian   -0.03
    181 y          7.837746      7.835253    -0.002493    Cartesian   -0.03
    181 z          7.837746      7.835253    -0.002493    Cartesian   -0.03
    182 x          1.959436      1.959436     0.000000    Cartesian    0.00
    182 y          5.878309      5.878167    -0.000142    Cartesian   -0.00
    182 z         13.716055     13.715546    -0.000510    Cartesian   -0.00
    183 x         11.756619     11.752697    -0.003922    Cartesian   -0.03
    183 y          0.000000      0.000000     0.000000    Cartesian    0.00
    183 z         11.756619     11.751323    -0.005296    Cartesian   -0.05
    184 x          7.837746      7.835055    -0.002691    Cartesian   -0.03
    184 y          7.837746      7.834408    -0.003338    Cartesian   -0.04
    184 z         11.756619     11.751721    -0.004898    Cartesian   -0.04
    185 x         -9.797182     -9.795338     0.001844    Cartesian   -0.02
    185 y          9.797182      9.795775    -0.001408    Cartesian   -0.01
    185 z         -1.959436     -1.959489    -0.000052    Cartesian    0.00
    186 x          5.878309      5.876929    -0.001381    Cartesian   -0.02
    186 y         13.716055     13.713037    -0.003018    Cartesian   -0.02
    186 z          5.878309      5.876757    -0.001552    Cartesian   -0.03
    187 x        -11.756619    -11.749038     0.007581    Cartesian   -0.06
    187 y          0.000000      0.000000     0.000000    Cartesian    0.00
    187 z          7.837746      7.834657    -0.003089    Cartesian   -0.04
    188 x         11.756619     11.751367    -0.005252    Cartesian   -0.04
    188 y         11.756619     11.750594    -0.006025    Cartesian   -0.05
    188 z          3.918873      3.917022    -0.001851    Cartesian   -0.05
    189 x          3.918873      3.917734    -0.001139    Cartesian   -0.03
    189 y          0.000000      0.000000     0.000000    Cartesian    0.00
    189 z         15.675492     15.666388    -0.009104    Cartesian   -0.06
    190 x          9.797182      9.795059    -0.002123    Cartesian   -0.02
    190 y         -1.959436     -1.958394     0.001043    Cartesian   -0.05
    190 z         13.716055     13.712429    -0.003627    Cartesian   -0.03
    191 x          9.797182      9.794225    -0.002957    Cartesian   -0.03
    191 y          9.797182      9.794189    -0.002993    Cartesian   -0.03
    191 z          9.797182      9.794189    -0.002993    Cartesian   -0.03
    192 x         17.634928     17.631011    -0.003917    Cartesian   -0.02
    192 y         -1.959436     -1.958566     0.000870    Cartesian   -0.04
    192 z         -1.959436     -1.958566     0.000870    Cartesian   -0.04
--------------------------------------------------------------------------------


  Time to end of optimisation  =       45.5284 seconds


  Peak dynamic memory used =     692.19 MB 


  Timing analysis for GULP :

--------------------------------------------------------------------------------
  Task / Subroutine                                          Time (Seconds)
--------------------------------------------------------------------------------
  Calculation of reciprocal space energy and derivatives          0.0003
  Calculation of reciprocal space energy using symmetry           0.0002
  Calculation of real space energy and derivatives                0.0026
  Calculation of real space energy using symmetry                 0.0019
  Calculation for region 1 energy and derivatives (2-b)          31.5365
  Calculation for region 2a energy                               11.2616
  Calculation for region 2b energy                                0.0002
  Calculation and manipulation of Hessian matrix                  2.0364
  Calculation of matrix inversion                                 0.0975
  Symmetry generation of equivalent positions                     0.0027
--------------------------------------------------------------------------------
  Total CPU time                                                 45.5285
--------------------------------------------------------------------------------


  Dump file written as Li3OCl.grs


  Job Finished at 12:29.55  1st December   2020                               

