********************************************************************************
*                       GENERAL UTILITY LATTICE PROGRAM                        *
*                                 Julian Gale                                  *
*                       Curtin Institute for Computation                       *
*                    School of Molecular and Life Sciences                     *
*                    Curtin University, Western Australia                      *
********************************************************************************
* Version = 5.2.0 * Last modified =  10th September 2020                       *
********************************************************************************
*  optimise     - perform optimisation run                                     *
*  conp         - constant pressure calculation                                *
*  property     - calculate properties for final geometry                      *
*  defect       - perform defect calculation after bulk run                    *
*  compare      - compare initial and final structures                         *
********************************************************************************

  Job Started  at 12:29.04  1st December   2020                               

  Number of CPUs =     1


  Total number of configurations input =      1

********************************************************************************
*  Input for Configuration =   1                                               *
********************************************************************************

  Formula = ClOLi3                                                      

  Number of irreducible atoms/shells =       5


  Total number atoms/shells =       7

  Dimensionality = 3               :  Bulk   


  Symmetry :

  Crystal family                   :  Cubic       
  Crystal class  (Groth - 1921)    :  Cubic Hexakisoctahedral              

  Space group (centrosymmetric)    :  P M 3 M         

  Patterson group                  :  P m -3 m 

  Cartesian lattice vectors (Angstroms) :

        3.918873    0.000000    0.000000
        0.000000    3.918873    0.000000
        0.000000    0.000000    3.918873

  Cell parameters (Angstroms/Degrees):

  a =       3.9189    alpha =  90.0000
  b =       3.9189    beta  =  90.0000
  c =       3.9189    gamma =  90.0000

  Initial cell volume =          60.184349 Angs**3

  Temperature of configuration =   0.00     K 

  Pressure of configuration =         0.000 GPa 

  Fractional coordinates of asymmetric unit :

--------------------------------------------------------------------------------
   No.  Atomic       x           y          z         Charge      Occupancy
        Label      (Frac)      (Frac)     (Frac)        (e)         (Frac)  
--------------------------------------------------------------------------------
      1 Cl    c    0.000000    0.000000    0.000000     1.48500    1.000000    
      2 O     c    0.500000    0.500000    0.500000     0.18300    1.000000    
      3 Li    c    0.500000    0.500000    0.000000     1.00000    1.000000    
      4 Cl    s    0.000000    0.000000    0.000000    -2.48500    1.000000    
      5 O     s    0.500000    0.500000    0.500000    -2.18300    1.000000    
--------------------------------------------------------------------------------


  Constraints : 

--------------------------------------------------------------------------------
  Constraint no.      Unconstrained     Constrained    Coefficient    Offset
                         Variable         Variable
--------------------------------------------------------------------------------
           1              Strain 1        Strain 2       1.00000      0.0000
           2              Strain 1        Strain 3       1.00000      0.0000
--------------------------------------------------------------------------------


********************************************************************************
*  General input information                                                   *
********************************************************************************

  Species output for all configurations : 

--------------------------------------------------------------------------------
  Species    Type    Atomic    Atomic    Charge       Radii (Angs)     Library
                     Number     Mass       (e)     Cova   Ionic  VDW   Symbol
--------------------------------------------------------------------------------
    Li       Core        3       6.94   1.000000   0.680  0.000  1.800          
    O        Core        8      16.00   0.183000   0.730  0.000  1.360          
    O        Shell       8       0.00  -2.183000   0.730  0.000  1.360          
    Cl       Core       17      35.45   1.485000   0.990  0.000  1.650          
    Cl       Shell      17       0.00  -2.485000   0.990  0.000  1.650          
    Mg       Core       12      24.31   0.415000   1.100  0.000  0.000          
    Mg       Shell      12       0.00   1.585000   1.100  0.000  0.000          
    Ca       Core       20      40.08  -1.135000   0.990  0.000  0.000          
    Ca       Shell      20       0.00   3.135000   0.990  0.000  0.000          
    Sr       Core       38      87.62  -1.251000   1.120  0.000  0.000          
    Sr       Shell      38       0.00   3.251000   1.120  0.000  0.000          
    Ba       Core       56     137.33  -7.203000   1.340  0.000  0.000          
    Ba       Shell      56       0.00   9.203000   1.340  0.000  0.000          
--------------------------------------------------------------------------------


  Lattice summation method               =    Ewald          (3-D)
                                         =    Parry          (2-D)
                                         =    Saunders et al (1-D)
  Accuracy factor for lattice sums       =   12.000


  Analytic derivatives to be used

  Time limit = Infinity

  Maximum range for interatomic potentials =    100000.000000 Angstroms

  General interatomic potentials :

--------------------------------------------------------------------------------
Atom  Types   Potential      Parameter       Value         Units   Cutoffs(Ang)
  1     2                                                            Min /  Max 
--------------------------------------------------------------------------------
O    c O    s Spring (c-s)  Spring k 2       593.71600    eV*Ang^-2 0.000  0.800
                            Spring k 4       0.0000000    eV*Ang^-4 
--------------------------------------------------------------------------------
Cl   c Cl   s Spring (c-s)  Spring k 2       29.380000    eV*Ang^-2 0.000  0.800
                            Spring k 4       0.0000000    eV*Ang^-4 
--------------------------------------------------------------------------------
Mg   c Mg   s Spring (c-s)  Spring k 2       361.60000    eV*Ang^-2 0.000  0.800
                            Spring k 4       0.0000000    eV*Ang^-4 
--------------------------------------------------------------------------------
Ca   c Ca   s Spring (c-s)  Spring k 2       110.20000    eV*Ang^-2 0.000  0.800
                            Spring k 4       0.0000000    eV*Ang^-4 
--------------------------------------------------------------------------------
Sr   c Sr   s Spring (c-s)  Spring k 2       71.700000    eV*Ang^-2 0.000  0.800
                            Spring k 4       0.0000000    eV*Ang^-4 
--------------------------------------------------------------------------------
Ba   c Ba   s Spring (c-s)  Spring k 2       495.20000    eV*Ang^-2 0.000  0.800
                            Spring k 4       0.0000000    eV*Ang^-4 
--------------------------------------------------------------------------------
Li   c Li   c Buckingham    Buckingham A     360.53000    eV        0.000 12.000
                            Buckingham rho  0.16100000    Ang       
                            Buckingham C     0.0000000    eV*Ang^6  
--------------------------------------------------------------------------------
Li   c O    s Buckingham    Buckingham A     292.30000    eV        0.000 12.000
                            Buckingham rho  0.34700000    Ang       
                            Buckingham C     0.0000000    eV*Ang^6  
--------------------------------------------------------------------------------
Li   c Cl   s Buckingham    Buckingham A     421.04000    eV        0.000 12.000
                            Buckingham rho  0.33400000    Ang       
                            Buckingham C     0.0000000    eV*Ang^6  
--------------------------------------------------------------------------------
O    s O    s Buckingham    Buckingham A     22764.300    eV        0.000 12.000
                            Buckingham rho  0.14900000    Ang       
                            Buckingham C     13.190000    eV*Ang^6  
--------------------------------------------------------------------------------
O    s Cl   s Buckingham    Buckingham A     8286.9100    eV        0.000 12.000
                            Buckingham rho  0.25900000    Ang       
                            Buckingham C     62.200000    eV*Ang^6  
--------------------------------------------------------------------------------
Cl   s Cl   s Buckingham    Buckingham A     1227.2000    eV        0.000 12.000
                            Buckingham rho  0.32100000    Ang       
                            Buckingham C     14.530000    eV*Ang^6  
--------------------------------------------------------------------------------
O    s Mg   s Buckingham    Buckingham A     1428.5000    eV        0.000 12.000
                            Buckingham rho  0.29450000    Ang       
                            Buckingham C     0.0000000    eV*Ang^6  
--------------------------------------------------------------------------------
Mg   s Cl   s Buckingham    Buckingham A     4914.5400    eV        0.000 12.000
                            Buckingham rho  0.25700000    Ang       
                            Buckingham C     0.0000000    eV*Ang^6  
--------------------------------------------------------------------------------
O    s Ca   s Buckingham    Buckingham A     1090.4000    eV        0.000 12.000
                            Buckingham rho  0.34370000    Ang       
                            Buckingham C     0.0000000    eV*Ang^6  
--------------------------------------------------------------------------------
Cl   s Ca   s Buckingham    Buckingham A     2302.0000    eV        0.000 12.000
                            Buckingham rho  0.34020000    Ang       
                            Buckingham C     0.0000000    eV*Ang^6  
--------------------------------------------------------------------------------
O    s Sr   s Buckingham    Buckingham A     959.10000    eV        0.000 12.000
                            Buckingham rho  0.37210000    Ang       
                            Buckingham C     0.0000000    eV*Ang^6  
--------------------------------------------------------------------------------
Cl   s Sr   s Buckingham    Buckingham A     2191.0900    eV        0.000 12.000
                            Buckingham rho  0.34570000    Ang       
                            Buckingham C     0.0000000    eV*Ang^6  
--------------------------------------------------------------------------------
O    s Ba   s Buckingham    Buckingham A     905.70000    eV        0.000 12.000
                            Buckingham rho  0.39760000    Ang       
                            Buckingham C     0.0000000    eV*Ang^6  
--------------------------------------------------------------------------------
Cl   s Ba   s Buckingham    Buckingham A     2704.5500    eV        0.000 12.000
                            Buckingham rho  0.35280000    Ang       
                            Buckingham C     0.0000000    eV*Ang^6  
--------------------------------------------------------------------------------

********************************************************************************
*  Output for configuration   1                                                *
********************************************************************************


  Components of energy : 

--------------------------------------------------------------------------------
  Interatomic potentials     =           7.24802695 eV    
  Monopole - monopole (real) =         -11.53475722 eV    
  Monopole - monopole (recip)=         -33.94580548 eV    
  Monopole - monopole (total)=         -45.48056271 eV    
--------------------------------------------------------------------------------
  Total lattice energy       =         -38.23253575 eV    
--------------------------------------------------------------------------------
  Total lattice energy       =           -3688.8553 kJ/(mole unit cells)
--------------------------------------------------------------------------------


  Number of variables =        1

  Maximum number of calculations  =          1000
  Maximum Hessian update interval =            10
  Maximum step size               =   1.000000000
  Maximum parameter tolerance     =   0.000010000
  Maximum function  tolerance     =   0.000010000
  Maximum gradient  tolerance     =   0.001000000
  Maximum gradient  component     =   0.010000000

  Symmetry constrained optimisation

  Symmetry used for second derivatives

  Cell parameters to be optimised using strains

  Newton-Raphson optimiser to be used

  BFGS hessian update to be used

  Lower half triangular hessian to be used

  Start of bulk optimisation :

  Cycle:      0 Energy:       -38.232536  Gnorm:      0.000019  CPU:    0.006


  **** Optimisation achieved ****


  Final energy =     -38.23253575 eV
  Final Gnorm  =       0.00001878

  Components of energy : 

--------------------------------------------------------------------------------
  Interatomic potentials     =           7.24802695 eV    
  Monopole - monopole (real) =         -11.53475722 eV    
  Monopole - monopole (recip)=         -33.94580548 eV    
  Monopole - monopole (total)=         -45.48056271 eV    
--------------------------------------------------------------------------------
  Total lattice energy       =         -38.23253575 eV    
--------------------------------------------------------------------------------
  Total lattice energy       =           -3688.8553 kJ/(mole unit cells)
--------------------------------------------------------------------------------

  Final asymmetric unit coordinates :

--------------------------------------------------------------------------------
   No.  Atomic        x           y           z         Radius
        Label       (Frac)      (Frac)      (Frac)       (Angs) 
--------------------------------------------------------------------------------
     1  Cl    c     0.000000    0.000000    0.000000    0.000000
     2  O     c     0.500000    0.500000    0.500000    0.000000
     3  Li    c     0.500000    0.500000    0.000000    0.000000
     4  Cl    s     0.000000    0.000000    0.000000    0.000000
     5  O     s     0.500000    0.500000    0.500000    0.000000
--------------------------------------------------------------------------------

  Final Cartesian lattice vectors (Angstroms) :

        3.918873    0.000000    0.000000
        0.000000    3.918873    0.000000
        0.000000    0.000000    3.918873


  Final cell parameters and derivatives :

--------------------------------------------------------------------------------
       a            3.918873 Angstrom     dE/de1(xx)    -0.000019 eV/strain
       b            3.918873 Angstrom     dE/de2(yy)     0.000000 eV/strain
       c            3.918873 Angstrom     dE/de3(zz)     0.000000 eV/strain
       alpha       90.000000 Degrees      dE/de4(yz)     0.000000 eV/strain
       beta        90.000000 Degrees      dE/de5(xz)     0.000000 eV/strain
       gamma       90.000000 Degrees      dE/de6(xy)     0.000000 eV/strain
--------------------------------------------------------------------------------

  Primitive cell volume =            60.184349 Angs**3

  Density of cell =      1.994024 g/cm**3

  Non-primitive cell volume =            60.184349 Angs**3


  Final internal derivatives :

--------------------------------------------------------------------------------
   No.  Atomic          a             b             c           Radius
        Label          (eV)          (eV)          (eV)        (eV/Angs)
--------------------------------------------------------------------------------
      1 Cl    c       0.000000      0.000000      0.000000      0.000000
      2 O     c       0.000000      0.000000      0.000000      0.000000
      3 Li    c       0.000000      0.000000      0.000000      0.000000
      4 Cl    s       0.000000      0.000000      0.000000      0.000000
      5 O     s       0.000000      0.000000      0.000000      0.000000
--------------------------------------------------------------------------------
  Maximum abs         0.000000      0.000000      0.000000      0.000000
--------------------------------------------------------------------------------

  Comparison of initial and final structures : 

--------------------------------------------------------------------------------
  Parameter   Initial value   Final value   Difference    Units      Percent
--------------------------------------------------------------------------------
    Volume        60.184349     60.184349     0.000000    Angs**3      0.00
    a              3.918873      3.918873     0.000000    Angstroms    0.00
    b              3.918873      3.918873     0.000000    Angstroms    0.00
    c              3.918873      3.918873     0.000000    Angstroms    0.00
    alpha         90.000000     90.000000     0.000000    Degrees      0.00
    beta          90.000000     90.000000     0.000000    Degrees      0.00
    gamma         90.000000     90.000000     0.000000    Degrees      0.00
      1 x          0.000000      0.000000     0.000000    Fractional   0.00
      1 y          0.000000      0.000000     0.000000    Fractional   0.00
      1 z          0.000000      0.000000     0.000000    Fractional   0.00
      2 x          0.500000      0.500000     0.000000    Fractional   0.00
      2 y          0.500000      0.500000     0.000000    Fractional   0.00
      2 z          0.500000      0.500000     0.000000    Fractional   0.00
      3 x          0.500000      0.500000     0.000000    Fractional   0.00
      3 y          0.500000      0.500000     0.000000    Fractional   0.00
      3 z          0.000000      0.000000     0.000000    Fractional   0.00
      4 x          0.000000      0.000000     0.000000    Fractional   0.00
      4 y          0.000000      0.000000     0.000000    Fractional   0.00
      4 z          0.000000      0.000000     0.000000    Fractional   0.00
      5 x          0.500000      0.500000     0.000000    Fractional   0.00
      5 y          0.500000      0.500000     0.000000    Fractional   0.00
      5 z          0.500000      0.500000     0.000000    Fractional   0.00
--------------------------------------------------------------------------------


  Born effective charge tensors : 

-------------------------------------------------------------------------------
  Atom             x           y             z
-------------------------------------------------------------------------------
    1 Cl    x      -0.9481      0.0000      0.0000
            y       0.0000     -0.9481      0.0000
            z       0.0000      0.0000     -0.9481
-------------------------------------------------------------------------------
    2 O     x      -2.4696     -0.0000     -0.0000
            y      -0.0000     -2.4696     -0.0000
            z      -0.0000     -0.0000     -2.4696
-------------------------------------------------------------------------------
    3 Li    x       1.3129     -0.0000     -0.0000
            y      -0.0000      1.3129      0.0000
            z      -0.0000     -0.0000      0.7918
-------------------------------------------------------------------------------




  Elastic Constant Matrix: (Units=GPa)

-------------------------------------------------------------------------------
  Indices      1         2         3         4         5         6    
-------------------------------------------------------------------------------
       1     94.4615   45.0779   45.0779    0.0000   -0.0000    0.0000
       2     45.0779   94.4615   45.0779   -0.0000    0.0000   -0.0000
       3     45.0779   45.0779   94.4615   -0.0000   -0.0000   -0.0000
       4      0.0000   -0.0000   -0.0000   45.0779   -0.0000   -0.0000
       5     -0.0000    0.0000   -0.0000   -0.0000   45.0779   -0.0000
       6      0.0000   -0.0000   -0.0000   -0.0000   -0.0000   45.0779
-------------------------------------------------------------------------------


  Elastic Compliance Matrix: (Units=1/GPa)

-------------------------------------------------------------------------------
  Indices      1         2         3         4         5         6    
-------------------------------------------------------------------------------
       1    0.015305 -0.004944 -0.004944 -0.000000  0.000000 -0.000000
       2   -0.004944  0.015305 -0.004944  0.000000 -0.000000  0.000000
       3   -0.004944 -0.004944  0.015305  0.000000  0.000000  0.000000
       4   -0.000000  0.000000  0.000000  0.022184  0.000000  0.000000
       5    0.000000 -0.000000  0.000000  0.000000  0.022184  0.000000
       6   -0.000000  0.000000  0.000000  0.000000  0.000000  0.022184
-------------------------------------------------------------------------------

  Mechanical properties :

-------------------------------------------------------------------------------
  Convention :                    Reuss         Voigt         Hill
-------------------------------------------------------------------------------
  Bulk  Modulus (GPa)     =      61.53912      61.53912      61.53912
  Shear Modulus (GPa)     =      33.88682      36.92346      35.40514
-------------------------------------------------------------------------------
  Velocity S-wave (km/s)  =       4.12240       4.30314       4.21374
  Velocity P-wave (km/s)  =       7.31578       7.45327       7.38484
-------------------------------------------------------------------------------
  Compressibility (1/GPa) =    0.01624983
-------------------------------------------------------------------------------
  Stress axis :                     x             y             z
-------------------------------------------------------------------------------
  Youngs Moduli (GPa)     =      65.33688      65.33688      65.33688
-------------------------------------------------------------------------------
  Poissons Ratio (x)      =                     0.32305       0.32305
  Poissons Ratio (y)      =       0.32305                     0.32305
  Poissons Ratio (z)      =       0.32305       0.32305
-------------------------------------------------------------------------------


  Piezoelectric Strain Matrix: (Units=C/m**2)

-------------------------------------------------------------------------------
  Indices      1         2         3         4         5         6    
-------------------------------------------------------------------------------
       x    -0.00000   0.00000   0.00000   0.00000   0.00000   0.00000
       y    -0.00000  -0.00000  -0.00000   0.00000   0.00000  -0.00000
       z    -0.00000  -0.00000   0.00000   0.00000  -0.00000   0.00000
-------------------------------------------------------------------------------


  Piezoelectric Stress Matrix: (Units=10**-11 C/N)

-------------------------------------------------------------------------------
  Indices      1         2         3         4         5         6    
-------------------------------------------------------------------------------
       x    -0.00000   0.00000   0.00000   0.00000   0.00000   0.00000
       y     0.00000   0.00000  -0.00000   0.00000   0.00000  -0.00000
       z    -0.00000  -0.00000   0.00000   0.00000  -0.00000   0.00000
-------------------------------------------------------------------------------


  Static dielectric constant tensor : 

-------------------------------------------------------------------------------
              x         y         z
-------------------------------------------------------------------------------
       x    12.07041   0.00000   0.00000
       y     0.00000  12.07041   0.00000
       z     0.00000   0.00000  12.07041
--------------------------------------------------------------------------------

  High frequency dielectric constant tensor : 

-------------------------------------------------------------------------------
              x         y         z
-------------------------------------------------------------------------------
       x     1.74197  -0.00000  -0.00000
       y    -0.00000   1.74197  -0.00000
       z    -0.00000  -0.00000   1.74197
-------------------------------------------------------------------------------

  Static refractive indices : 

-------------------------------------------------------------------------------
    1 =    3.47425      2 =    3.47425      3 =    3.47425
-------------------------------------------------------------------------------

  High frequency refractive indices : 

-------------------------------------------------------------------------------
    1 =    1.31984      2 =    1.31984      3 =    1.31984
-------------------------------------------------------------------------------


  Time to end of optimisation =       0.0079 seconds

********************************************************************************
*  Defect calculation for configuration   1 :                                  *
********************************************************************************

  Total number of defects =      2

  Total charge on defect  =   0.00

  Defect centre is at   0.5000   0.2500   0.2500  Frac

  Region 1 radius =  16.0000      Number of ions =   2014

  Number of symmetry inequivalent region 1 ions  =   1111

  Region 2 radius =  20.0000      Number of ions =   1886

  Number of symmetry inequivalent region 2a ions =   1005

  Region 2a mode = 4 : screened electrostatics due to region 1 
                       neglect correction to region 1 forces from 2a
                       region 2a displacements based on defects only

  Region 2a ions will only interact with defects in region 1

  Vacancies:

--------------------------------------------------------------------------------
    Specification type     Symbol/Number         x          y          z
--------------------------------------------------------------------------------
    Fractional                               0.500000   0.000000   0.500000
--------------------------------------------------------------------------------

  Impurities:

--------------------------------------------------------------------------------
    Specification type     Symbol/Number         x          y          z
--------------------------------------------------------------------------------
    Frac/Symbol             Ca               0.500000   0.500000   0.000000
--------------------------------------------------------------------------------


  Symmetry reduced region 1 (Relative to defect centre) :

--------------------------------------------------------------------------------
   No.   Atomic       x            y             z       Radius  Multiplicity   
         Label      (Angs)       (Angs)        (Angs)    (Angs)     
--------------------------------------------------------------------------------
     1  Ca    c      0.0000       0.9797      -0.9797    0.0000     1    Defect
     2  O     c      0.0000       0.9797 *     0.9797 *  0.0000     1          
     3  Cl    c      1.9594 *    -0.9797 *    -0.9797 *  0.0000     2          
     4  Li    c      1.9594 *     0.9797 *     0.9797 *  0.0000     2          
     5  O     c      0.0000       0.9797 *    -2.9392 *  0.0000     1          
     6  O     c      0.0000      -2.9392 *     0.9797 *  0.0000     1          
     7  Li    c      0.0000       0.9797 *     2.9392 *  0.0000     1          
     8  Li    c      0.0000      -2.9392 *    -0.9797 *  0.0000     1          
     9  Li    c      0.0000      -0.9797 *    -2.9392 *  0.0000     1          
    10  Li    c      0.0000       2.9392 *     0.9797 *  0.0000     1          
    11  Cl    c      1.9594 *    -0.9797 *     2.9392 *  0.0000     2          
    12  Cl    c      1.9594 *     2.9392 *    -0.9797 *  0.0000     2          
    13  Li    c      1.9594 *     0.9797 *    -2.9392 *  0.0000     2          
    14  Li    c      1.9594 *    -2.9392 *     0.9797 *  0.0000     2          
    15  O     c      0.0000      -2.9392 *    -2.9392 *  0.0000     1          
    16  O     c      3.9189 *     0.9797 *     0.9797 *  0.0000     2          
    17  Li    c      0.0000      -2.9392 *     2.9392 *  0.0000     1          
    18  Li    c      3.9189 *     0.9797 *    -0.9797 *  0.0000     2          
    19  Li    c      0.0000       2.9392 *    -2.9392 *  0.0000     1          
    20  Li    c      3.9189 *    -0.9797 *     0.9797 *  0.0000     2          
    21  Cl    c      1.9594 *     2.9392 *     2.9392 *  0.0000     2          
    22  Li    c      1.9594 *    -2.9392 *    -2.9392 *  0.0000     2          
    23  O     c      0.0000       0.9797 *     4.8986 *  0.0000     1          
    24  O     c      0.0000       4.8986 *     0.9797 *  0.0000     1          
    25  O     c      3.9189 *     0.9797 *    -2.9392 *  0.0000     2          
    26  Li    c      0.0000       0.9797 *    -4.8986 *  0.0000     1          
    27  Li    c      0.0000       4.8986 *    -0.9797 *  0.0000     1          
    28  Li    c      3.9189 *     0.9797 *     2.9392 *  0.0000     2          
    29  Li    c      0.0000      -0.9797 *     4.8986 *  0.0000     1          
    30  Li    c      0.0000      -4.8986 *     0.9797 *  0.0000     1          
    31  Li    c      3.9189 *    -0.9797 *    -2.9392 *  0.0000     2          
    32  O     c      3.9189 *    -2.9392 *     0.9797 *  0.0000     2          
    33  Li    c      3.9189 *    -2.9392 *    -0.9797 *  0.0000     2          
    34  Li    c      3.9189 *     2.9392 *     0.9797 *  0.0000     2          
    35  Cl    c      1.9594 *    -0.9797 *    -4.8986 *  0.0000     2          
    36  Li    c      1.9594 *     0.9797 *     4.8986 *  0.0000     2          
    37  Cl    c      1.9594 *    -4.8986 *    -0.9797 *  0.0000     2          
    38  Li    c      1.9594 *     4.8986 *     0.9797 *  0.0000     2          
    39  O     c      0.0000       4.8986 *    -2.9392 *  0.0000     1          
    40  O     c      0.0000      -2.9392 *     4.8986 *  0.0000     1          
    41  O     c      3.9189 *    -2.9392 *    -2.9392 *  0.0000     2          
    42  Li    c      0.0000       4.8986 *     2.9392 *  0.0000     1          
    43  Li    c      0.0000      -2.9392 *    -4.8986 *  0.0000     1          
    44  Li    c      3.9189 *    -2.9392 *     2.9392 *  0.0000     2          
    45  Li    c      0.0000       2.9392 *     4.8986 *  0.0000     1          
    46  Li    c      0.0000      -4.8986 *    -2.9392 *  0.0000     1          
    47  Li    c      3.9189 *     2.9392 *    -2.9392 *  0.0000     2          
    48  Cl    c      1.9594 *     2.9392 *    -4.8986 *  0.0000     2          
    49  Cl    c      1.9594 *    -4.8986 *     2.9392 *  0.0000     2          
    50  Cl    c      5.8783 *    -0.9797 *    -0.9797 *  0.0000     2          
    51  Li    c      1.9594 *     4.8986 *    -2.9392 *  0.0000     2          
    52  Li    c      1.9594 *    -2.9392 *     4.8986 *  0.0000     2          
    53  Li    c      5.8783 *     0.9797 *     0.9797 *  0.0000     2          
    54  O     c      3.9189 *     0.9797 *     4.8986 *  0.0000     2          
    55  O     c      3.9189 *     4.8986 *     0.9797 *  0.0000     2          
    56  Li    c      3.9189 *     0.9797 *    -4.8986 *  0.0000     2          
    57  Li    c      3.9189 *     4.8986 *    -0.9797 *  0.0000     2          
    58  Li    c      3.9189 *    -0.9797 *     4.8986 *  0.0000     2          
    59  Li    c      3.9189 *    -4.8986 *     0.9797 *  0.0000     2          
    60  Cl    c      5.8783 *    -0.9797 *     2.9392 *  0.0000     2          
    61  Cl    c      5.8783 *     2.9392 *    -0.9797 *  0.0000     2          
    62  Li    c      5.8783 *     0.9797 *    -2.9392 *  0.0000     2          
    63  Li    c      5.8783 *    -2.9392 *     0.9797 *  0.0000     2          
    64  O     c      0.0000       4.8986 *     4.8986 *  0.0000     1          
    65  O     c      3.9189 *     4.8986 *    -2.9392 *  0.0000     2          
    66  Li    c      0.0000       4.8986 *    -4.8986 *  0.0000     1          
    67  Li    c      3.9189 *     4.8986 *     2.9392 *  0.0000     2          
    68  Li    c      0.0000      -4.8986 *     4.8986 *  0.0000     1          
    69  Li    c      3.9189 *    -4.8986 *    -2.9392 *  0.0000     2          
    70  O     c      0.0000       0.9797 *    -6.8580 *  0.0000     1          
    71  O     c      0.0000      -6.8580 *     0.9797 *  0.0000     1          
    72  O     c      3.9189 *    -2.9392 *     4.8986 *  0.0000     2          
    73  Li    c      0.0000       0.9797 *     6.8580 *  0.0000     1          
    74  Li    c      0.0000      -6.8580 *    -0.9797 *  0.0000     1          
    75  Li    c      3.9189 *    -2.9392 *    -4.8986 *  0.0000     2          
    76  Li    c      0.0000      -0.9797 *    -6.8580 *  0.0000     1          
    77  Li    c      0.0000       6.8580 *     0.9797 *  0.0000     1          
    78  Li    c      3.9189 *     2.9392 *     4.8986 *  0.0000     2          
    79  Cl    c      1.9594 *    -4.8986 *    -4.8986 *  0.0000     2          
    80  Li    c      1.9594 *     4.8986 *     4.8986 *  0.0000     2          
    81  Cl    c      1.9594 *     6.8580 *    -0.9797 *  0.0000     2          
    82  Cl    c      5.8783 *     2.9392 *     2.9392 *  0.0000     2          
    83  Li    c      1.9594 *    -6.8580 *     0.9797 *  0.0000     2          
    84  Li    c      5.8783 *    -2.9392 *    -2.9392 *  0.0000     2          
    85  Cl    c      1.9594 *    -0.9797 *     6.8580 *  0.0000     2          
    86  Li    c      1.9594 *     0.9797 *    -6.8580 *  0.0000     2          
    87  O     c      0.0000      -2.9392 *    -6.8580 *  0.0000     1          
    88  O     c      0.0000      -6.8580 *    -2.9392 *  0.0000     1          
    89  Li    c      0.0000      -2.9392 *     6.8580 *  0.0000     1          
    90  Li    c      0.0000      -6.8580 *     2.9392 *  0.0000     1          
    91  Li    c      0.0000       2.9392 *    -6.8580 *  0.0000     1          
    92  Li    c      0.0000       6.8580 *    -2.9392 *  0.0000     1          
    93  Cl    c      5.8783 *    -4.8986 *    -0.9797 *  0.0000     2          
    94  Li    c      5.8783 *     4.8986 *     0.9797 *  0.0000     2          
    95  Cl    c      1.9594 *     6.8580 *     2.9392 *  0.0000     2          
    96  Cl    c      5.8783 *    -0.9797 *    -4.8986 *  0.0000     2          
    97  Li    c      1.9594 *    -6.8580 *    -2.9392 *  0.0000     2          
    98  Li    c      5.8783 *     0.9797 *     4.8986 *  0.0000     2          
    99  Cl    c      1.9594 *     2.9392 *     6.8580 *  0.0000     2          
   100  Li    c      1.9594 *    -2.9392 *    -6.8580 *  0.0000     2          
   101  O     c      7.8377 *     0.9797 *     0.9797 *  0.0000     2          
   102  Li    c      7.8377 *     0.9797 *    -0.9797 *  0.0000     2          
   103  Li    c      7.8377 *    -0.9797 *     0.9797 *  0.0000     2          
   104  O     c      3.9189 *     4.8986 *     4.8986 *  0.0000     2          
   105  Li    c      3.9189 *     4.8986 *    -4.8986 *  0.0000     2          
   106  Li    c      3.9189 *    -4.8986 *     4.8986 *  0.0000     2          
   107  O     c      3.9189 *     0.9797 *    -6.8580 *  0.0000     2          
   108  O     c      3.9189 *    -6.8580 *     0.9797 *  0.0000     2          
   109  Li    c      3.9189 *     0.9797 *     6.8580 *  0.0000     2          
   110  Li    c      3.9189 *    -6.8580 *    -0.9797 *  0.0000     2          
   111  Li    c      3.9189 *    -0.9797 *    -6.8580 *  0.0000     2          
   112  Li    c      3.9189 *     6.8580 *     0.9797 *  0.0000     2          
   113  Cl    c      5.8783 *     2.9392 *    -4.8986 *  0.0000     2          
   114  Cl    c      5.8783 *    -4.8986 *     2.9392 *  0.0000     2          
   115  Li    c      5.8783 *     4.8986 *    -2.9392 *  0.0000     2          
   116  Li    c      5.8783 *    -2.9392 *     4.8986 *  0.0000     2          
   117  O     c      7.8377 *     0.9797 *    -2.9392 *  0.0000     2          
   118  Li    c      7.8377 *     0.9797 *     2.9392 *  0.0000     2          
   119  Li    c      7.8377 *    -0.9797 *    -2.9392 *  0.0000     2          
   120  O     c      0.0000       4.8986 *    -6.8580 *  0.0000     1          
   121  O     c      0.0000      -6.8580 *     4.8986 *  0.0000     1          
   122  O     c      3.9189 *    -2.9392 *    -6.8580 *  0.0000     2          
   123  O     c      7.8377 *    -2.9392 *     0.9797 *  0.0000     2          
   124  Li    c      0.0000       4.8986 *     6.8580 *  0.0000     1          
   125  Li    c      0.0000      -6.8580 *    -4.8986 *  0.0000     1          
   126  Li    c      3.9189 *    -2.9392 *     6.8580 *  0.0000     2          
   127  Li    c      7.8377 *    -2.9392 *    -0.9797 *  0.0000     2          
   128  Li    c      0.0000       6.8580 *     4.8986 *  0.0000     1          
   129  Li    c      0.0000      -4.8986 *    -6.8580 *  0.0000     1          
   130  Li    c      3.9189 *     2.9392 *    -6.8580 *  0.0000     2          
   131  Li    c      7.8377 *     2.9392 *     0.9797 *  0.0000     2          
   132  O     c      3.9189 *    -6.8580 *    -2.9392 *  0.0000     2          
   133  Li    c      3.9189 *    -6.8580 *     2.9392 *  0.0000     2          
   134  Li    c      3.9189 *     6.8580 *    -2.9392 *  0.0000     2          
   135  Cl    c      1.9594 *     6.8580 *    -4.8986 *  0.0000     2          
   136  Cl    c      1.9594 *    -4.8986 *     6.8580 *  0.0000     2          
   137  Li    c      1.9594 *     4.8986 *    -6.8580 *  0.0000     2          
   138  Li    c      1.9594 *    -6.8580 *     4.8986 *  0.0000     2          
   139  O     c      0.0000       0.9797 *     8.8175 *  0.0000     1          
   140  O     c      0.0000       8.8175 *     0.9797 *  0.0000     1          
   141  O     c      7.8377 *    -2.9392 *    -2.9392 *  0.0000     2          
   142  Li    c      0.0000       0.9797 *    -8.8175 *  0.0000     1          
   143  Li    c      0.0000       8.8175 *    -0.9797 *  0.0000     1          
   144  Li    c      7.8377 *    -2.9392 *     2.9392 *  0.0000     2          
   145  Li    c      0.0000      -0.9797 *     8.8175 *  0.0000     1          
   146  Li    c      0.0000      -8.8175 *     0.9797 *  0.0000     1          
   147  Li    c      7.8377 *     2.9392 *    -2.9392 *  0.0000     2          
   148  Cl    c      1.9594 *    -0.9797 *    -8.8175 *  0.0000     2          
   149  Li    c      1.9594 *     0.9797 *     8.8175 *  0.0000     2          
   150  Cl    c      1.9594 *    -8.8175 *    -0.9797 *  0.0000     2          
   151  Cl    c      5.8783 *    -0.9797 *     6.8580 *  0.0000     2          
   152  Cl    c      5.8783 *    -4.8986 *    -4.8986 *  0.0000     2          
   153  Li    c      1.9594 *     8.8175 *     0.9797 *  0.0000     2          
   154  Li    c      5.8783 *     0.9797 *    -6.8580 *  0.0000     2          
   155  Li    c      5.8783 *     4.8986 *     4.8986 *  0.0000     2          
   156  Cl    c      5.8783 *     6.8580 *    -0.9797 *  0.0000     2          
   157  Li    c      5.8783 *    -6.8580 *     0.9797 *  0.0000     2          
   158  O     c      0.0000       8.8175 *    -2.9392 *  0.0000     1          
   159  O     c      0.0000      -2.9392 *     8.8175 *  0.0000     1          
   160  O     c      7.8377 *     0.9797 *     4.8986 *  0.0000     2          
   161  O     c      7.8377 *     4.8986 *     0.9797 *  0.0000     2          
   162  Li    c      0.0000       8.8175 *     2.9392 *  0.0000     1          
   163  Li    c      0.0000      -2.9392 *    -8.8175 *  0.0000     1          
   164  Li    c      7.8377 *     0.9797 *    -4.8986 *  0.0000     2          
   165  Li    c      7.8377 *     4.8986 *    -0.9797 *  0.0000     2          
   166  Li    c      0.0000       2.9392 *     8.8175 *  0.0000     1          
   167  Li    c      0.0000      -8.8175 *    -2.9392 *  0.0000     1          
   168  Li    c      7.8377 *    -0.9797 *     4.8986 *  0.0000     2          
   169  Li    c      7.8377 *    -4.8986 *     0.9797 *  0.0000     2          
   170  O     c      3.9189 *     4.8986 *    -6.8580 *  0.0000     2          
   171  O     c      3.9189 *    -6.8580 *     4.8986 *  0.0000     2          
   172  Li    c      3.9189 *     4.8986 *     6.8580 *  0.0000     2          
   173  Li    c      3.9189 *    -6.8580 *    -4.8986 *  0.0000     2          
   174  Li    c      3.9189 *     6.8580 *     4.8986 *  0.0000     2          
   175  Li    c      3.9189 *    -4.8986 *    -6.8580 *  0.0000     2          
   176  Cl    c      1.9594 *     2.9392 *    -8.8175 *  0.0000     2          
   177  Cl    c      1.9594 *    -8.8175 *     2.9392 *  0.0000     2          
   178  Li    c      1.9594 *     8.8175 *    -2.9392 *  0.0000     2          
   179  Li    c      1.9594 *    -2.9392 *     8.8175 *  0.0000     2          
   180  Cl    c      5.8783 *     2.9392 *     6.8580 *  0.0000     2          
   181  Cl    c      5.8783 *     6.8580 *     2.9392 *  0.0000     2          
   182  Li    c      5.8783 *    -2.9392 *    -6.8580 *  0.0000     2          
   183  Li    c      5.8783 *    -6.8580 *    -2.9392 *  0.0000     2          
   184  O     c      7.8377 *     4.8986 *    -2.9392 *  0.0000     2          
   185  Li    c      7.8377 *     4.8986 *     2.9392 *  0.0000     2          
   186  Li    c      7.8377 *    -4.8986 *    -2.9392 *  0.0000     2          
   187  O     c      3.9189 *     0.9797 *     8.8175 *  0.0000     2          
   188  O     c      3.9189 *     8.8175 *     0.9797 *  0.0000     2          
   189  O     c      7.8377 *    -2.9392 *     4.8986 *  0.0000     2          
   190  Li    c      3.9189 *     0.9797 *    -8.8175 *  0.0000     2          
   191  Li    c      3.9189 *     8.8175 *    -0.9797 *  0.0000     2          
   192  Li    c      7.8377 *    -2.9392 *    -4.8986 *  0.0000     2          
   193  Li    c      3.9189 *    -0.9797 *     8.8175 *  0.0000     2          
   194  Li    c      3.9189 *    -8.8175 *     0.9797 *  0.0000     2          
   195  Li    c      7.8377 *     2.9392 *     4.8986 *  0.0000     2          
   196  O     c      0.0000      -6.8580 *    -6.8580 *  0.0000     1          
   197  Li    c      0.0000      -6.8580 *     6.8580 *  0.0000     1          
   198  Li    c      0.0000       6.8580 *    -6.8580 *  0.0000     1          
   199  Cl    c      9.7972 *    -0.9797 *    -0.9797 *  0.0000     2          
   200  Li    c      9.7972 *     0.9797 *     0.9797 *  0.0000     2          
   201  Cl    c      1.9594 *     6.8580 *     6.8580 *  0.0000     2          
   202  Li    c      1.9594 *    -6.8580 *    -6.8580 *  0.0000     2          
   203  O     c      0.0000       4.8986 *     8.8175 *  0.0000     1          
   204  O     c      0.0000       8.8175 *     4.8986 *  0.0000     1          
   205  O     c      3.9189 *     8.8175 *    -2.9392 *  0.0000     2          
   206  O     c      3.9189 *    -2.9392 *     8.8175 *  0.0000     2          
   207  Li    c      0.0000       4.8986 *    -8.8175 *  0.0000     1          
   208  Li    c      0.0000       8.8175 *    -4.8986 *  0.0000     1          
   209  Li    c      3.9189 *     8.8175 *     2.9392 *  0.0000     2          
   210  Li    c      3.9189 *    -2.9392 *    -8.8175 *  0.0000     2          
   211  Li    c      0.0000      -4.8986 *     8.8175 *  0.0000     1          
   212  Li    c      0.0000      -8.8175 *     4.8986 *  0.0000     1          
   213  Li    c      3.9189 *     2.9392 *     8.8175 *  0.0000     2          
   214  Li    c      3.9189 *    -8.8175 *    -2.9392 *  0.0000     2          
   215  Cl    c      1.9594 *    -4.8986 *    -8.8175 *  0.0000     2          
   216  Cl    c      1.9594 *    -8.8175 *    -4.8986 *  0.0000     2          
   217  Cl    c      5.8783 *    -4.8986 *     6.8580 *  0.0000     2          
   218  Cl    c      9.7972 *    -0.9797 *     2.9392 *  0.0000     2          
   219  Cl    c      9.7972 *     2.9392 *    -0.9797 *  0.0000     2          
   220  Li    c      1.9594 *     4.8986 *     8.8175 *  0.0000     2          
   221  Li    c      1.9594 *     8.8175 *     4.8986 *  0.0000     2          
   222  Li    c      5.8783 *     4.8986 *    -6.8580 *  0.0000     2          
   223  Li    c      9.7972 *     0.9797 *    -2.9392 *  0.0000     2          
   224  Li    c      9.7972 *    -2.9392 *     0.9797 *  0.0000     2          
   225  Cl    c      5.8783 *     6.8580 *    -4.8986 *  0.0000     2          
   226  Li    c      5.8783 *    -6.8580 *     4.8986 *  0.0000     2          
   227  O     c      7.8377 *     0.9797 *    -6.8580 *  0.0000     2          
   228  O     c      7.8377 *     4.8986 *     4.8986 *  0.0000     2          
   229  Li    c      7.8377 *     0.9797 *     6.8580 *  0.0000     2          
   230  Li    c      7.8377 *     4.8986 *    -4.8986 *  0.0000     2          
   231  Li    c      7.8377 *    -0.9797 *    -6.8580 *  0.0000     2          
   232  Li    c      7.8377 *    -4.8986 *     4.8986 *  0.0000     2          
   233  O     c      7.8377 *    -6.8580 *     0.9797 *  0.0000     2          
   234  Li    c      7.8377 *    -6.8580 *    -0.9797 *  0.0000     2          
   235  Li    c      7.8377 *     6.8580 *     0.9797 *  0.0000     2          
   236  O     c      3.9189 *    -6.8580 *    -6.8580 *  0.0000     2          
   237  Li    c      3.9189 *    -6.8580 *     6.8580 *  0.0000     2          
   238  Li    c      3.9189 *     6.8580 *    -6.8580 *  0.0000     2          
   239  Cl    c      5.8783 *    -0.9797 *    -8.8175 *  0.0000     2          
   240  Cl    c      9.7972 *     2.9392 *     2.9392 *  0.0000     2          
   241  Li    c      5.8783 *     0.9797 *     8.8175 *  0.0000     2          
   242  Li    c      9.7972 *    -2.9392 *    -2.9392 *  0.0000     2          
   243  Cl    c      5.8783 *    -8.8175 *    -0.9797 *  0.0000     2          
   244  Li    c      5.8783 *     8.8175 *     0.9797 *  0.0000     2          
   245  O     c      3.9189 *     4.8986 *     8.8175 *  0.0000     2          
   246  O     c      3.9189 *     8.8175 *     4.8986 *  0.0000     2          
   247  O     c      7.8377 *    -2.9392 *    -6.8580 *  0.0000     2          
   248  O     c      7.8377 *    -6.8580 *    -2.9392 *  0.0000     2          
   249  Li    c      3.9189 *     4.8986 *    -8.8175 *  0.0000     2          
   250  Li    c      3.9189 *     8.8175 *    -4.8986 *  0.0000     2          
   251  Li    c      7.8377 *    -2.9392 *     6.8580 *  0.0000     2          
   252  Li    c      7.8377 *    -6.8580 *     2.9392 *  0.0000     2          
   253  Li    c      3.9189 *    -4.8986 *     8.8175 *  0.0000     2          
   254  Li    c      3.9189 *    -8.8175 *     4.8986 *  0.0000     2          
   255  Li    c      7.8377 *     2.9392 *    -6.8580 *  0.0000     2          
   256  Li    c      7.8377 *     6.8580 *    -2.9392 *  0.0000     2          
   257  O     c      0.0000       0.9797 *   -10.7769 *  0.0000     1          
   258  O     c      0.0000     -10.7769 *     0.9797 *  0.0000     1          
   259  Li    c      0.0000       0.9797 *    10.7769 *  0.0000     1          
   260  Li    c      0.0000     -10.7769 *    -0.9797 *  0.0000     1          
   261  Li    c      0.0000      -0.9797 *   -10.7769 *  0.0000     1          
   262  Li    c      0.0000      10.7769 *     0.9797 *  0.0000     1          
   263  Cl    c      5.8783 *     2.9392 *    -8.8175 *  0.0000     2          
   264  Li    c      5.8783 *    -2.9392 *     8.8175 *  0.0000     2          
   265  Cl    c      5.8783 *    -8.8175 *     2.9392 *  0.0000     2          
   266  Cl    c      9.7972 *    -0.9797 *    -4.8986 *  0.0000     2          
   267  Cl    c      9.7972 *    -4.8986 *    -0.9797 *  0.0000     2          
   268  Li    c      5.8783 *     8.8175 *    -2.9392 *  0.0000     2          
   269  Li    c      9.7972 *     0.9797 *     4.8986 *  0.0000     2          
   270  Li    c      9.7972 *     4.8986 *     0.9797 *  0.0000     2          
   271  Cl    c      1.9594 *    -0.9797 *    10.7769 *  0.0000     2          
   272  Li    c      1.9594 *     0.9797 *   -10.7769 *  0.0000     2          
   273  Cl    c      1.9594 *    10.7769 *    -0.9797 *  0.0000     2          
   274  Li    c      1.9594 *   -10.7769 *     0.9797 *  0.0000     2          
   275  O     c      0.0000       8.8175 *    -6.8580 *  0.0000     1          
   276  O     c      0.0000      -6.8580 *     8.8175 *  0.0000     1          
   277  Li    c      0.0000       8.8175 *     6.8580 *  0.0000     1          
   278  Li    c      0.0000      -6.8580 *    -8.8175 *  0.0000     1          
   279  Li    c      0.0000       6.8580 *     8.8175 *  0.0000     1          
   280  Li    c      0.0000      -8.8175 *    -6.8580 *  0.0000     1          
   281  O     c      0.0000      -2.9392 *   -10.7769 *  0.0000     1          
   282  O     c      0.0000     -10.7769 *    -2.9392 *  0.0000     1          
   283  Li    c      0.0000      -2.9392 *    10.7769 *  0.0000     1          
   284  Li    c      0.0000     -10.7769 *     2.9392 *  0.0000     1          
   285  Li    c      0.0000       2.9392 *   -10.7769 *  0.0000     1          
   286  Li    c      0.0000      10.7769 *    -2.9392 *  0.0000     1          
   287  Cl    c      1.9594 *     6.8580 *    -8.8175 *  0.0000     2          
   288  Cl    c      1.9594 *    -8.8175 *     6.8580 *  0.0000     2          
   289  Cl    c      9.7972 *     2.9392 *    -4.8986 *  0.0000     2          
   290  Cl    c      9.7972 *    -4.8986 *     2.9392 *  0.0000     2          
   291  Li    c      1.9594 *     8.8175 *    -6.8580 *  0.0000     2          
   292  Li    c      1.9594 *    -6.8580 *     8.8175 *  0.0000     2          
   293  Li    c      9.7972 *     4.8986 *    -2.9392 *  0.0000     2          
   294  Li    c      9.7972 *    -2.9392 *     4.8986 *  0.0000     2          
   295  Cl    c      1.9594 *     2.9392 *    10.7769 *  0.0000     2          
   296  Cl    c      1.9594 *    10.7769 *     2.9392 *  0.0000     2          
   297  Cl    c      5.8783 *     6.8580 *     6.8580 *  0.0000     2          
   298  Li    c      1.9594 *    -2.9392 *   -10.7769 *  0.0000     2          
   299  Li    c      1.9594 *   -10.7769 *    -2.9392 *  0.0000     2          
   300  Li    c      5.8783 *    -6.8580 *    -6.8580 *  0.0000     2          
   301  O     c      7.8377 *     4.8986 *    -6.8580 *  0.0000     2          
   302  O     c      7.8377 *    -6.8580 *     4.8986 *  0.0000     2          
   303  Li    c      7.8377 *     4.8986 *     6.8580 *  0.0000     2          
   304  Li    c      7.8377 *    -6.8580 *    -4.8986 *  0.0000     2          
   305  Li    c      7.8377 *     6.8580 *     4.8986 *  0.0000     2          
   306  Li    c      7.8377 *    -4.8986 *    -6.8580 *  0.0000     2          
   307  O     c      3.9189 *     0.9797 *   -10.7769 *  0.0000     2          
   308  O     c      3.9189 *   -10.7769 *     0.9797 *  0.0000     2          
   309  Li    c      3.9189 *     0.9797 *    10.7769 *  0.0000     2          
   310  Li    c      3.9189 *   -10.7769 *    -0.9797 *  0.0000     2          
   311  Li    c      3.9189 *    -0.9797 *   -10.7769 *  0.0000     2          
   312  Li    c      3.9189 *    10.7769 *     0.9797 *  0.0000     2          
   313  Cl    c      5.8783 *    -4.8986 *    -8.8175 *  0.0000     2          
   314  Li    c      5.8783 *     4.8986 *     8.8175 *  0.0000     2          
   315  Cl    c      5.8783 *    -8.8175 *    -4.8986 *  0.0000     2          
   316  Li    c      5.8783 *     8.8175 *     4.8986 *  0.0000     2          
   317  O     c    -11.7566 *     0.9797 *     0.9797 *  0.0000     2          
   318  Li    c    -11.7566 *     0.9797 *    -0.9797 *  0.0000     2          
   319  Li    c    -11.7566 *    -0.9797 *     0.9797 *  0.0000     2          
   320  O     c      3.9189 *     8.8175 *    -6.8580 *  0.0000     2          
   321  O     c      3.9189 *    -6.8580 *     8.8175 *  0.0000     2          
   322  O     c      7.8377 *     0.9797 *     8.8175 *  0.0000     2          
   323  O     c      7.8377 *     8.8175 *     0.9797 *  0.0000     2          
   324  Li    c      3.9189 *     8.8175 *     6.8580 *  0.0000     2          
   325  Li    c      3.9189 *    -6.8580 *    -8.8175 *  0.0000     2          
   326  Li    c      7.8377 *     0.9797 *    -8.8175 *  0.0000     2          
   327  Li    c      7.8377 *     8.8175 *    -0.9797 *  0.0000     2          
   328  Li    c      3.9189 *     6.8580 *     8.8175 *  0.0000     2          
   329  Li    c      3.9189 *    -8.8175 *    -6.8580 *  0.0000     2          
   330  Li    c      7.8377 *    -0.9797 *     8.8175 *  0.0000     2          
   331  Li    c      7.8377 *    -8.8175 *     0.9797 *  0.0000     2          
   332  O     c      0.0000       4.8986 *   -10.7769 *  0.0000     1          
   333  O     c      0.0000     -10.7769 *     4.8986 *  0.0000     1          
   334  O     c      3.9189 *    -2.9392 *   -10.7769 *  0.0000     2          
   335  O     c      3.9189 *   -10.7769 *    -2.9392 *  0.0000     2          
   336  Li    c      0.0000       4.8986 *    10.7769 *  0.0000     1          
   337  Li    c      0.0000     -10.7769 *    -4.8986 *  0.0000     1          
   338  Li    c      3.9189 *    -2.9392 *    10.7769 *  0.0000     2          
   339  Li    c      3.9189 *   -10.7769 *     2.9392 *  0.0000     2          
   340  Li    c      0.0000      10.7769 *     4.8986 *  0.0000     1          
   341  Li    c      0.0000      -4.8986 *   -10.7769 *  0.0000     1          
   342  Li    c      3.9189 *     2.9392 *   -10.7769 *  0.0000     2          
   343  Li    c      3.9189 *    10.7769 *    -2.9392 *  0.0000     2          
   344  Cl    c      9.7972 *    -4.8986 *    -4.8986 *  0.0000     2          
   345  Li    c      9.7972 *     4.8986 *     4.8986 *  0.0000     2          
   346  Cl    c      1.9594 *    10.7769 *    -4.8986 *  0.0000     2          
   347  Cl    c      1.9594 *    -4.8986 *    10.7769 *  0.0000     2          
   348  Cl    c      9.7972 *    -0.9797 *     6.8580 *  0.0000     2          
   349  Cl    c      9.7972 *     6.8580 *    -0.9797 *  0.0000     2          
   350  Li    c      1.9594 *     4.8986 *   -10.7769 *  0.0000     2          
   351  Li    c      1.9594 *   -10.7769 *     4.8986 *  0.0000     2          
   352  Li    c      9.7972 *     0.9797 *    -6.8580 *  0.0000     2          
   353  Li    c      9.7972 *    -6.8580 *     0.9797 *  0.0000     2          
   354  O     c      7.8377 *    -2.9392 *     8.8175 *  0.0000     2          
   355  O     c    -11.7566 *     0.9797 *    -2.9392 *  0.0000     2          
   356  O     c    -11.7566 *    -2.9392 *     0.9797 *  0.0000     2          
   357  Li    c      7.8377 *    -2.9392 *    -8.8175 *  0.0000     2          
   358  Li    c    -11.7566 *     0.9797 *     2.9392 *  0.0000     2          
   359  Li    c    -11.7566 *    -2.9392 *    -0.9797 *  0.0000     2          
   360  Li    c      7.8377 *     2.9392 *     8.8175 *  0.0000     2          
   361  Li    c    -11.7566 *    -0.9797 *    -2.9392 *  0.0000     2          
   362  Li    c    -11.7566 *     2.9392 *     0.9797 *  0.0000     2          
   363  O     c      7.8377 *     8.8175 *    -2.9392 *  0.0000     2          
   364  Li    c      7.8377 *     8.8175 *     2.9392 *  0.0000     2          
   365  Li    c      7.8377 *    -8.8175 *    -2.9392 *  0.0000     2          
   366  Cl    c      9.7972 *     2.9392 *     6.8580 *  0.0000     2          
   367  Li    c      9.7972 *    -2.9392 *    -6.8580 *  0.0000     2          
   368  Cl    c      5.8783 *    -0.9797 *    10.7769 *  0.0000     2          
   369  Cl    c      5.8783 *    10.7769 *    -0.9797 *  0.0000     2          
   370  Cl    c      9.7972 *     6.8580 *     2.9392 *  0.0000     2          
   371  Li    c      5.8783 *     0.9797 *   -10.7769 *  0.0000     2          
   372  Li    c      5.8783 *   -10.7769 *     0.9797 *  0.0000     2          
   373  Li    c      9.7972 *    -6.8580 *    -2.9392 *  0.0000     2          
   374  O     c      0.0000       8.8175 *     8.8175 *  0.0000     1          
   375  O     c    -11.7566 *    -2.9392 *    -2.9392 *  0.0000     2          
   376  Li    c      0.0000       8.8175 *    -8.8175 *  0.0000     1          
   377  Li    c    -11.7566 *    -2.9392 *     2.9392 *  0.0000     2          
   378  Li    c      0.0000      -8.8175 *     8.8175 *  0.0000     1          
   379  Li    c    -11.7566 *     2.9392 *    -2.9392 *  0.0000     2          
   380  O     c      3.9189 *     4.8986 *   -10.7769 *  0.0000     2          
   381  O     c      3.9189 *   -10.7769 *     4.8986 *  0.0000     2          
   382  O     c      7.8377 *    -6.8580 *    -6.8580 *  0.0000     2          
   383  Li    c      3.9189 *     4.8986 *    10.7769 *  0.0000     2          
   384  Li    c      3.9189 *   -10.7769 *    -4.8986 *  0.0000     2          
   385  Li    c      7.8377 *    -6.8580 *     6.8580 *  0.0000     2          
   386  Li    c      3.9189 *    10.7769 *     4.8986 *  0.0000     2          
   387  Li    c      3.9189 *    -4.8986 *   -10.7769 *  0.0000     2          
   388  Li    c      7.8377 *     6.8580 *    -6.8580 *  0.0000     2          
   389  Cl    c      1.9594 *    -8.8175 *    -8.8175 *  0.0000     2          
   390  Li    c      1.9594 *     8.8175 *     8.8175 *  0.0000     2          
   391  Cl    c      5.8783 *     6.8580 *    -8.8175 *  0.0000     2          
   392  Cl    c      5.8783 *    -8.8175 *     6.8580 *  0.0000     2          
   393  Li    c      5.8783 *     8.8175 *    -6.8580 *  0.0000     2          
   394  Li    c      5.8783 *    -6.8580 *     8.8175 *  0.0000     2          
   395  Cl    c      5.8783 *     2.9392 *    10.7769 *  0.0000     2          
   396  Cl    c      5.8783 *    10.7769 *     2.9392 *  0.0000     2          
   397  Li    c      5.8783 *    -2.9392 *   -10.7769 *  0.0000     2          
   398  Li    c      5.8783 *   -10.7769 *    -2.9392 *  0.0000     2          
   399  O     c    -11.7566 *     0.9797 *     4.8986 *  0.0000     2          
   400  O     c    -11.7566 *     4.8986 *     0.9797 *  0.0000     2          
   401  Li    c    -11.7566 *     0.9797 *    -4.8986 *  0.0000     2          
   402  Li    c    -11.7566 *     4.8986 *    -0.9797 *  0.0000     2          
   403  Li    c    -11.7566 *    -0.9797 *     4.8986 *  0.0000     2          
   404  Li    c    -11.7566 *    -4.8986 *     0.9797 *  0.0000     2          
   405  O     c      0.0000       0.9797 *    12.7363 *  0.0000     1          
   406  O     c      0.0000      12.7363 *     0.9797 *  0.0000     1          
   407  O     c      7.8377 *     4.8986 *     8.8175 *  0.0000     2          
   408  O     c      7.8377 *     8.8175 *     4.8986 *  0.0000     2          
   409  Li    c      0.0000       0.9797 *   -12.7363 *  0.0000     1          
   410  Li    c      0.0000      12.7363 *    -0.9797 *  0.0000     1          
   411  Li    c      7.8377 *     4.8986 *    -8.8175 *  0.0000     2          
   412  Li    c      7.8377 *     8.8175 *    -4.8986 *  0.0000     2          
   413  Li    c      0.0000      -0.9797 *    12.7363 *  0.0000     1          
   414  Li    c      0.0000     -12.7363 *     0.9797 *  0.0000     1          
   415  Li    c      7.8377 *    -4.8986 *     8.8175 *  0.0000     2          
   416  Li    c      7.8377 *    -8.8175 *     4.8986 *  0.0000     2          
   417  O     c      0.0000      -6.8580 *   -10.7769 *  0.0000     1          
   418  O     c      0.0000     -10.7769 *    -6.8580 *  0.0000     1          
   419  Li    c      0.0000      -6.8580 *    10.7769 *  0.0000     1          
   420  Li    c      0.0000     -10.7769 *     6.8580 *  0.0000     1          
   421  Li    c      0.0000       6.8580 *   -10.7769 *  0.0000     1          
   422  Li    c      0.0000      10.7769 *    -6.8580 *  0.0000     1          
   423  Cl    c      1.9594 *    -0.9797 *   -12.7363 *  0.0000     2          
   424  Cl    c      1.9594 *   -12.7363 *    -0.9797 *  0.0000     2          
   425  Li    c      1.9594 *     0.9797 *    12.7363 *  0.0000     2          
   426  Li    c      1.9594 *    12.7363 *     0.9797 *  0.0000     2          
   427  Cl    c      1.9594 *     6.8580 *    10.7769 *  0.0000     2          
   428  Cl    c      9.7972 *     6.8580 *    -4.8986 *  0.0000     2          
   429  Cl    c      9.7972 *    -4.8986 *     6.8580 *  0.0000     2          
   430  Li    c      1.9594 *    -6.8580 *   -10.7769 *  0.0000     2          
   431  Li    c      9.7972 *     4.8986 *    -6.8580 *  0.0000     2          
   432  Li    c      9.7972 *    -6.8580 *     4.8986 *  0.0000     2          
   433  Cl    c      1.9594 *    10.7769 *     6.8580 *  0.0000     2          
   434  Li    c      1.9594 *   -10.7769 *    -6.8580 *  0.0000     2          
   435  O     c      3.9189 *     8.8175 *     8.8175 *  0.0000     2          
   436  O     c    -11.7566 *     4.8986 *    -2.9392 *  0.0000     2          
   437  O     c    -11.7566 *    -2.9392 *     4.8986 *  0.0000     2          
   438  Li    c      3.9189 *     8.8175 *    -8.8175 *  0.0000     2          
   439  Li    c    -11.7566 *     4.8986 *     2.9392 *  0.0000     2          
   440  Li    c    -11.7566 *    -2.9392 *    -4.8986 *  0.0000     2          
   441  Li    c      3.9189 *    -8.8175 *     8.8175 *  0.0000     2          
   442  Li    c    -11.7566 *     2.9392 *     4.8986 *  0.0000     2          
   443  Li    c    -11.7566 *    -4.8986 *    -2.9392 *  0.0000     2          
   444  O     c      0.0000      12.7363 *    -2.9392 *  0.0000     1          
   445  O     c      0.0000      -2.9392 *    12.7363 *  0.0000     1          
   446  Li    c      0.0000      12.7363 *     2.9392 *  0.0000     1          
   447  Li    c      0.0000      -2.9392 *   -12.7363 *  0.0000     1          
   448  Li    c      0.0000       2.9392 *    12.7363 *  0.0000     1          
   449  Li    c      0.0000     -12.7363 *    -2.9392 *  0.0000     1          
   450  Cl    c      1.9594 *     2.9392 *   -12.7363 *  0.0000     2          
   451  Cl    c      1.9594 *   -12.7363 *     2.9392 *  0.0000     2          
   452  Cl    c      9.7972 *    -0.9797 *    -8.8175 *  0.0000     2          
   453  Cl    c      9.7972 *    -8.8175 *    -0.9797 *  0.0000     2          
   454  Li    c      1.9594 *    12.7363 *    -2.9392 *  0.0000     2          
   455  Li    c      1.9594 *    -2.9392 *    12.7363 *  0.0000     2          
   456  Li    c      9.7972 *     0.9797 *     8.8175 *  0.0000     2          
   457  Li    c      9.7972 *     8.8175 *     0.9797 *  0.0000     2          
   458  Cl    c      5.8783 *    10.7769 *    -4.8986 *  0.0000     2          
   459  Cl    c      5.8783 *    -4.8986 *    10.7769 *  0.0000     2          
   460  Li    c      5.8783 *     4.8986 *   -10.7769 *  0.0000     2          
   461  Li    c      5.8783 *   -10.7769 *     4.8986 *  0.0000     2          
   462  O     c      3.9189 *     0.9797 *    12.7363 *  0.0000     2          
   463  O     c      3.9189 *    12.7363 *     0.9797 *  0.0000     2          
   464  Li    c      3.9189 *     0.9797 *   -12.7363 *  0.0000     2          
   465  Li    c      3.9189 *    12.7363 *    -0.9797 *  0.0000     2          
   466  Li    c      3.9189 *    -0.9797 *    12.7363 *  0.0000     2          
   467  Li    c      3.9189 *   -12.7363 *     0.9797 *  0.0000     2          
   468  O     c      3.9189 *   -10.7769 *    -6.8580 *  0.0000     2          
   469  O     c      7.8377 *     0.9797 *   -10.7769 *  0.0000     2          
   470  O     c      7.8377 *   -10.7769 *     0.9797 *  0.0000     2          
   471  Li    c      3.9189 *   -10.7769 *     6.8580 *  0.0000     2          
   472  Li    c      7.8377 *     0.9797 *    10.7769 *  0.0000     2          
   473  Li    c      7.8377 *   -10.7769 *    -0.9797 *  0.0000     2          
   474  Li    c      3.9189 *    10.7769 *    -6.8580 *  0.0000     2          
   475  Li    c      7.8377 *    -0.9797 *   -10.7769 *  0.0000     2          
   476  Li    c      7.8377 *    10.7769 *     0.9797 *  0.0000     2          
   477  O     c      3.9189 *    -6.8580 *   -10.7769 *  0.0000     2          
   478  Li    c      3.9189 *    -6.8580 *    10.7769 *  0.0000     2          
   479  Li    c      3.9189 *     6.8580 *   -10.7769 *  0.0000     2          
   480  Cl    c      9.7972 *     2.9392 *    -8.8175 *  0.0000     2          
   481  Li    c      9.7972 *    -2.9392 *     8.8175 *  0.0000     2          
   482  Cl    c      9.7972 *    -8.8175 *     2.9392 *  0.0000     2          
   483  Li    c      9.7972 *     8.8175 *    -2.9392 *  0.0000     2          
   484  O     c    -11.7566 *     0.9797 *    -6.8580 *  0.0000     2          
   485  O     c    -11.7566 *     4.8986 *     4.8986 *  0.0000     2          
   486  O     c    -11.7566 *    -6.8580 *     0.9797 *  0.0000     2          
   487  Li    c    -11.7566 *     0.9797 *     6.8580 *  0.0000     2          
   488  Li    c    -11.7566 *     4.8986 *    -4.8986 *  0.0000     2          
   489  Li    c    -11.7566 *    -6.8580 *    -0.9797 *  0.0000     2          
   490  Li    c    -11.7566 *    -0.9797 *    -6.8580 *  0.0000     2          
   491  Li    c    -11.7566 *     6.8580 *     0.9797 *  0.0000     2          
   492  Li    c    -11.7566 *    -4.8986 *     4.8986 *  0.0000     2          
   493  O     c      0.0000       4.8986 *    12.7363 *  0.0000     1          
   494  O     c      0.0000      12.7363 *     4.8986 *  0.0000     1          
   495  O     c      3.9189 *    12.7363 *    -2.9392 *  0.0000     2          
   496  O     c      3.9189 *    -2.9392 *    12.7363 *  0.0000     2          
   497  O     c      7.8377 *     8.8175 *    -6.8580 *  0.0000     2          
   498  O     c      7.8377 *    -6.8580 *     8.8175 *  0.0000     2          
   499  Li    c      0.0000       4.8986 *   -12.7363 *  0.0000     1          
   500  Li    c      0.0000      12.7363 *    -4.8986 *  0.0000     1          
   501  Li    c      3.9189 *    12.7363 *     2.9392 *  0.0000     2          
   502  Li    c      3.9189 *    -2.9392 *   -12.7363 *  0.0000     2          
   503  Li    c      7.8377 *     8.8175 *     6.8580 *  0.0000     2          
   504  Li    c      7.8377 *    -6.8580 *    -8.8175 *  0.0000     2          
   505  Li    c      0.0000      -4.8986 *    12.7363 *  0.0000     1          
   506  Li    c      0.0000     -12.7363 *     4.8986 *  0.0000     1          
   507  Li    c      3.9189 *     2.9392 *    12.7363 *  0.0000     2          
   508  Li    c      3.9189 *   -12.7363 *    -2.9392 *  0.0000     2          
   509  Li    c      7.8377 *     6.8580 *     8.8175 *  0.0000     2          
   510  Li    c      7.8377 *    -8.8175 *    -6.8580 *  0.0000     2          
   511  O     c      7.8377 *    -2.9392 *   -10.7769 *  0.0000     2          
   512  O     c      7.8377 *   -10.7769 *    -2.9392 *  0.0000     2          
   513  Li    c      7.8377 *    -2.9392 *    10.7769 *  0.0000     2          
   514  Li    c      7.8377 *   -10.7769 *     2.9392 *  0.0000     2          
   515  Li    c      7.8377 *     2.9392 *   -10.7769 *  0.0000     2          
   516  Li    c      7.8377 *    10.7769 *    -2.9392 *  0.0000     2          
   517  Cl    c    -13.7161 *    -0.9797 *    -0.9797 *  0.0000     2          
   518  Li    c    -13.7161 *     0.9797 *     0.9797 *  0.0000     2          
   519  Cl    c      1.9594 *    -4.8986 *   -12.7363 *  0.0000     2          
   520  Cl    c      1.9594 *   -12.7363 *    -4.8986 *  0.0000     2          
   521  Li    c      1.9594 *     4.8986 *    12.7363 *  0.0000     2          
   522  Li    c      1.9594 *    12.7363 *     4.8986 *  0.0000     2          
   523  Cl    c      5.8783 *    -8.8175 *    -8.8175 *  0.0000     2          
   524  Cl    c      9.7972 *     6.8580 *     6.8580 *  0.0000     2          
   525  Li    c      5.8783 *     8.8175 *     8.8175 *  0.0000     2          
   526  Li    c      9.7972 *    -6.8580 *    -6.8580 *  0.0000     2          
   527  O     c    -11.7566 *    -2.9392 *    -6.8580 *  0.0000     2          
   528  O     c    -11.7566 *    -6.8580 *    -2.9392 *  0.0000     2          
   529  Li    c    -11.7566 *    -2.9392 *     6.8580 *  0.0000     2          
   530  Li    c    -11.7566 *    -6.8580 *     2.9392 *  0.0000     2          
   531  Li    c    -11.7566 *     2.9392 *    -6.8580 *  0.0000     2          
   532  Li    c    -11.7566 *     6.8580 *    -2.9392 *  0.0000     2          
   533  O     c      0.0000       8.8175 *   -10.7769 *  0.0000     1          
   534  O     c      0.0000     -10.7769 *     8.8175 *  0.0000     1          
   535  Li    c      0.0000       8.8175 *    10.7769 *  0.0000     1          
   536  Li    c      0.0000     -10.7769 *    -8.8175 *  0.0000     1          
   537  Li    c      0.0000      10.7769 *     8.8175 *  0.0000     1          
   538  Li    c      0.0000      -8.8175 *   -10.7769 *  0.0000     1          
   539  Cl    c    -13.7161 *    -0.9797 *     2.9392 *  0.0000     2          
   540  Cl    c    -13.7161 *     2.9392 *    -0.9797 *  0.0000     2          
   541  Li    c    -13.7161 *     0.9797 *    -2.9392 *  0.0000     2          
   542  Li    c    -13.7161 *    -2.9392 *     0.9797 *  0.0000     2          
   543  Cl    c      5.8783 *    -0.9797 *   -12.7363 *  0.0000     2          
   544  Cl    c      5.8783 *   -12.7363 *    -0.9797 *  0.0000     2          
   545  Cl    c      9.7972 *    -4.8986 *    -8.8175 *  0.0000     2          
   546  Cl    c      9.7972 *    -8.8175 *    -4.8986 *  0.0000     2          
   547  Li    c      5.8783 *     0.9797 *    12.7363 *  0.0000     2          
   548  Li    c      5.8783 *    12.7363 *     0.9797 *  0.0000     2          
   549  Li    c      9.7972 *     4.8986 *     8.8175 *  0.0000     2          
   550  Li    c      9.7972 *     8.8175 *     4.8986 *  0.0000     2          
   551  Cl    c      1.9594 *    10.7769 *    -8.8175 *  0.0000     2          
   552  Cl    c      1.9594 *    -8.8175 *    10.7769 *  0.0000     2          
   553  Cl    c      5.8783 *    10.7769 *     6.8580 *  0.0000     2          
   554  Li    c      1.9594 *     8.8175 *   -10.7769 *  0.0000     2          
   555  Li    c      1.9594 *   -10.7769 *     8.8175 *  0.0000     2          
   556  Li    c      5.8783 *   -10.7769 *    -6.8580 *  0.0000     2          
   557  Cl    c      5.8783 *     6.8580 *    10.7769 *  0.0000     2          
   558  Li    c      5.8783 *    -6.8580 *   -10.7769 *  0.0000     2          
   559  O     c      3.9189 *     4.8986 *    12.7363 *  0.0000     2          
   560  O     c      3.9189 *    12.7363 *     4.8986 *  0.0000     2          
   561  Li    c      3.9189 *     4.8986 *   -12.7363 *  0.0000     2          
   562  Li    c      3.9189 *    12.7363 *    -4.8986 *  0.0000     2          
   563  Li    c      3.9189 *    -4.8986 *    12.7363 *  0.0000     2          
   564  Li    c      3.9189 *   -12.7363 *     4.8986 *  0.0000     2          
   565  O     c      7.8377 *     4.8986 *   -10.7769 *  0.0000     2          
   566  O     c      7.8377 *   -10.7769 *     4.8986 *  0.0000     2          
   567  Li    c      7.8377 *     4.8986 *    10.7769 *  0.0000     2          
   568  Li    c      7.8377 *   -10.7769 *    -4.8986 *  0.0000     2          
   569  Li    c      7.8377 *    10.7769 *     4.8986 *  0.0000     2          
   570  Li    c      7.8377 *    -4.8986 *   -10.7769 *  0.0000     2          
   571  Cl    c    -13.7161 *     2.9392 *     2.9392 *  0.0000     2          
   572  Li    c    -13.7161 *    -2.9392 *    -2.9392 *  0.0000     2          
   573  Cl    c      5.8783 *     2.9392 *   -12.7363 *  0.0000     2          
   574  Cl    c      5.8783 *   -12.7363 *     2.9392 *  0.0000     2          
   575  Li    c      5.8783 *    12.7363 *    -2.9392 *  0.0000     2          
   576  Li    c      5.8783 *    -2.9392 *    12.7363 *  0.0000     2          
   577  O     c    -11.7566 *     4.8986 *    -6.8580 *  0.0000     2          
   578  O     c    -11.7566 *    -6.8580 *     4.8986 *  0.0000     2          
   579  Li    c    -11.7566 *     4.8986 *     6.8580 *  0.0000     2          
   580  Li    c    -11.7566 *    -6.8580 *    -4.8986 *  0.0000     2          
   581  Li    c    -11.7566 *     6.8580 *     4.8986 *  0.0000     2          
   582  Li    c    -11.7566 *    -4.8986 *    -6.8580 *  0.0000     2          
   583  O     c      0.0000      12.7363 *    -6.8580 *  0.0000     1          
   584  O     c      0.0000      -6.8580 *    12.7363 *  0.0000     1          
   585  O     c      3.9189 *   -10.7769 *     8.8175 *  0.0000     2          
   586  Li    c      0.0000      12.7363 *     6.8580 *  0.0000     1          
   587  Li    c      0.0000      -6.8580 *   -12.7363 *  0.0000     1          
   588  Li    c      3.9189 *   -10.7769 *    -8.8175 *  0.0000     2          
   589  Li    c      0.0000       6.8580 *    12.7363 *  0.0000     1          
   590  Li    c      0.0000     -12.7363 *    -6.8580 *  0.0000     1          
   591  Li    c      3.9189 *    10.7769 *     8.8175 *  0.0000     2          
   592  O     c      3.9189 *     8.8175 *   -10.7769 *  0.0000     2          
   593  Li    c      3.9189 *     8.8175 *    10.7769 *  0.0000     2          
   594  Li    c      3.9189 *    -8.8175 *   -10.7769 *  0.0000     2          
   595  Cl    c    -13.7161 *    -0.9797 *    -4.8986 *  0.0000     2          
   596  Cl    c    -13.7161 *    -4.8986 *    -0.9797 *  0.0000     2          
   597  Li    c    -13.7161 *     0.9797 *     4.8986 *  0.0000     2          
   598  Li    c    -13.7161 *     4.8986 *     0.9797 *  0.0000     2          
   599  Cl    c      1.9594 *   -12.7363 *     6.8580 *  0.0000     2          
   600  Li    c      1.9594 *    12.7363 *    -6.8580 *  0.0000     2          
   601  Cl    c      1.9594 *     6.8580 *   -12.7363 *  0.0000     2          
   602  Cl    c      9.7972 *    -0.9797 *    10.7769 *  0.0000     2          
   603  Li    c      1.9594 *    -6.8580 *    12.7363 *  0.0000     2          
   604  Li    c      9.7972 *     0.9797 *   -10.7769 *  0.0000     2          
   605  Cl    c      9.7972 *    10.7769 *    -0.9797 *  0.0000     2          
   606  Li    c      9.7972 *   -10.7769 *     0.9797 *  0.0000     2          
   607  O     c    -11.7566 *     8.8175 *     0.9797 *  0.0000     2          
   608  Li    c    -11.7566 *     8.8175 *    -0.9797 *  0.0000     2          
   609  Li    c    -11.7566 *    -8.8175 *     0.9797 *  0.0000     2          
   610  O     c      7.8377 *     8.8175 *     8.8175 *  0.0000     2          
   611  O     c    -11.7566 *     0.9797 *     8.8175 *  0.0000     2          
   612  Li    c      7.8377 *     8.8175 *    -8.8175 *  0.0000     2          
   613  Li    c    -11.7566 *     0.9797 *    -8.8175 *  0.0000     2          
   614  Li    c      7.8377 *    -8.8175 *     8.8175 *  0.0000     2          
   615  Li    c    -11.7566 *    -0.9797 *     8.8175 *  0.0000     2          
   616  O     c      0.0000       0.9797 *   -14.6958 *  0.0000     1          
   617  O     c      0.0000     -14.6958 *     0.9797 *  0.0000     1          
   618  Li    c      0.0000       0.9797 *    14.6958 *  0.0000     1          
   619  Li    c      0.0000     -14.6958 *    -0.9797 *  0.0000     1          
   620  Li    c      0.0000      -0.9797 *   -14.6958 *  0.0000     1          
   621  Li    c      0.0000      14.6958 *     0.9797 *  0.0000     1          
   622  Cl    c    -13.7161 *     2.9392 *    -4.8986 *  0.0000     2          
   623  Cl    c    -13.7161 *    -4.8986 *     2.9392 *  0.0000     2          
   624  Li    c    -13.7161 *     4.8986 *    -2.9392 *  0.0000     2          
   625  Li    c    -13.7161 *    -2.9392 *     4.8986 *  0.0000     2          
   626  Cl    c      5.8783 *    -4.8986 *   -12.7363 *  0.0000     2          
   627  Cl    c      5.8783 *   -12.7363 *    -4.8986 *  0.0000     2          
   628  Cl    c      9.7972 *     6.8580 *    -8.8175 *  0.0000     2          
   629  Cl    c      9.7972 *    -8.8175 *     6.8580 *  0.0000     2          
   630  Li    c      5.8783 *     4.8986 *    12.7363 *  0.0000     2          
   631  Li    c      5.8783 *    12.7363 *     4.8986 *  0.0000     2          
   632  Li    c      9.7972 *     8.8175 *    -6.8580 *  0.0000     2          
   633  Li    c      9.7972 *    -6.8580 *     8.8175 *  0.0000     2          
   634  Cl    c      1.9594 *    -0.9797 *    14.6958 *  0.0000     2          
   635  Cl    c      1.9594 *    14.6958 *    -0.9797 *  0.0000     2          
   636  Cl    c      9.7972 *     2.9392 *    10.7769 *  0.0000     2          
   637  Li    c      1.9594 *     0.9797 *   -14.6958 *  0.0000     2          
   638  Li    c      1.9594 *   -14.6958 *     0.9797 *  0.0000     2          
   639  Li    c      9.7972 *    -2.9392 *   -10.7769 *  0.0000     2          
   640  Cl    c      9.7972 *    10.7769 *     2.9392 *  0.0000     2          
   641  Li    c      9.7972 *   -10.7769 *    -2.9392 *  0.0000     2          
   642  O     c    -11.7566 *     8.8175 *    -2.9392 *  0.0000     2          
   643  O     c    -11.7566 *    -2.9392 *     8.8175 *  0.0000     2          
   644  Li    c    -11.7566 *     8.8175 *     2.9392 *  0.0000     2          
   645  Li    c    -11.7566 *    -2.9392 *    -8.8175 *  0.0000     2          
   646  Li    c    -11.7566 *     2.9392 *     8.8175 *  0.0000     2          
   647  Li    c    -11.7566 *    -8.8175 *    -2.9392 *  0.0000     2          
   648  O     c      3.9189 *    12.7363 *    -6.8580 *  0.0000     2          
   649  O     c      7.8377 *     0.9797 *    12.7363 *  0.0000     2          
   650  O     c      7.8377 *    12.7363 *     0.9797 *  0.0000     2          
   651  Li    c      3.9189 *    12.7363 *     6.8580 *  0.0000     2          
   652  Li    c      7.8377 *     0.9797 *   -12.7363 *  0.0000     2          
[...]
   1031 x          5.878309      5.880337     0.002028    Cartesian    0.03
   1031 y          9.797182      9.800300     0.003117    Cartesian    0.03
   1031 z         -9.797182     -9.801668    -0.004486    Cartesian    0.05
   1032 x        -11.756619    -11.756107     0.000512    Cartesian   -0.00
   1032 y          0.000000      0.001284     0.001284    Cartesian    0.00
   1032 z         -3.918873     -3.920270    -0.001397    Cartesian    0.04
   1033 x        -11.756619    -11.756704    -0.000085    Cartesian    0.00
   1033 y         -3.918873     -3.917007     0.001866    Cartesian   -0.05
   1033 z          0.000000     -0.001315    -0.001315    Cartesian    0.00
   1034 x          3.918873      3.919604     0.000731    Cartesian    0.02
   1034 y        -11.756619    -11.758546    -0.001927    Cartesian    0.02
   1034 z          7.837746      7.837621    -0.000125    Cartesian   -0.00
   1035 x          3.918873      3.918856    -0.000017    Cartesian   -0.00
   1035 y          7.837746      7.839919     0.002173    Cartesian    0.03
   1035 z        -11.756619    -11.759139    -0.002520    Cartesian    0.02
   1036 x         11.756619     11.758743     0.002124    Cartesian    0.02
   1036 y          0.000000      0.001312     0.001312    Cartesian    0.00
   1036 z         11.756619     11.757004     0.000385    Cartesian    0.00
   1037 x         11.756619     11.756904     0.000285    Cartesian    0.00
   1037 y         11.756619     11.758675     0.002056    Cartesian    0.02
   1037 z          0.000000     -0.002215    -0.002215    Cartesian    0.00
   1038 x         -9.797182     -9.797530    -0.000347    Cartesian    0.00
   1038 y          9.797182      9.797781     0.000599    Cartesian    0.01
   1038 z          1.959436      1.958756    -0.000681    Cartesian   -0.03
   1039 x          9.797182      9.799341     0.002158    Cartesian    0.02
   1039 y          9.797182      9.799271     0.002089    Cartesian    0.02
   1039 z          9.797182      9.799066     0.001883    Cartesian    0.02
   1040 x         -9.797182     -9.798050    -0.000868    Cartesian    0.01
   1040 y          1.959436      1.959717     0.000280    Cartesian    0.01
   1040 z          9.797182      9.797923     0.000741    Cartesian    0.01
   1041 x          1.959436      1.959436     0.000000    Cartesian    0.00
   1041 y          1.959436      1.959705     0.000268    Cartesian    0.01
   1041 z        -13.716055    -13.718368    -0.002313    Cartesian    0.02
   1042 x          1.959436      1.959436     0.000000    Cartesian    0.00
   1042 y        -13.716055    -13.717281    -0.001226    Cartesian    0.01
   1042 z          1.959436      1.958802    -0.000635    Cartesian   -0.03
   1043 x        -11.756619    -11.755659     0.000960    Cartesian   -0.01
   1043 y          3.918873      3.920315     0.001442    Cartesian    0.04
   1043 z         -3.918873     -3.920483    -0.001610    Cartesian    0.04
   1044 x        -11.756619    -11.757298    -0.000679    Cartesian    0.01
   1044 y         -3.918873     -3.916896     0.001977    Cartesian   -0.05
   1044 z          3.918873      3.916978    -0.001895    Cartesian   -0.05
   1045 x          7.837746      7.838394     0.000648    Cartesian    0.01
   1045 y         -3.918873     -3.918263     0.000610    Cartesian   -0.02
   1045 z        -11.756619    -11.760060    -0.003441    Cartesian    0.03
   1046 x          7.837746      7.839753     0.002007    Cartesian    0.03
   1046 y        -11.756619    -11.757102    -0.000483    Cartesian    0.00
   1046 z         -3.918873     -3.922004    -0.003131    Cartesian    0.08
   1047 x         11.756619     11.757789     0.001170    Cartesian    0.01
   1047 y          7.837746      7.839963     0.002217    Cartesian    0.03
   1047 z         -7.837746     -7.841245    -0.003499    Cartesian    0.04
   1048 x         11.756619     11.758311     0.001692    Cartesian    0.01
   1048 y         -7.837746     -7.836234     0.001512    Cartesian   -0.02
   1048 z          7.837746      7.836387    -0.001359    Cartesian   -0.02
   1049 x          3.918873      3.919040     0.000167    Cartesian    0.00
   1049 y          0.000000      0.001333     0.001333    Cartesian    0.00
   1049 z         15.675492     15.675691     0.000199    Cartesian    0.00
   1050 x          3.918873      3.918691    -0.000182    Cartesian   -0.00
   1050 y         15.675492     15.675869     0.000377    Cartesian    0.00
   1050 z          0.000000     -0.001988    -0.001988    Cartesian    0.00
   1051 x         11.756619     11.758804     0.002185    Cartesian    0.02
   1051 y          3.918873      3.920539     0.001666    Cartesian    0.04
   1051 z         11.756619     11.757252     0.000633    Cartesian    0.01
   1052 x         11.756619     11.757138     0.000519    Cartesian    0.00
   1052 y         11.756619     11.758749     0.002130    Cartesian    0.02
   1052 z          3.918873      3.917219    -0.001654    Cartesian   -0.04
   1053 x         -9.797182     -9.797576    -0.000393    Cartesian    0.00
   1053 y          9.797182      9.797989     0.000807    Cartesian    0.01
   1053 z         -1.959436     -1.960240    -0.000804    Cartesian    0.04
   1054 x         -9.797182     -9.797624    -0.000441    Cartesian    0.00
   1054 y         -1.959436     -1.959047     0.000390    Cartesian   -0.02
   1054 z          9.797182      9.796603    -0.000579    Cartesian   -0.01
   1055 x          5.878309      5.879293     0.000984    Cartesian    0.02
   1055 y         13.716055     13.718060     0.002005    Cartesian    0.01
   1055 z         -5.878310     -5.880232    -0.001922    Cartesian    0.03
   1056 x          9.797182      9.797541     0.000359    Cartesian    0.00
   1056 y          1.959436      1.959790     0.000354    Cartesian    0.02
   1056 z         13.716055     13.716378     0.000322    Cartesian    0.00
   1057 x          9.797182      9.797694     0.000512    Cartesian    0.01
   1057 y         13.716055     13.717261     0.001206    Cartesian    0.01
   1057 z          1.959436      1.958686    -0.000751    Cartesian   -0.04
   1058 x          5.878309      5.877846    -0.000464    Cartesian   -0.01
   1058 y         -5.878310     -5.877891     0.000418    Cartesian   -0.01
   1058 z         13.716055     13.715672    -0.000384    Cartesian   -0.00
   1059 x          9.797182      9.798118     0.000935    Cartesian    0.01
   1059 y         -5.878310     -5.878742    -0.000432    Cartesian    0.01
   1059 z         -9.797182     -9.798813    -0.001630    Cartesian    0.02
   1060 x          9.797182      9.799141     0.001958    Cartesian    0.02
   1060 y         -9.797182     -9.798283    -0.001101    Cartesian    0.01
   1060 z         -5.878310     -5.880387    -0.002078    Cartesian    0.04
   1061 x          1.959436      1.959436     0.000000    Cartesian    0.00
   1061 y         -1.959436     -1.959845    -0.000408    Cartesian    0.02
   1061 z        -13.716055    -13.718068    -0.002013    Cartesian    0.01
   1062 x          1.959436      1.959436     0.000000    Cartesian    0.00
   1062 y        -13.716055    -13.717067    -0.001011    Cartesian    0.01
   1062 z         -1.959436     -1.960626    -0.001190    Cartesian    0.06
   1063 x          3.918873      3.918766    -0.000107    Cartesian   -0.00
   1063 y          3.918873      3.920166     0.001293    Cartesian    0.03
   1063 z         15.675492     15.675471    -0.000021    Cartesian   -0.00
   1064 x          3.918873      3.919211     0.000338    Cartesian    0.01
   1064 y         15.675492     15.676299     0.000807    Cartesian    0.01
   1064 z          3.918873      3.917424    -0.001449    Cartesian   -0.04
   1065 x          7.837746      7.838653     0.000907    Cartesian    0.01
   1065 y         11.756619     11.758720     0.002101    Cartesian    0.02
   1065 z         -7.837746     -7.840997    -0.003251    Cartesian    0.04
   1066 x          7.837746      7.838171     0.000425    Cartesian    0.01
   1066 y         -7.837746     -7.836819     0.000927    Cartesian   -0.01
   1066 z         11.756619     11.756997     0.000378    Cartesian    0.00
   1067 x         -9.797182     -9.797832    -0.000650    Cartesian    0.01
   1067 y         -5.878310     -5.878125     0.000185    Cartesian   -0.00
   1067 z         -5.878310     -5.878776    -0.000467    Cartesian    0.01
   1068 x          9.797182      9.797801     0.000619    Cartesian    0.01
   1068 y         13.716055     13.717084     0.001028    Cartesian    0.01
   1068 z         -1.959436     -1.960381    -0.000944    Cartesian    0.05
   1069 x          9.797182      9.797190     0.000008    Cartesian    0.00
   1069 y         -1.959436     -1.959175     0.000262    Cartesian   -0.01
   1069 z         13.716055     13.716070     0.000014    Cartesian    0.00
   1070 x          5.878309      5.878783     0.000473    Cartesian    0.01
   1070 y          1.959436      1.959715     0.000278    Cartesian    0.01
   1070 z        -13.716055    -13.718189    -0.002134    Cartesian    0.02
   1071 x          5.878309      5.878929     0.000619    Cartesian    0.01
   1071 y        -13.716055    -13.716677    -0.000621    Cartesian    0.00
   1071 z          1.959436      1.958932    -0.000504    Cartesian   -0.03
   1072 x          1.959436      1.959436     0.000000    Cartesian    0.00
   1072 y         -9.797182     -9.797904    -0.000721    Cartesian    0.01
   1072 z         -9.797182     -9.799726    -0.002543    Cartesian    0.03
   1073 x        -11.756619    -11.757109    -0.000490    Cartesian    0.00
   1073 y          0.000000      0.001230     0.001230    Cartesian    0.00
   1073 z          7.837746      7.836334    -0.001412    Cartesian   -0.02
   1074 x        -11.756619    -11.755861     0.000758    Cartesian   -0.01
   1074 y          7.837746      7.838624     0.000878    Cartesian    0.01
   1074 z          0.000000     -0.001358    -0.001358    Cartesian    0.00
   1075 x        -11.756619    -11.756644    -0.000025    Cartesian    0.00
   1075 y         -3.918873     -3.917538     0.001335    Cartesian   -0.03
   1075 z         -3.918873     -3.920014    -0.001141    Cartesian    0.03
   1076 x         11.756619     11.757890     0.001271    Cartesian    0.01
   1076 y         -3.918873     -3.918054     0.000819    Cartesian   -0.02
   1076 z         11.756619     11.756505    -0.000114    Cartesian   -0.00
   1077 x         11.756619     11.757410     0.000791    Cartesian    0.01
   1077 y         11.756619     11.758370     0.001751    Cartesian    0.01
   1077 z         -3.918873     -3.920276    -0.001403    Cartesian    0.04
   1078 x          3.918873      3.919233     0.000360    Cartesian    0.01
   1078 y         11.756619     11.759829     0.003210    Cartesian    0.03
   1078 z         11.756619     11.757122     0.000503    Cartesian    0.00
   1079 x         -9.797182     -9.797625    -0.000442    Cartesian    0.00
   1079 y          9.797182      9.797850     0.000667    Cartesian    0.01
   1079 z          5.878309      5.877676    -0.000633    Cartesian   -0.01
   1080 x          1.959436      1.959436     0.000000    Cartesian    0.00
   1080 y          9.797182      9.797325     0.000142    Cartesian    0.00
   1080 z         13.716055     13.716909     0.000854    Cartesian    0.01
   1081 x          1.959436      1.959436     0.000000    Cartesian    0.00
   1081 y         13.716055     13.717448     0.001393    Cartesian    0.01
   1081 z          9.797182      9.798901     0.001719    Cartesian    0.02
   1082 x         -9.797182     -9.797916    -0.000734    Cartesian    0.01
   1082 y          5.878309      5.878948     0.000638    Cartesian    0.01
   1082 z          9.797182      9.797305     0.000122    Cartesian    0.00
   1083 x          1.959436      1.959436     0.000000    Cartesian    0.00
   1083 y          5.878309      5.878655     0.000345    Cartesian    0.01
   1083 z        -13.716055    -13.717754    -0.001699    Cartesian    0.01
   1084 x          1.959436      1.959436     0.000000    Cartesian    0.00
   1084 y        -13.716055    -13.716573    -0.000518    Cartesian    0.00
   1084 z          5.878309      5.878285    -0.000024    Cartesian   -0.00
   1085 x          5.878309      5.878455     0.000145    Cartesian    0.00
   1085 y         -1.959436     -1.959504    -0.000067    Cartesian    0.00
   1085 z        -13.716055    -13.717534    -0.001479    Cartesian    0.01
   1086 x          5.878309      5.878803     0.000494    Cartesian    0.01
   1086 y        -13.716055    -13.716851    -0.000796    Cartesian    0.01
   1086 z         -1.959436     -1.960546    -0.001110    Cartesian    0.06
   1087 x        -11.756619    -11.756890    -0.000271    Cartesian    0.00
   1087 y          3.918873      3.919945     0.001072    Cartesian    0.03
   1087 z          7.837746      7.836596    -0.001150    Cartesian   -0.01
   1088 x        -11.756619    -11.756245     0.000374    Cartesian   -0.00
   1088 y          7.837746      7.838667     0.000921    Cartesian    0.01
   1088 z          3.918873      3.917515    -0.001358    Cartesian   -0.03
   1089 x          3.918873      3.919082     0.000209    Cartesian    0.01
   1089 y         -7.837746     -7.837851    -0.000105    Cartesian    0.00
   1089 z        -11.756619    -11.759970    -0.003351    Cartesian    0.03
   1090 x          3.918873      3.919150     0.000277    Cartesian    0.01
   1090 y        -11.756619    -11.756835    -0.000216    Cartesian    0.00
   1090 z         -7.837746     -7.841062    -0.003316    Cartesian    0.04
   1091 x          7.837746      7.838341     0.000595    Cartesian    0.01
   1091 y          7.837746      7.839260     0.001514    Cartesian    0.02
   1091 z        -11.756619    -11.759262    -0.002643    Cartesian    0.02
   1092 x          7.837746      7.839031     0.001285    Cartesian    0.02
   1092 y        -11.756619    -11.757361    -0.000742    Cartesian    0.01
   1092 z          7.837746      7.837798     0.000052    Cartesian    0.00
   1093 x          3.918873      3.918965     0.000092    Cartesian    0.00
   1093 y         15.675492     15.675674     0.000182    Cartesian    0.00
   1093 z         -3.918873     -3.920603    -0.001730    Cartesian    0.04
   1094 x          3.918873      3.918839    -0.000034    Cartesian   -0.00
   1094 y         -3.918873     -3.917860     0.001013    Cartesian   -0.03
   1094 z         15.675492     15.676145     0.000653    Cartesian    0.00
   1095 x          9.797182      9.797654     0.000471    Cartesian    0.00
   1095 y          5.878309      5.878820     0.000510    Cartesian    0.01
   1095 z         13.716055     13.716580     0.000525    Cartesian    0.00
   1096 x          9.797182      9.797850     0.000667    Cartesian    0.01
   1096 y         13.716055     13.716938     0.000882    Cartesian    0.01
   1096 z          5.878309      5.877928    -0.000382    Cartesian   -0.01
   1097 x          5.878309      5.878773     0.000463    Cartesian    0.01
   1097 y         -9.797182     -9.798163    -0.000980    Cartesian    0.01
   1097 z         -9.797182     -9.798524    -0.001342    Cartesian    0.01
   1098 x         17.634928     17.634602    -0.000326    Cartesian   -0.00
   1098 y          1.959436      1.959939     0.000503    Cartesian    0.03
   1098 z          1.959436      1.958706    -0.000731    Cartesian   -0.04
   1099 x         11.756619     11.758169     0.001550    Cartesian    0.01
   1099 y         -7.837746     -7.837240     0.000506    Cartesian   -0.01
   1099 z         -7.837746     -7.840169    -0.002423    Cartesian    0.03
   1100 x          7.837746      7.838066     0.000320    Cartesian    0.00
   1100 y          0.000000      0.000833     0.000833    Cartesian    0.00
   1100 z         15.675492     15.675676     0.000184    Cartesian    0.00
   1101 x          7.837746      7.837803     0.000057    Cartesian    0.00
   1101 y         15.675492     15.676016     0.000524    Cartesian    0.00
   1101 z          0.000000     -0.001127    -0.001127    Cartesian    0.00
   1102 x          5.878309      5.878291    -0.000018    Cartesian   -0.00
   1102 y          9.797182      9.797978     0.000795    Cartesian    0.01
   1102 z         13.716055     13.716583     0.000528    Cartesian    0.00
   1103 x          5.878309      5.878858     0.000549    Cartesian    0.01
   1103 y         13.716055     13.717311     0.001255    Cartesian    0.01
   1103 z          9.797182      9.797659     0.000476    Cartesian    0.00
   1104 x          9.797182      9.798052     0.000869    Cartesian    0.01
   1104 y         -9.797182     -9.797429    -0.000246    Cartesian    0.00
   1104 z          9.797182      9.797621     0.000438    Cartesian    0.00
   1105 x         -9.797182     -9.798095    -0.000913    Cartesian    0.01
   1105 y          1.959436      1.959539     0.000103    Cartesian    0.01
   1105 z         -9.797182     -9.799110    -0.001927    Cartesian    0.02
   1106 x         -9.797182     -9.797236    -0.000054    Cartesian    0.00
   1106 y         -9.797182     -9.796629     0.000554    Cartesian   -0.01
   1106 z          1.959436      1.959302    -0.000134    Cartesian   -0.01
   1107 x          5.878309      5.878361     0.000052    Cartesian    0.00
   1107 y          5.878309      5.878656     0.000346    Cartesian    0.01
   1107 z        -13.716055    -13.717178    -0.001122    Cartesian    0.01
   1108 x          5.878309      5.878800     0.000491    Cartesian    0.01
   1108 y        -13.716055    -13.716600    -0.000545    Cartesian    0.00
   1108 z          5.878309      5.878267    -0.000043    Cartesian   -0.00
   1109 x          9.797182      9.797953     0.000771    Cartesian    0.01
   1109 y          9.797182      9.798207     0.001025    Cartesian    0.01
   1109 z         -9.797182     -9.798623    -0.001440    Cartesian    0.01
   1110 x         17.634928     17.634765    -0.000163    Cartesian   -0.00
   1110 y          1.959436      1.959888     0.000451    Cartesian    0.02
   1110 z         -1.959436     -1.959727    -0.000291    Cartesian    0.01
   1111 x         17.634928     17.634796    -0.000132    Cartesian   -0.00
   1111 y         -1.959436     -1.958942     0.000495    Cartesian   -0.03
   1111 z          1.959436      1.958946    -0.000491    Cartesian   -0.03
--------------------------------------------------------------------------------


  Time to end of optimisation  =      240.0720 seconds


  Peak dynamic memory used =    1202.76 MB 


  Timing analysis for GULP :

--------------------------------------------------------------------------------
  Task / Subroutine                                          Time (Seconds)
--------------------------------------------------------------------------------
  Calculation of reciprocal space energy and derivatives          0.0002
  Calculation of reciprocal space energy using symmetry           0.0001
  Calculation of real space energy and derivatives                0.0015
  Calculation of real space energy using symmetry                 0.0011
  Calculation for region 1 energy and derivatives (2-b)         128.8571
  Calculation for region 2a energy                               71.3854
  Calculation and manipulation of Hessian matrix                  1.2779
  Calculation of matrix inversion                                37.5105
  Symmetry generation of equivalent positions                     0.0016
--------------------------------------------------------------------------------
  Total CPU time                                                240.0721
--------------------------------------------------------------------------------


  Dump file written as Li3OCl.grs


  Job Finished at 12:33.15  1st December   2020                               

