********************************************************************************
*                       GENERAL UTILITY LATTICE PROGRAM                        *
*                                 Julian Gale                                  *
*                       Curtin Institute for Computation                       *
*                    School of Molecular and Life Sciences                     *
*                    Curtin University, Western Australia                      *
********************************************************************************
* Version = 5.2.0 * Last modified =  10th September 2020                       *
********************************************************************************
*  optimise     - perform optimisation run                                     *
*  conp         - constant pressure calculation                                *
*  property     - calculate properties for final geometry                      *
*  defect       - perform defect calculation after bulk run                    *
*  compare      - compare initial and final structures                         *
********************************************************************************

  Job Started  at 12:29.04  1st December   2020                               

  Number of CPUs =     1


  Total number of configurations input =      1

********************************************************************************
*  Input for Configuration =   1                                               *
********************************************************************************

  Formula = ClOLi3                                                      

  Number of irreducible atoms/shells =       5


  Total number atoms/shells =       7

  Dimensionality = 3               :  Bulk   


  Symmetry :

  Crystal family                   :  Cubic       
  Crystal class  (Groth - 1921)    :  Cubic Hexakisoctahedral              

  Space group (centrosymmetric)    :  P M 3 M         

  Patterson group                  :  P m -3 m 

  Cartesian lattice vectors (Angstroms) :

        3.918873    0.000000    0.000000
        0.000000    3.918873    0.000000
        0.000000    0.000000    3.918873

  Cell parameters (Angstroms/Degrees):

  a =       3.9189    alpha =  90.0000
  b =       3.9189    beta  =  90.0000
  c =       3.9189    gamma =  90.0000

  Initial cell volume =          60.184349 Angs**3

  Temperature of configuration =   0.00     K 

  Pressure of configuration =         0.000 GPa 

  Fractional coordinates of asymmetric unit :

--------------------------------------------------------------------------------
   No.  Atomic       x           y          z         Charge      Occupancy
        Label      (Frac)      (Frac)     (Frac)        (e)         (Frac)  
--------------------------------------------------------------------------------
      1 Cl    c    0.000000    0.000000    0.000000     1.48500    1.000000    
      2 O     c    0.500000    0.500000    0.500000     0.18300    1.000000    
      3 Li    c    0.500000    0.500000    0.000000     1.00000    1.000000    
      4 Cl    s    0.000000    0.000000    0.000000    -2.48500    1.000000    
      5 O     s    0.500000    0.500000    0.500000    -2.18300    1.000000    
--------------------------------------------------------------------------------


  Constraints : 

--------------------------------------------------------------------------------
  Constraint no.      Unconstrained     Constrained    Coefficient    Offset
                         Variable         Variable
--------------------------------------------------------------------------------
           1              Strain 1        Strain 2       1.00000      0.0000
           2              Strain 1        Strain 3       1.00000      0.0000
--------------------------------------------------------------------------------


********************************************************************************
*  General input information                                                   *
********************************************************************************

  Species output for all configurations : 

--------------------------------------------------------------------------------
  Species    Type    Atomic    Atomic    Charge       Radii (Angs)     Library
                     Number     Mass       (e)     Cova   Ionic  VDW   Symbol
--------------------------------------------------------------------------------
    Li       Core        3       6.94   1.000000   0.680  0.000  1.800          
    O        Core        8      16.00   0.183000   0.730  0.000  1.360          
    O        Shell       8       0.00  -2.183000   0.730  0.000  1.360          
    Cl       Core       17      35.45   1.485000   0.990  0.000  1.650          
    Cl       Shell      17       0.00  -2.485000   0.990  0.000  1.650          
    Mg       Core       12      24.31   0.415000   1.100  0.000  0.000          
    Mg       Shell      12       0.00   1.585000   1.100  0.000  0.000          
    Ca       Core       20      40.08  -1.135000   0.990  0.000  0.000          
    Ca       Shell      20       0.00   3.135000   0.990  0.000  0.000          
    Sr       Core       38      87.62  -1.251000   1.120  0.000  0.000          
    Sr       Shell      38       0.00   3.251000   1.120  0.000  0.000          
    Ba       Core       56     137.33  -7.203000   1.340  0.000  0.000          
    Ba       Shell      56       0.00   9.203000   1.340  0.000  0.000          
--------------------------------------------------------------------------------


  Lattice summation method               =    Ewald          (3-D)
                                         =    Parry          (2-D)
                                         =    Saunders et al (1-D)
  Accuracy factor for lattice sums       =   12.000


  Analytic derivatives to be used

  Time limit = Infinity

  Maximum range for interatomic potentials =    100000.000000 Angstroms

  General interatomic potentials :

--------------------------------------------------------------------------------
Atom  Types   Potential      Parameter       Value         Units   Cutoffs(Ang)
  1     2                                                            Min /  Max 
--------------------------------------------------------------------------------
O    c O    s Spring (c-s)  Spring k 2       593.71600    eV*Ang^-2 0.000  0.800
                            Spring k 4       0.0000000    eV*Ang^-4 
--------------------------------------------------------------------------------
Cl   c Cl   s Spring (c-s)  Spring k 2       29.380000    eV*Ang^-2 0.000  0.800
                            Spring k 4       0.0000000    eV*Ang^-4 
--------------------------------------------------------------------------------
Mg   c Mg   s Spring (c-s)  Spring k 2       361.60000    eV*Ang^-2 0.000  0.800
                            Spring k 4       0.0000000    eV*Ang^-4 
--------------------------------------------------------------------------------
Ca   c Ca   s Spring (c-s)  Spring k 2       110.20000    eV*Ang^-2 0.000  0.800
                            Spring k 4       0.0000000    eV*Ang^-4 
--------------------------------------------------------------------------------
Sr   c Sr   s Spring (c-s)  Spring k 2       71.700000    eV*Ang^-2 0.000  0.800
                            Spring k 4       0.0000000    eV*Ang^-4 
--------------------------------------------------------------------------------
Ba   c Ba   s Spring (c-s)  Spring k 2       495.20000    eV*Ang^-2 0.000  0.800
                            Spring k 4       0.0000000    eV*Ang^-4 
--------------------------------------------------------------------------------
Li   c Li   c Buckingham    Buckingham A     360.53000    eV        0.000 12.000
                            Buckingham rho  0.16100000    Ang       
                            Buckingham C     0.0000000    eV*Ang^6  
--------------------------------------------------------------------------------
Li   c O    s Buckingham    Buckingham A     292.30000    eV        0.000 12.000
                            Buckingham rho  0.34700000    Ang       
                            Buckingham C     0.0000000    eV*Ang^6  
--------------------------------------------------------------------------------
Li   c Cl   s Buckingham    Buckingham A     421.04000    eV        0.000 12.000
                            Buckingham rho  0.33400000    Ang       
                            Buckingham C     0.0000000    eV*Ang^6  
--------------------------------------------------------------------------------
O    s O    s Buckingham    Buckingham A     22764.300    eV        0.000 12.000
                            Buckingham rho  0.14900000    Ang       
                            Buckingham C     13.190000    eV*Ang^6  
--------------------------------------------------------------------------------
O    s Cl   s Buckingham    Buckingham A     8286.9100    eV        0.000 12.000
                            Buckingham rho  0.25900000    Ang       
                            Buckingham C     62.200000    eV*Ang^6  
--------------------------------------------------------------------------------
Cl   s Cl   s Buckingham    Buckingham A     1227.2000    eV        0.000 12.000
                            Buckingham rho  0.32100000    Ang       
                            Buckingham C     14.530000    eV*Ang^6  
--------------------------------------------------------------------------------
O    s Mg   s Buckingham    Buckingham A     1428.5000    eV        0.000 12.000
                            Buckingham rho  0.29450000    Ang       
                            Buckingham C     0.0000000    eV*Ang^6  
--------------------------------------------------------------------------------
Mg   s Cl   s Buckingham    Buckingham A     4914.5400    eV        0.000 12.000
                            Buckingham rho  0.25700000    Ang       
                            Buckingham C     0.0000000    eV*Ang^6  
--------------------------------------------------------------------------------
O    s Ca   s Buckingham    Buckingham A     1090.4000    eV        0.000 12.000
                            Buckingham rho  0.34370000    Ang       
                            Buckingham C     0.0000000    eV*Ang^6  
--------------------------------------------------------------------------------
Cl   s Ca   s Buckingham    Buckingham A     2302.0000    eV        0.000 12.000
                            Buckingham rho  0.34020000    Ang       
                            Buckingham C     0.0000000    eV*Ang^6  
--------------------------------------------------------------------------------
O    s Sr   s Buckingham    Buckingham A     959.10000    eV        0.000 12.000
                            Buckingham rho  0.37210000    Ang       
                            Buckingham C     0.0000000    eV*Ang^6  
--------------------------------------------------------------------------------
Cl   s Sr   s Buckingham    Buckingham A     2191.0900    eV        0.000 12.000
                            Buckingham rho  0.34570000    Ang       
                            Buckingham C     0.0000000    eV*Ang^6  
--------------------------------------------------------------------------------
O    s Ba   s Buckingham    Buckingham A     905.70000    eV        0.000 12.000
                            Buckingham rho  0.39760000    Ang       
                            Buckingham C     0.0000000    eV*Ang^6  
--------------------------------------------------------------------------------
Cl   s Ba   s Buckingham    Buckingham A     2704.5500    eV        0.000 12.000
                            Buckingham rho  0.35280000    Ang       
                            Buckingham C     0.0000000    eV*Ang^6  
--------------------------------------------------------------------------------

********************************************************************************
*  Output for configuration   1                                                *
********************************************************************************


  Components of energy : 

--------------------------------------------------------------------------------
  Interatomic potentials     =           7.24802695 eV    
  Monopole - monopole (real) =         -11.53475722 eV    
  Monopole - monopole (recip)=         -33.94580548 eV    
  Monopole - monopole (total)=         -45.48056271 eV    
--------------------------------------------------------------------------------
  Total lattice energy       =         -38.23253575 eV    
--------------------------------------------------------------------------------
  Total lattice energy       =           -3688.8553 kJ/(mole unit cells)
--------------------------------------------------------------------------------


  Number of variables =        1

  Maximum number of calculations  =          1000
  Maximum Hessian update interval =            10
  Maximum step size               =   1.000000000
  Maximum parameter tolerance     =   0.000010000
  Maximum function  tolerance     =   0.000010000
  Maximum gradient  tolerance     =   0.001000000
  Maximum gradient  component     =   0.010000000

  Symmetry constrained optimisation

  Symmetry used for second derivatives

  Cell parameters to be optimised using strains

  Newton-Raphson optimiser to be used

  BFGS hessian update to be used

  Lower half triangular hessian to be used

  Start of bulk optimisation :

  Cycle:      0 Energy:       -38.232536  Gnorm:      0.000019  CPU:    0.008


  **** Optimisation achieved ****


  Final energy =     -38.23253575 eV
  Final Gnorm  =       0.00001878

  Components of energy : 

--------------------------------------------------------------------------------
  Interatomic potentials     =           7.24802695 eV    
  Monopole - monopole (real) =         -11.53475722 eV    
  Monopole - monopole (recip)=         -33.94580548 eV    
  Monopole - monopole (total)=         -45.48056271 eV    
--------------------------------------------------------------------------------
  Total lattice energy       =         -38.23253575 eV    
--------------------------------------------------------------------------------
  Total lattice energy       =           -3688.8553 kJ/(mole unit cells)
--------------------------------------------------------------------------------

  Final asymmetric unit coordinates :

--------------------------------------------------------------------------------
   No.  Atomic        x           y           z         Radius
        Label       (Frac)      (Frac)      (Frac)       (Angs) 
--------------------------------------------------------------------------------
     1  Cl    c     0.000000    0.000000    0.000000    0.000000
     2  O     c     0.500000    0.500000    0.500000    0.000000
     3  Li    c     0.500000    0.500000    0.000000    0.000000
     4  Cl    s     0.000000    0.000000    0.000000    0.000000
     5  O     s     0.500000    0.500000    0.500000    0.000000
--------------------------------------------------------------------------------

  Final Cartesian lattice vectors (Angstroms) :

        3.918873    0.000000    0.000000
        0.000000    3.918873    0.000000
        0.000000    0.000000    3.918873


  Final cell parameters and derivatives :

--------------------------------------------------------------------------------
       a            3.918873 Angstrom     dE/de1(xx)    -0.000019 eV/strain
       b            3.918873 Angstrom     dE/de2(yy)     0.000000 eV/strain
       c            3.918873 Angstrom     dE/de3(zz)     0.000000 eV/strain
       alpha       90.000000 Degrees      dE/de4(yz)     0.000000 eV/strain
       beta        90.000000 Degrees      dE/de5(xz)     0.000000 eV/strain
       gamma       90.000000 Degrees      dE/de6(xy)     0.000000 eV/strain
--------------------------------------------------------------------------------

  Primitive cell volume =            60.184349 Angs**3

  Density of cell =      1.994024 g/cm**3

  Non-primitive cell volume =            60.184349 Angs**3


  Final internal derivatives :

--------------------------------------------------------------------------------
   No.  Atomic          a             b             c           Radius
        Label          (eV)          (eV)          (eV)        (eV/Angs)
--------------------------------------------------------------------------------
      1 Cl    c       0.000000      0.000000      0.000000      0.000000
      2 O     c       0.000000      0.000000      0.000000      0.000000
      3 Li    c       0.000000      0.000000      0.000000      0.000000
      4 Cl    s       0.000000      0.000000      0.000000      0.000000
      5 O     s       0.000000      0.000000      0.000000      0.000000
--------------------------------------------------------------------------------
  Maximum abs         0.000000      0.000000      0.000000      0.000000
--------------------------------------------------------------------------------

  Comparison of initial and final structures : 

--------------------------------------------------------------------------------
  Parameter   Initial value   Final value   Difference    Units      Percent
--------------------------------------------------------------------------------
    Volume        60.184349     60.184349     0.000000    Angs**3      0.00
    a              3.918873      3.918873     0.000000    Angstroms    0.00
    b              3.918873      3.918873     0.000000    Angstroms    0.00
    c              3.918873      3.918873     0.000000    Angstroms    0.00
    alpha         90.000000     90.000000     0.000000    Degrees      0.00
    beta          90.000000     90.000000     0.000000    Degrees      0.00
    gamma         90.000000     90.000000     0.000000    Degrees      0.00
      1 x          0.000000      0.000000     0.000000    Fractional   0.00
      1 y          0.000000      0.000000     0.000000    Fractional   0.00
      1 z          0.000000      0.000000     0.000000    Fractional   0.00
      2 x          0.500000      0.500000     0.000000    Fractional   0.00
      2 y          0.500000      0.500000     0.000000    Fractional   0.00
      2 z          0.500000      0.500000     0.000000    Fractional   0.00
      3 x          0.500000      0.500000     0.000000    Fractional   0.00
      3 y          0.500000      0.500000     0.000000    Fractional   0.00
      3 z          0.000000      0.000000     0.000000    Fractional   0.00
      4 x          0.000000      0.000000     0.000000    Fractional   0.00
      4 y          0.000000      0.000000     0.000000    Fractional   0.00
      4 z          0.000000      0.000000     0.000000    Fractional   0.00
      5 x          0.500000      0.500000     0.000000    Fractional   0.00
      5 y          0.500000      0.500000     0.000000    Fractional   0.00
      5 z          0.500000      0.500000     0.000000    Fractional   0.00
--------------------------------------------------------------------------------


  Born effective charge tensors : 

-------------------------------------------------------------------------------
  Atom             x           y             z
-------------------------------------------------------------------------------
    1 Cl    x      -0.9481      0.0000      0.0000
            y       0.0000     -0.9481      0.0000
            z       0.0000      0.0000     -0.9481
-------------------------------------------------------------------------------
    2 O     x      -2.4696     -0.0000     -0.0000
            y      -0.0000     -2.4696     -0.0000
            z      -0.0000     -0.0000     -2.4696
-------------------------------------------------------------------------------
    3 Li    x       1.3129     -0.0000     -0.0000
            y      -0.0000      1.3129      0.0000
            z      -0.0000     -0.0000      0.7918
-------------------------------------------------------------------------------




  Elastic Constant Matrix: (Units=GPa)

-------------------------------------------------------------------------------
  Indices      1         2         3         4         5         6    
-------------------------------------------------------------------------------
       1     94.4615   45.0779   45.0779    0.0000   -0.0000    0.0000
       2     45.0779   94.4615   45.0779   -0.0000    0.0000   -0.0000
       3     45.0779   45.0779   94.4615   -0.0000   -0.0000   -0.0000
       4      0.0000   -0.0000   -0.0000   45.0779   -0.0000   -0.0000
       5     -0.0000    0.0000   -0.0000   -0.0000   45.0779   -0.0000
       6      0.0000   -0.0000   -0.0000   -0.0000   -0.0000   45.0779
-------------------------------------------------------------------------------


  Elastic Compliance Matrix: (Units=1/GPa)

-------------------------------------------------------------------------------
  Indices      1         2         3         4         5         6    
-------------------------------------------------------------------------------
       1    0.015305 -0.004944 -0.004944 -0.000000  0.000000 -0.000000
       2   -0.004944  0.015305 -0.004944  0.000000 -0.000000  0.000000
       3   -0.004944 -0.004944  0.015305  0.000000  0.000000  0.000000
       4   -0.000000  0.000000  0.000000  0.022184  0.000000  0.000000
       5    0.000000 -0.000000  0.000000  0.000000  0.022184  0.000000
       6   -0.000000  0.000000  0.000000  0.000000  0.000000  0.022184
-------------------------------------------------------------------------------

  Mechanical properties :

-------------------------------------------------------------------------------
  Convention :                    Reuss         Voigt         Hill
-------------------------------------------------------------------------------
  Bulk  Modulus (GPa)     =      61.53912      61.53912      61.53912
  Shear Modulus (GPa)     =      33.88682      36.92346      35.40514
-------------------------------------------------------------------------------
  Velocity S-wave (km/s)  =       4.12240       4.30314       4.21374
  Velocity P-wave (km/s)  =       7.31578       7.45327       7.38484
-------------------------------------------------------------------------------
  Compressibility (1/GPa) =    0.01624983
-------------------------------------------------------------------------------
  Stress axis :                     x             y             z
-------------------------------------------------------------------------------
  Youngs Moduli (GPa)     =      65.33688      65.33688      65.33688
-------------------------------------------------------------------------------
  Poissons Ratio (x)      =                     0.32305       0.32305
  Poissons Ratio (y)      =       0.32305                     0.32305
  Poissons Ratio (z)      =       0.32305       0.32305
-------------------------------------------------------------------------------


  Piezoelectric Strain Matrix: (Units=C/m**2)

-------------------------------------------------------------------------------
  Indices      1         2         3         4         5         6    
-------------------------------------------------------------------------------
       x    -0.00000   0.00000   0.00000   0.00000   0.00000   0.00000
       y    -0.00000  -0.00000  -0.00000   0.00000   0.00000  -0.00000
       z    -0.00000  -0.00000   0.00000   0.00000  -0.00000   0.00000
-------------------------------------------------------------------------------


  Piezoelectric Stress Matrix: (Units=10**-11 C/N)

-------------------------------------------------------------------------------
  Indices      1         2         3         4         5         6    
-------------------------------------------------------------------------------
       x    -0.00000   0.00000   0.00000   0.00000   0.00000   0.00000
       y     0.00000   0.00000  -0.00000   0.00000   0.00000  -0.00000
       z    -0.00000  -0.00000   0.00000   0.00000  -0.00000   0.00000
-------------------------------------------------------------------------------


  Static dielectric constant tensor : 

-------------------------------------------------------------------------------
              x         y         z
-------------------------------------------------------------------------------
       x    12.07041   0.00000   0.00000
       y     0.00000  12.07041   0.00000
       z     0.00000   0.00000  12.07041
--------------------------------------------------------------------------------

  High frequency dielectric constant tensor : 

-------------------------------------------------------------------------------
              x         y         z
-------------------------------------------------------------------------------
       x     1.74197  -0.00000  -0.00000
       y    -0.00000   1.74197  -0.00000
       z    -0.00000  -0.00000   1.74197
-------------------------------------------------------------------------------

  Static refractive indices : 

-------------------------------------------------------------------------------
    1 =    3.47425      2 =    3.47425      3 =    3.47425
-------------------------------------------------------------------------------

  High frequency refractive indices : 

-------------------------------------------------------------------------------
    1 =    1.31984      2 =    1.31984      3 =    1.31984
-------------------------------------------------------------------------------


  Time to end of optimisation =       0.0123 seconds

********************************************************************************
*  Defect calculation for configuration   1 :                                  *
********************************************************************************

  Total number of defects =      1

  Total charge on defect  =   1.00

  Defect centre is at   0.5000   0.5000   0.0000  Frac

  Region 1 radius =  16.0000      Number of ions =   2034

  Number of symmetry inequivalent region 1 ions  =    196

  Region 2 radius =  20.0000      Number of ions =   1870

  Number of symmetry inequivalent region 2a ions =    153

  Region 2a mode = 4 : screened electrostatics due to region 1 
                       neglect correction to region 1 forces from 2a
                       region 2a displacements based on defects only

  Region 2a ions will only interact with defects in region 1

  Impurities:

--------------------------------------------------------------------------------
    Specification type     Symbol/Number         x          y          z
--------------------------------------------------------------------------------
    Frac/Symbol             Ba               0.500000   0.500000   0.000000
--------------------------------------------------------------------------------


  Symmetry reduced region 1 (Relative to defect centre) :

--------------------------------------------------------------------------------
   No.   Atomic       x            y             z       Radius  Multiplicity   
         Label      (Angs)       (Angs)        (Angs)    (Angs)     
--------------------------------------------------------------------------------
     1  Ba    c      0.0000       0.0000       0.0000    0.0000     1    Defect
     2  O     c      0.0000       0.0000      -1.9594 *  0.0000     2          
     3  Cl    c      1.9594 *     1.9594       0.0000    0.0000     4          
     4  Li    c      1.9594 *     0.0000      -1.9594 *  0.0000     8          
     5  Li    c      0.0000       0.0000       3.9189 *  0.0000     2          
     6  Li    c      0.0000       3.9189 *     0.0000    0.0000     4          
     7  O     c      0.0000       3.9189 *    -1.9594 *  0.0000     8          
     8  Cl    c      1.9594 *     1.9594       3.9189 *  0.0000     8          
     9  Li    c      1.9594 *     3.9189 *    -1.9594 *  0.0000    16          
    10  Li    c      0.0000       3.9189 *     3.9189 *  0.0000     8          
    11  Li    c      3.9189 *     3.9189       0.0000    0.0000     4          
    12  O     c      0.0000       0.0000       5.8783 *  0.0000     2          
    13  O     c      3.9189 *     3.9189      -1.9594 *  0.0000     8          
    14  Cl    c      1.9594 *     5.8783 *     0.0000    0.0000     8          
    15  Li    c      1.9594 *     0.0000       5.8783 *  0.0000     8          
    16  Li    c      5.8783 *     0.0000      -1.9594 *  0.0000     8          
    17  Li    c      3.9189 *     3.9189       3.9189 *  0.0000     8          
    18  O     c      0.0000       3.9189 *     5.8783 *  0.0000     8          
    19  Cl    c      1.9594 *     5.8783 *     3.9189 *  0.0000    16          
    20  Li    c      1.9594 *     3.9189 *     5.8783 *  0.0000    16          
    21  Li    c      5.8783 *     3.9189 *    -1.9594 *  0.0000    16          
    22  Li    c      0.0000       7.8377 *     0.0000    0.0000     4          
    23  Li    c      0.0000       0.0000       7.8377 *  0.0000     2          
    24  O     c      0.0000       7.8377 *    -1.9594 *  0.0000     8          
    25  O     c      3.9189 *     3.9189       5.8783 *  0.0000     8          
    26  Li    c      1.9594 *     7.8377 *    -1.9594 *  0.0000    16          
    27  Cl    c      1.9594 *     1.9594       7.8377 *  0.0000     8          
    28  Cl    c      5.8783 *     5.8783       0.0000    0.0000     4          
    29  Li    c      5.8783 *     0.0000       5.8783 *  0.0000     8          
    30  Li    c      0.0000       7.8377 *     3.9189 *  0.0000     8          
    31  Li    c      3.9189 *     7.8377 *     0.0000    0.0000     8          
    32  Li    c      0.0000       3.9189 *     7.8377 *  0.0000     8          
    33  O     c      3.9189 *     7.8377 *    -1.9594 *  0.0000    16          
    34  Cl    c      5.8783 *     5.8783       3.9189 *  0.0000     8          
    35  Li    c      5.8783 *     3.9189 *     5.8783 *  0.0000    16          
    36  Li    c      3.9189 *     7.8377 *     3.9189 *  0.0000    16          
    37  Li    c      3.9189 *     3.9189       7.8377 *  0.0000     8          
    38  O     c      0.0000       0.0000       9.7972 *  0.0000     2          
    39  O     c      0.0000       7.8377 *     5.8783 *  0.0000     8          
    40  Cl    c      1.9594 *     5.8783 *     7.8377 *  0.0000    16          
    41  Cl    c      1.9594 *     9.7972 *     0.0000    0.0000     8          
    42  Li    c      1.9594 *     0.0000       9.7972 *  0.0000     8          
    43  Li    c      1.9594 *     7.8377 *     5.8783 *  0.0000    16          
    44  Li    c      5.8783 *     7.8377 *    -1.9594 *  0.0000    16          
    45  Li    c      9.7972 *     0.0000      -1.9594 *  0.0000     8          
    46  O     c      0.0000       3.9189 *     9.7972 *  0.0000     8          
    47  O     c      3.9189 *     7.8377 *     5.8783 *  0.0000    16          
    48  Li    c      1.9594 *     3.9189 *     9.7972 *  0.0000    16          
    49  Cl    c      1.9594 *     9.7972 *     3.9189 *  0.0000    16          
    50  Li    c      9.7972 *     3.9189 *    -1.9594 *  0.0000    16          
    51  Li    c      7.8377 *     7.8377       0.0000    0.0000     4          
    52  Li    c      0.0000       7.8377 *     7.8377 *  0.0000     8          
    53  O     c      7.8377 *     7.8377      -1.9594 *  0.0000     8          
    54  O     c      3.9189 *     3.9189       9.7972 *  0.0000     8          
    55  Cl    c      5.8783 *     5.8783       7.8377 *  0.0000     8          
    56  Cl    c      5.8783 *     9.7972 *     0.0000    0.0000     8          
    57  Li    c      5.8783 *     0.0000       9.7972 *  0.0000     8          
    58  Li    c      5.8783 *     7.8377 *     5.8783 *  0.0000    16          
    59  Li    c      9.7972 *     0.0000       5.8783 *  0.0000     8          
    60  Li    c      0.0000     -11.7566 *     0.0000    0.0000     4          
    61  Li    c      3.9189 *     7.8377 *     7.8377 *  0.0000    16          
    62  Li    c      7.8377 *     7.8377       3.9189 *  0.0000     8          
    63  Li    c      0.0000       0.0000      11.7566 *  0.0000     2          
    64  O     c      0.0000     -11.7566 *    -1.9594 *  0.0000     8          
    65  Li    c      1.9594 *   -11.7566 *    -1.9594 *  0.0000    16          
    66  Cl    c      5.8783 *     9.7972 *     3.9189 *  0.0000    16          
    67  Li    c      5.8783 *     3.9189 *     9.7972 *  0.0000    16          
    68  Li    c      9.7972 *     3.9189 *     5.8783 *  0.0000    16          
    69  Cl    c      1.9594 *     1.9594      11.7566 *  0.0000     8          
    70  Li    c      0.0000     -11.7566 *     3.9189 *  0.0000     8          
    71  Li    c      3.9189 *   -11.7566 *     0.0000    0.0000     8          
    72  Li    c      0.0000       3.9189 *    11.7566 *  0.0000     8          
    73  O     c      3.9189 *   -11.7566 *    -1.9594 *  0.0000    16          
    74  O     c      0.0000       7.8377 *     9.7972 *  0.0000     8          
    75  O     c      7.8377 *     7.8377       5.8783 *  0.0000     8          
    76  Li    c      1.9594 *     7.8377 *     9.7972 *  0.0000    16          
    77  Li    c      9.7972 *     7.8377 *    -1.9594 *  0.0000    16          
    78  Cl    c      1.9594 *     9.7972 *     7.8377 *  0.0000    16          
    79  Li    c      3.9189 *   -11.7566 *     3.9189 *  0.0000    16          
    80  Li    c      3.9189 *     3.9189      11.7566 *  0.0000     8          
    81  O     c      0.0000     -11.7566 *     5.8783 *  0.0000     8          
    82  O     c      3.9189 *     7.8377 *     9.7972 *  0.0000    16          
    83  Li    c      1.9594 *   -11.7566 *     5.8783 *  0.0000    16          
    84  Li    c      5.8783 *   -11.7566 *    -1.9594 *  0.0000    16          
    85  Cl    c      1.9594 *     5.8783 *    11.7566 *  0.0000    16          
    86  Li    c      7.8377 *     7.8377       7.8377 *  0.0000     8          
    87  O     c      3.9189 *   -11.7566 *     5.8783 *  0.0000    16          
    88  O     c      0.0000       0.0000      13.7161 *  0.0000     2          
    89  Cl    c      1.9594 *   -13.7161 *     0.0000    0.0000     8          
    90  Li    c    -13.7161 *     0.0000      -1.9594 *  0.0000     8          
    91  Cl    c      9.7972 *     9.7972       0.0000    0.0000     4          
    92  Li    c      1.9594 *     0.0000      13.7161 *  0.0000     8          
    93  Li    c      5.8783 *     7.8377 *     9.7972 *  0.0000    16          
    94  Li    c      9.7972 *     0.0000       9.7972 *  0.0000     8          
    95  Li    c      9.7972 *     7.8377 *     5.8783 *  0.0000    16          
    96  Cl    c      5.8783 *     9.7972 *     7.8377 *  0.0000    16          
    97  Li    c      7.8377 *   -11.7566 *     0.0000    0.0000     8          
    98  Li    c      0.0000     -11.7566 *     7.8377 *  0.0000     8          
    99  Li    c      0.0000       7.8377 *    11.7566 *  0.0000     8          
   100  O     c      7.8377 *   -11.7566 *    -1.9594 *  0.0000    16          
   101  O     c      0.0000       3.9189 *    13.7161 *  0.0000     8          
   102  Cl    c      1.9594 *   -13.7161 *     3.9189 *  0.0000    16          
   103  Li    c    -13.7161 *     3.9189 *    -1.9594 *  0.0000    16          
   104  Li    c      5.8783 *   -11.7566 *     5.8783 *  0.0000    16          
   105  Cl    c      9.7972 *     9.7972       3.9189 *  0.0000     8          
   106  Li    c      9.7972 *     3.9189 *     9.7972 *  0.0000    16          
   107  Li    c      1.9594 *     3.9189 *    13.7161 *  0.0000    16          
   108  Cl    c      5.8783 *     5.8783      11.7566 *  0.0000     8          
   109  Li    c      7.8377 *   -11.7566 *     3.9189 *  0.0000    16          
   110  Li    c      3.9189 *   -11.7566 *     7.8377 *  0.0000    16          
   111  Li    c      3.9189 *     7.8377 *    11.7566 *  0.0000    16          
   112  O     c      7.8377 *     7.8377       9.7972 *  0.0000     8          
   113  O     c      3.9189 *     3.9189      13.7161 *  0.0000     8          
   114  Cl    c      5.8783 *   -13.7161 *     0.0000    0.0000     8          
   115  Li    c    -13.7161 *     0.0000       5.8783 *  0.0000     8          
   116  Li    c      5.8783 *     0.0000      13.7161 *  0.0000     8          
   117  O     c      0.0000     -11.7566 *     9.7972 *  0.0000     8          
   118  O     c      7.8377 *   -11.7566 *     5.8783 *  0.0000    16          
   119  Cl    c      5.8783 *   -13.7161 *     3.9189 *  0.0000    16          
   120  Li    c      9.7972 *   -11.7566 *    -1.9594 *  0.0000    16          
   121  Li    c    -13.7161 *     3.9189 *     5.8783 *  0.0000    16          
   122  Li    c      1.9594 *   -11.7566 *     9.7972 *  0.0000    16          
   123  Cl    c      1.9594 *     9.7972 *    11.7566 *  0.0000    16          
   124  Li    c      5.8783 *     3.9189 *    13.7161 *  0.0000    16          
   125  Li    c      0.0000       0.0000      15.6755 *  0.0000     2          
   126  Li    c      0.0000      15.6755 *     0.0000    0.0000     4          
   127  O     c      3.9189 *   -11.7566 *     9.7972 *  0.0000    16          
   128  O     c      0.0000       7.8377 *    13.7161 *  0.0000     8          
   129  O     c      0.0000      15.6755 *    -1.9594 *  0.0000     8          
   130  Li    c    -13.7161 *     7.8377 *    -1.9594 *  0.0000    16          
   131  Cl    c      1.9594 *   -13.7161 *     7.8377 *  0.0000    16          
   132  Li    c      1.9594 *     7.8377 *    13.7161 *  0.0000    16          
   133  Li    c      9.7972 *     7.8377 *     9.7972 *  0.0000    16          
   134  Cl    c      9.7972 *     9.7972       7.8377 *  0.0000     8          
   135  Li    c      1.9594 *    15.6755 *    -1.9594 *  0.0000    16          
   136  Cl    c      1.9594 *     1.9594      15.6755 *  0.0000     8          
   137  Ba    s      0.0000       0.0000       0.0000    0.0000     1    Defect
   138  O     s      0.0000       0.0000      -1.9594 *  0.0000     2          
   139  Cl    s      1.9594 *     1.9594       0.0000    0.0000     4          
   140  O     s      0.0000       3.9189 *    -1.9594 *  0.0000     8          
   141  Cl    s      1.9594 *     1.9594       3.9189 *  0.0000     8          
   142  O     s      0.0000       0.0000       5.8783 *  0.0000     2          
   143  O     s      3.9189 *     3.9189      -1.9594 *  0.0000     8          
   144  Cl    s      1.9594 *     5.8783 *     0.0000    0.0000     8          
   145  O     s      0.0000       3.9189 *     5.8783 *  0.0000     8          
   146  Cl    s      1.9594 *     5.8783 *     3.9189 *  0.0000    16          
   147  O     s      0.0000       7.8377 *    -1.9594 *  0.0000     8          
   148  O     s      3.9189 *     3.9189       5.8783 *  0.0000     8          
   149  Cl    s      1.9594 *     1.9594       7.8377 *  0.0000     8          
   150  Cl    s      5.8783 *     5.8783       0.0000    0.0000     4          
   151  O     s      3.9189 *     7.8377 *    -1.9594 *  0.0000    16          
   152  Cl    s      5.8783 *     5.8783       3.9189 *  0.0000     8          
   153  O     s      0.0000       0.0000       9.7972 *  0.0000     2          
   154  O     s      0.0000       7.8377 *     5.8783 *  0.0000     8          
   155  Cl    s      1.9594 *     5.8783 *     7.8377 *  0.0000    16          
   156  Cl    s      1.9594 *     9.7972 *     0.0000    0.0000     8          
   157  O     s      0.0000       3.9189 *     9.7972 *  0.0000     8          
   158  O     s      3.9189 *     7.8377 *     5.8783 *  0.0000    16          
   159  Cl    s      1.9594 *     9.7972 *     3.9189 *  0.0000    16          
   160  O     s      7.8377 *     7.8377      -1.9594 *  0.0000     8          
   161  O     s      3.9189 *     3.9189       9.7972 *  0.0000     8          
   162  Cl    s      5.8783 *     5.8783       7.8377 *  0.0000     8          
   163  Cl    s      5.8783 *     9.7972 *     0.0000    0.0000     8          
   164  O     s      0.0000     -11.7566 *    -1.9594 *  0.0000     8          
   165  Cl    s      5.8783 *     9.7972 *     3.9189 *  0.0000    16          
   166  Cl    s      1.9594 *     1.9594      11.7566 *  0.0000     8          
   167  O     s      3.9189 *   -11.7566 *    -1.9594 *  0.0000    16          
   168  O     s      0.0000       7.8377 *     9.7972 *  0.0000     8          
   169  O     s      7.8377 *     7.8377       5.8783 *  0.0000     8          
   170  Cl    s      1.9594 *     9.7972 *     7.8377 *  0.0000    16          
   171  O     s      0.0000     -11.7566 *     5.8783 *  0.0000     8          
   172  O     s      3.9189 *     7.8377 *     9.7972 *  0.0000    16          
   173  Cl    s      1.9594 *     5.8783 *    11.7566 *  0.0000    16          
   174  O     s      3.9189 *   -11.7566 *     5.8783 *  0.0000    16          
   175  O     s      0.0000       0.0000      13.7161 *  0.0000     2          
   176  Cl    s      1.9594 *   -13.7161 *     0.0000    0.0000     8          
   177  Cl    s      9.7972 *     9.7972       0.0000    0.0000     4          
   178  Cl    s      5.8783 *     9.7972 *     7.8377 *  0.0000    16          
   179  O     s      7.8377 *   -11.7566 *    -1.9594 *  0.0000    16          
   180  O     s      0.0000       3.9189 *    13.7161 *  0.0000     8          
   181  Cl    s      1.9594 *   -13.7161 *     3.9189 *  0.0000    16          
   182  Cl    s      9.7972 *     9.7972       3.9189 *  0.0000     8          
   183  Cl    s      5.8783 *     5.8783      11.7566 *  0.0000     8          
   184  O     s      7.8377 *     7.8377       9.7972 *  0.0000     8          
   185  O     s      3.9189 *     3.9189      13.7161 *  0.0000     8          
   186  Cl    s      5.8783 *   -13.7161 *     0.0000    0.0000     8          
   187  O     s      0.0000     -11.7566 *     9.7972 *  0.0000     8          
   188  O     s      7.8377 *   -11.7566 *     5.8783 *  0.0000    16          
   189  Cl    s      5.8783 *   -13.7161 *     3.9189 *  0.0000    16          
   190  Cl    s      1.9594 *     9.7972 *    11.7566 *  0.0000    16          
   191  O     s      3.9189 *   -11.7566 *     9.7972 *  0.0000    16          
   192  O     s      0.0000       7.8377 *    13.7161 *  0.0000     8          
   193  O     s      0.0000      15.6755 *    -1.9594 *  0.0000     8          
   194  Cl    s      1.9594 *   -13.7161 *     7.8377 *  0.0000    16          
   195  Cl    s      9.7972 *     9.7972       7.8377 *  0.0000     8          
   196  Cl    s      1.9594 *     1.9594      15.6755 *  0.0000     8          
--------------------------------------------------------------------------------


  Constraints on symmetry reduced coordinates :

--------------------------------------------------------------------------------
  Constraint no.      Unconstrained     Constrained    Coefficient    
                         Variable         Variable
--------------------------------------------------------------------------------
           1                 3 x             3 y         1.00000
           2                 8 x             8 y         1.00000
           3                11 x            11 y         1.00000
           4                13 x            13 y         1.00000
           5                17 x            17 y         1.00000
           6                25 x            25 y         1.00000
           7                27 x            27 y         1.00000
           8                28 x            28 y         1.00000
           9                34 x            34 y         1.00000
          10                37 x            37 y         1.00000
          11                51 x            51 y         1.00000
          12                53 x            53 y         1.00000
          13                54 x            54 y         1.00000
          14                55 x            55 y         1.00000
          15                62 x            62 y         1.00000
          16                69 x            69 y         1.00000
          17                75 x            75 y         1.00000
          18                80 x            80 y         1.00000
          19                86 x            86 y         1.00000
          20                91 x            91 y         1.00000
          21               105 x           105 y         1.00000
          22               108 x           108 y         1.00000
          23               112 x           112 y         1.00000
          24               113 x           113 y         1.00000
          25               134 x           134 y         1.00000
          26               136 x           136 y         1.00000
          27               139 x           139 y         1.00000
          28               141 x           141 y         1.00000
          29               143 x           143 y         1.00000
          30               148 x           148 y         1.00000
          31               149 x           149 y         1.00000
          32               150 x           150 y         1.00000
          33               152 x           152 y         1.00000
          34               160 x           160 y         1.00000
          35               161 x           161 y         1.00000
          36               162 x           162 y         1.00000
          37               166 x           166 y         1.00000
          38               169 x           169 y         1.00000
          39               177 x           177 y         1.00000
          40               182 x           182 y         1.00000
          41               183 x           183 y         1.00000
          42               184 x           184 y         1.00000
          43               185 x           185 y         1.00000
          44               195 x           195 y         1.00000
          45               196 x           196 y         1.00000
--------------------------------------------------------------------------------


  Components of defect energy : 

--------------------------------------------------------------------------------
  Region 1 - region 1                   =    -13.93359047 eV
  Region 1 - region 2a (unrelaxed)      =     17.04107169 eV
  Region 1 - 2a (relaxed - correction)  =     -0.15918559 eV
  Region 1 (Total)                      =      2.94829564 eV
  Region 2a                             =      0.07959844 eV
  Region 2b                             =     -0.33005010 eV
--------------------------------------------------------------------------------
  Total defect energy                   =      2.69784398 eV
--------------------------------------------------------------------------------

  Largest displacement in region 2 =   0.0049 Angstroms


  Number of variables =      439

  Maximum number of calculations  =        1000
  Maximum Hessian update interval =          10
  Maximum step size               =   1.0000000
  Maximum parameter tolerance     =   0.0000100
  Maximum function  tolerance     =   0.0000100
  Maximum gradient  tolerance     =   0.0010000

  Symmetry adapted optimisation

  Symmetry to be used for second derivatives

  Newton-Raphson optimiser to be used

  BFGS hessian update to be used

  Lower half triangular hessian to be used

  Start of defect optimisation :

  Cycle:      0 Defect Energy:   2.697844  Gnorm:     0.109490  CPU:   10.400
  ** Hessian calculated **
  Cycle:      1 Defect Energy:  -3.383679  Gnorm:     0.011541  CPU:   20.720
  Cycle:      2 Defect Energy:  -3.691715  Gnorm:     0.006020  CPU:   25.900
  Cycle:      3 Defect Energy:  -3.740203  Gnorm:     0.004272  CPU:   27.407
  Cycle:      4 Defect Energy:  -3.764792  Gnorm:     0.003045  CPU:   28.955
  Cycle:      5 Defect Energy:  -3.778332  Gnorm:     0.002160  CPU:   30.855
  Cycle:      6 Defect Energy:  -3.785542  Gnorm:     0.001517  CPU:   32.579
  Cycle:      7 Defect Energy:  -3.789280  Gnorm:     0.001067  CPU:   34.244
  Cycle:      8 Defect Energy:  -3.791194  Gnorm:     0.000746  CPU:   35.858
  Cycle:      9 Defect Energy:  -3.792162  Gnorm:     0.000524  CPU:   37.465
  Cycle:     10 Defect Energy:  -3.792650  Gnorm:     0.000364  CPU:   39.015
  ** Hessian calculated **
  Cycle:     11 Defect Energy:  -3.792893  Gnorm:     0.000255  CPU:   43.194
  Cycle:     12 Defect Energy:  -3.793015  Gnorm:     0.000179  CPU:   44.921
  Cycle:     13 Defect Energy:  -3.793076  Gnorm:     0.000125  CPU:   46.633
  Cycle:     14 Defect Energy:  -3.793108  Gnorm:     0.000088  CPU:   47.986
  Cycle:     15 Defect Energy:  -3.793124  Gnorm:     0.000061  CPU:   49.081
  Cycle:     16 Defect Energy:  -3.793133  Gnorm:     0.000043  CPU:   50.723
  Cycle:     17 Defect Energy:  -3.793137  Gnorm:     0.000030  CPU:   52.314


  **** Optimisation achieved ****


  Final defect energy  =       -3.79313963
  Final defect Gnorm   =        0.00002108

  Components of defect energy : 

--------------------------------------------------------------------------------
  Region 1 - region 1                   =    -20.85384691 eV
  Region 1 - region 2a (unrelaxed)      =     17.45510943 eV
  Region 1 - 2a (relaxed - correction)  =     -0.12868319 eV
  Region 1 (Total)                      =     -3.52742067 eV
  Region 2a                             =      0.06433115 eV
  Region 2b                             =     -0.33005010 eV
--------------------------------------------------------------------------------
  Total defect energy                   =     -3.79313963 eV
--------------------------------------------------------------------------------

  Largest displacement in region 2 =   0.0049 Angstroms

  Final coordinates of region 1 :

--------------------------------------------------------------------------------
   No.  Atomic        x           y           z          Radius      Charge
        Label       (Angs)      (Angs)      (Angs)       (Angs)       (e) 
--------------------------------------------------------------------------------
     1  Ba    c     1.959436    1.959436    0.000000    0.000000   -7.203000
     2  O     c     1.959436    1.959436   -2.374995    0.000000    0.183000
     3  O     c     1.959436    1.959436    2.374995    0.000000    0.183000
     4  Cl    c     4.067146    4.067146    0.000000    0.000000    1.485000
     5  Cl    c     4.067146   -0.148273    0.000000    0.000000    1.485000
     6  Cl    c    -0.148273    4.067146    0.000000    0.000000    1.485000
     7  Cl    c    -0.148273   -0.148273    0.000000    0.000000    1.485000
     8  Li    c     4.016285    1.959436   -2.442501    0.000000    1.000000
     9  Li    c     4.016285    1.959436    2.442501    0.000000    1.000000
    10  Li    c    -0.097412    1.959436   -2.442501    0.000000    1.000000
    11  Li    c    -0.097412    1.959436    2.442501    0.000000    1.000000
    12  Li    c     1.959436    4.016285   -2.442501    0.000000    1.000000
    13  Li    c     1.959436    4.016285    2.442501    0.000000    1.000000
    14  Li    c     1.959436   -0.097412   -2.442501    0.000000    1.000000
    15  Li    c     1.959436   -0.097412    2.442501    0.000000    1.000000
    16  Li    c     1.959436    1.959436    4.193751    0.000000    1.000000
    17  Li    c     1.959436    1.959436   -4.193751    0.000000    1.000000
    18  Li    c     1.959436    5.836891    0.000000    0.000000    1.000000
    19  Li    c     1.959436   -1.918018    0.000000    0.000000    1.000000
    20  Li    c     5.836891    1.959436    0.000000    0.000000    1.000000
    21  Li    c    -1.918018    1.959436    0.000000    0.000000    1.000000
    22  O     c     1.959436    5.856532   -2.023975    0.000000    0.183000
    23  O     c     1.959436    5.856532    2.023975    0.000000    0.183000
    24  O     c     1.959436   -1.937659   -2.023975    0.000000    0.183000
    25  O     c     1.959436   -1.937659    2.023975    0.000000    0.183000
    26  O     c     5.856532    1.959436   -2.023975    0.000000    0.183000
    27  O     c     5.856532    1.959436    2.023975    0.000000    0.183000
    28  O     c    -1.937659    1.959436   -2.023975    0.000000    0.183000
    29  O     c    -1.937659    1.959436    2.023975    0.000000    0.183000
    30  Cl    c     3.954155    3.954155    4.018385    0.000000    1.485000
    31  Cl    c     3.954155    3.954155   -4.018385    0.000000    1.485000
    32  Cl    c     3.954155   -0.035282    4.018385    0.000000    1.485000
    33  Cl    c     3.954155   -0.035282   -4.018385    0.000000    1.485000
    34  Cl    c    -0.035282    3.954155    4.018385    0.000000    1.485000
    35  Cl    c    -0.035282    3.954155   -4.018385    0.000000    1.485000
    36  Cl    c    -0.035282   -0.035282    4.018385    0.000000    1.485000
    37  Cl    c    -0.035282   -0.035282   -4.018385    0.000000    1.485000
    38  Li    c     3.937009    5.909444   -1.975103    0.000000    1.000000
    39  Li    c     3.937009    5.909444    1.975103    0.000000    1.000000
    40  Li    c     3.937009   -1.990571   -1.975103    0.000000    1.000000
    41  Li    c     3.937009   -1.990571    1.975103    0.000000    1.000000
    42  Li    c    -0.018136    5.909444   -1.975103    0.000000    1.000000
    43  Li    c    -0.018136    5.909444    1.975103    0.000000    1.000000
    44  Li    c    -0.018136   -1.990571   -1.975103    0.000000    1.000000
    45  Li    c    -0.018136   -1.990571    1.975103    0.000000    1.000000
    46  Li    c     5.909444    3.937009   -1.975103    0.000000    1.000000
    47  Li    c     5.909444    3.937009    1.975103    0.000000    1.000000
    48  Li    c     5.909444   -0.018136   -1.975103    0.000000    1.000000
    49  Li    c     5.909444   -0.018136    1.975103    0.000000    1.000000
    50  Li    c    -1.990571    3.937009   -1.975103    0.000000    1.000000
    51  Li    c    -1.990571    3.937009    1.975103    0.000000    1.000000
    52  Li    c    -1.990571   -0.018136   -1.975103    0.000000    1.000000
    53  Li    c    -1.990571   -0.018136    1.975103    0.000000    1.000000
    54  Li    c     1.959436    6.053195    4.010701    0.000000    1.000000
    55  Li    c     1.959436    6.053195   -4.010701    0.000000    1.000000
    56  Li    c     1.959436   -2.134322    4.010701    0.000000    1.000000
    57  Li    c     1.959436   -2.134322   -4.010701    0.000000    1.000000
    58  Li    c     6.053195    1.959436    4.010701    0.000000    1.000000
    59  Li    c     6.053195    1.959436   -4.010701    0.000000    1.000000
    60  Li    c    -2.134322    1.959436    4.010701    0.000000    1.000000
    61  Li    c    -2.134322    1.959436   -4.010701    0.000000    1.000000
    62  Li    c     5.910704    5.910704    0.000000    0.000000    1.000000
    63  Li    c     5.910704   -1.991831    0.000000    0.000000    1.000000
    64  Li    c    -1.991831    5.910704    0.000000    0.000000    1.000000
    65  Li    c    -1.991831   -1.991831    0.000000    0.000000    1.000000
    66  O     c     1.959436    1.959436    6.009682    0.000000    0.183000
    67  O     c     1.959436    1.959436   -6.009682    0.000000    0.183000
    68  O     c     5.894848    5.894848   -1.983961    0.000000    0.183000
    69  O     c     5.894848    5.894848    1.983961    0.000000    0.183000
    70  O     c     5.894848   -1.975975   -1.983961    0.000000    0.183000
    71  O     c     5.894848   -1.975975    1.983961    0.000000    0.183000
    72  O     c    -1.975975    5.894848   -1.983961    0.000000    0.183000
    73  O     c    -1.975975    5.894848    1.983961    0.000000    0.183000
    74  O     c    -1.975975   -1.975975   -1.983961    0.000000    0.183000
    75  O     c    -1.975975   -1.975975    1.983961    0.000000    0.183000
    76  Cl    c     3.895430    7.811673    0.000000    0.000000    1.485000
    77  Cl    c     3.895430   -3.892800    0.000000    0.000000    1.485000
    78  Cl    c     7.811673    3.895430    0.000000    0.000000    1.485000
    79  Cl    c     7.811673    0.023443    0.000000    0.000000    1.485000
    80  Cl    c     0.023443    7.811673    0.000000    0.000000    1.485000
    81  Cl    c     0.023443   -3.892800    0.000000    0.000000    1.485000
    82  Cl    c    -3.892800    3.895430    0.000000    0.000000    1.485000
    83  Cl    c    -3.892800    0.023443    0.000000    0.000000    1.485000
    84  Li    c     3.958799    1.959436    6.004828    0.000000    1.000000
    85  Li    c     3.958799    1.959436   -6.004828    0.000000    1.000000
    86  Li    c    -0.039926    1.959436    6.004828    0.000000    1.000000
    87  Li    c    -0.039926    1.959436   -6.004828    0.000000    1.000000
    88  Li    c     1.959436    3.958799    6.004828    0.000000    1.000000
    89  Li    c     1.959436    3.958799   -6.004828    0.000000    1.000000
    90  Li    c     1.959436   -0.039926    6.004828    0.000000    1.000000
    91  Li    c     1.959436   -0.039926   -6.004828    0.000000    1.000000
    92  Li    c     7.843156    1.959436   -1.941150    0.000000    1.000000
    93  Li    c     7.843156    1.959436    1.941150    0.000000    1.000000
    94  Li    c    -3.924283    1.959436   -1.941150    0.000000    1.000000
    95  Li    c    -3.924283    1.959436    1.941150    0.000000    1.000000
    96  Li    c     1.959436    7.843156   -1.941150    0.000000    1.000000
    97  Li    c     1.959436    7.843156    1.941150    0.000000    1.000000
    98  Li    c     1.959436   -3.924283   -1.941150    0.000000    1.000000
    99  Li    c     1.959436   -3.924283    1.941150    0.000000    1.000000
   100  Li    c     5.893332    5.893332    3.945766    0.000000    1.000000
   101  Li    c     5.893332    5.893332   -3.945766    0.000000    1.000000
   102  Li    c     5.893332   -1.974459    3.945766    0.000000    1.000000
   103  Li    c     5.893332   -1.974459   -3.945766    0.000000    1.000000
   104  Li    c    -1.974459    5.893332    3.945766    0.000000    1.000000
   105  Li    c    -1.974459    5.893332   -3.945766    0.000000    1.000000
   106  Li    c    -1.974459   -1.974459    3.945766    0.000000    1.000000
   107  Li    c    -1.974459   -1.974459   -3.945766    0.000000    1.000000
   108  O     c     1.959436    5.910619    5.929658    0.000000    0.183000
   109  O     c     1.959436    5.910619   -5.929658    0.000000    0.183000
   110  O     c     1.959436   -1.991746    5.929658    0.000000    0.183000
   111  O     c     1.959436   -1.991746   -5.929658    0.000000    0.183000
   112  O     c     5.910619    1.959436    5.929658    0.000000    0.183000
   113  O     c     5.910619    1.959436   -5.929658    0.000000    0.183000
   114  O     c    -1.991746    1.959436    5.929658    0.000000    0.183000
   115  O     c    -1.991746    1.959436   -5.929658    0.000000    0.183000
   116  Cl    c     3.913309    7.840088    3.934117    0.000000    1.485000
   117  Cl    c     3.913309    7.840088   -3.934117    0.000000    1.485000
   118  Cl    c     3.913309   -3.921215    3.934117    0.000000    1.485000
   119  Cl    c     3.913309   -3.921215   -3.934117    0.000000    1.485000
   120  Cl    c     7.840088    3.913309    3.934117    0.000000    1.485000
   121  Cl    c     7.840088    3.913309   -3.934117    0.000000    1.485000
   122  Cl    c     7.840088    0.005564    3.934117    0.000000    1.485000
   123  Cl    c     7.840088    0.005564   -3.934117    0.000000    1.485000
   124  Cl    c     0.005564    7.840088    3.934117    0.000000    1.485000
   125  Cl    c     0.005564    7.840088   -3.934117    0.000000    1.485000
   126  Cl    c     0.005564   -3.921215    3.934117    0.000000    1.485000
   127  Cl    c     0.005564   -3.921215   -3.934117    0.000000    1.485000
   128  Cl    c    -3.921215    3.913309    3.934117    0.000000    1.485000
   129  Cl    c    -3.921215    3.913309   -3.934117    0.000000    1.485000
   130  Cl    c    -3.921215    0.005564    3.934117    0.000000    1.485000
   131  Cl    c    -3.921215    0.005564   -3.934117    0.000000    1.485000
   132  Li    c     3.934926    5.902064    5.927761    0.000000    1.000000
   133  Li    c     3.934926    5.902064   -5.927761    0.000000    1.000000
   134  Li    c     3.934926   -1.983191    5.927761    0.000000    1.000000
   135  Li    c     3.934926   -1.983191   -5.927761    0.000000    1.000000
   136  Li    c    -0.016053    5.902064    5.927761    0.000000    1.000000
   137  Li    c    -0.016053    5.902064   -5.927761    0.000000    1.000000
   138  Li    c    -0.016053   -1.983191    5.927761    0.000000    1.000000
   139  Li    c    -0.016053   -1.983191   -5.927761    0.000000    1.000000
   140  Li    c     5.902064    3.934926    5.927761    0.000000    1.000000
   141  Li    c     5.902064    3.934926   -5.927761    0.000000    1.000000
   142  Li    c     5.902064   -0.016053    5.927761    0.000000    1.000000
   143  Li    c     5.902064   -0.016053   -5.927761    0.000000    1.000000
   144  Li    c    -1.983191    3.934926    5.927761    0.000000    1.000000
   145  Li    c    -1.983191    3.934926   -5.927761    0.000000    1.000000
   146  Li    c    -1.983191   -0.016053    5.927761    0.000000    1.000000
   147  Li    c    -1.983191   -0.016053   -5.927761    0.000000    1.000000
   148  Li    c     7.848482    5.897736   -1.979655    0.000000    1.000000
   149  Li    c     7.848482    5.897736    1.979655    0.000000    1.000000
   150  Li    c     7.848482   -1.978863   -1.979655    0.000000    1.000000
   151  Li    c     7.848482   -1.978863    1.979655    0.000000    1.000000
   152  Li    c    -3.929609    5.897736   -1.979655    0.000000    1.000000
   153  Li    c    -3.929609    5.897736    1.979655    0.000000    1.000000
   154  Li    c    -3.929609   -1.978863   -1.979655    0.000000    1.000000
   155  Li    c    -3.929609   -1.978863    1.979655    0.000000    1.000000
   156  Li    c     5.897736    7.848482   -1.979655    0.000000    1.000000
   157  Li    c     5.897736    7.848482    1.979655    0.000000    1.000000
   158  Li    c     5.897736   -3.929609   -1.979655    0.000000    1.000000
   159  Li    c     5.897736   -3.929609    1.979655    0.000000    1.000000
   160  Li    c    -1.978863    7.848482   -1.979655    0.000000    1.000000
   161  Li    c    -1.978863    7.848482    1.979655    0.000000    1.000000
   162  Li    c    -1.978863   -3.929609   -1.979655    0.000000    1.000000
   163  Li    c    -1.978863   -3.929609    1.979655    0.000000    1.000000
   164  Li    c     1.959436    9.813000    0.000000    0.000000    1.000000
   165  Li    c     9.813000    1.959436    0.000000    0.000000    1.000000
   166  Li    c     1.959436   -5.894127    0.000000    0.000000    1.000000
   167  Li    c    -5.894127    1.959436    0.000000    0.000000    1.000000
   168  Li    c     1.959436    1.959436    7.911263    0.000000    1.000000
   169  Li    c     1.959436    1.959436   -7.911263    0.000000    1.000000
   170  O     c     1.959436    9.790924   -1.961658    0.000000    0.183000
   171  O     c     1.959436    9.790924    1.961658    0.000000    0.183000
   172  O     c     9.790924    1.959436   -1.961658    0.000000    0.183000
   173  O     c     9.790924    1.959436    1.961658    0.000000    0.183000
   174  O     c     1.959436   -5.872051   -1.961658    0.000000    0.183000
   175  O     c     1.959436   -5.872051    1.961658    0.000000    0.183000
   176  O     c    -5.872051    1.959436   -1.961658    0.000000    0.183000
   177  O     c    -5.872051    1.959436    1.961658    0.000000    0.183000
   178  O     c     5.892097    5.892097    5.904132    0.000000    0.183000
   179  O     c     5.892097    5.892097   -5.904132    0.000000    0.183000
   180  O     c     5.892097   -1.973224    5.904132    0.000000    0.183000
   181  O     c     5.892097   -1.973224   -5.904132    0.000000    0.183000
   182  O     c    -1.973224    5.892097    5.904132    0.000000    0.183000
   183  O     c    -1.973224    5.892097   -5.904132    0.000000    0.183000
   184  O     c    -1.973224   -1.973224    5.904132    0.000000    0.183000
   185  O     c    -1.973224   -1.973224   -5.904132    0.000000    0.183000
   186  Li    c     3.919186    9.804401   -1.966546    0.000000    1.000000
   187  Li    c     3.919186    9.804401    1.966546    0.000000    1.000000
   188  Li    c    -0.000313    9.804401   -1.966546    0.000000    1.000000
   189  Li    c    -0.000313    9.804401    1.966546    0.000000    1.000000
   190  Li    c     9.804401    3.919186   -1.966546    0.000000    1.000000
   191  Li    c     9.804401    3.919186    1.966546    0.000000    1.000000
   192  Li    c     9.804401   -0.000313   -1.966546    0.000000    1.000000
   193  Li    c     9.804401   -0.000313    1.966546    0.000000    1.000000
   194  Li    c     3.919186   -5.885528   -1.966546    0.000000    1.000000
   195  Li    c     3.919186   -5.885528    1.966546    0.000000    1.000000
   196  Li    c    -0.000313   -5.885528   -1.966546    0.000000    1.000000
   197  Li    c    -0.000313   -5.885528    1.966546    0.000000    1.000000
   198  Li    c    -5.885528    3.919186   -1.966546    0.000000    1.000000
   199  Li    c    -5.885528    3.919186    1.966546    0.000000    1.000000
   200  Li    c    -5.885528   -0.000313   -1.966546    0.000000    1.000000
   201  Li    c    -5.885528   -0.000313    1.966546    0.000000    1.000000
   202  Cl    c     3.932416    3.932416    7.867331    0.000000    1.485000
   203  Cl    c     3.932416    3.932416   -7.867331    0.000000    1.485000
   204  Cl    c     3.932416   -0.013543    7.867331    0.000000    1.485000
   205  Cl    c     3.932416   -0.013543   -7.867331    0.000000    1.485000
   206  Cl    c    -0.013543    3.932416    7.867331    0.000000    1.485000
   207  Cl    c    -0.013543    3.932416   -7.867331    0.000000    1.485000
   208  Cl    c    -0.013543   -0.013543    7.867331    0.000000    1.485000
   209  Cl    c    -0.013543   -0.013543   -7.867331    0.000000    1.485000
   210  Cl    c     7.833334    7.833334    0.000000    0.000000    1.485000
   211  Cl    c     7.833334   -3.914461    0.000000    0.000000    1.485000
   212  Cl    c    -3.914461    7.833334    0.000000    0.000000    1.485000
   213  Cl    c    -3.914461   -3.914461    0.000000    0.000000    1.485000
   214  Li    c     7.876766    1.959436    5.969699    0.000000    1.000000
   215  Li    c     7.876766    1.959436   -5.969699    0.000000    1.000000
   216  Li    c    -3.957893    1.959436    5.969699    0.000000    1.000000
   217  Li    c    -3.957893    1.959436   -5.969699    0.000000    1.000000
   218  Li    c     1.959436    7.876766    5.969699    0.000000    1.000000
   219  Li    c     1.959436    7.876766   -5.969699    0.000000    1.000000
   220  Li    c     1.959436   -3.957893    5.969699    0.000000    1.000000
   221  Li    c     1.959436   -3.957893   -5.969699    0.000000    1.000000
   222  Li    c     1.959436    9.791494    3.930318    0.000000    1.000000
   223  Li    c     1.959436    9.791494   -3.930318    0.000000    1.000000
   224  Li    c     9.791494    1.959436    3.930318    0.000000    1.000000
   225  Li    c     9.791494    1.959436   -3.930318    0.000000    1.000000
   226  Li    c     1.959436   -5.872621    3.930318    0.000000    1.000000
   227  Li    c     1.959436   -5.872621   -3.930318    0.000000    1.000000
   228  Li    c    -5.872621    1.959436    3.930318    0.000000    1.000000
   229  Li    c    -5.872621    1.959436   -3.930318    0.000000    1.000000
   230  Li    c     5.879889    9.799570    0.000000    0.000000    1.000000
   231  Li    c     9.799570    5.879889    0.000000    0.000000    1.000000
   232  Li    c     9.799570   -1.961016    0.000000    0.000000    1.000000
   233  Li    c    -1.961016    9.799570    0.000000    0.000000    1.000000
   234  Li    c     5.879889   -5.880697    0.000000    0.000000    1.000000
   235  Li    c    -1.961016   -5.880697    0.000000    0.000000    1.000000
   236  Li    c    -5.880697    5.879889    0.000000    0.000000    1.000000
   237  Li    c    -5.880697   -1.961016    0.000000    0.000000    1.000000
   238  Li    c     1.959436    5.916784    7.885234    0.000000    1.000000
   239  Li    c     1.959436    5.916784   -7.885234    0.000000    1.000000
   240  Li    c     1.959436   -1.997911    7.885234    0.000000    1.000000
   241  Li    c     1.959436   -1.997911   -7.885234    0.000000    1.000000
   242  Li    c     5.916784    1.959436    7.885234    0.000000    1.000000
   243  Li    c     5.916784    1.959436   -7.885234    0.000000    1.000000
   244  Li    c    -1.997911    1.959436    7.885234    0.000000    1.000000
   245  Li    c    -1.997911    1.959436   -7.885234    0.000000    1.000000
   246  O     c     5.876405    9.793723   -1.961270    0.000000    0.183000
   247  O     c     5.876405    9.793723    1.961270    0.000000    0.183000
   248  O     c     9.793723    5.876405   -1.961270    0.000000    0.183000
   249  O     c     9.793723    5.876405    1.961270    0.000000    0.183000
   250  O     c     9.793723   -1.957532   -1.961270    0.000000    0.183000
   251  O     c     9.793723   -1.957532    1.961270    0.000000    0.183000
   252  O     c    -1.957532    9.793723   -1.961270    0.000000    0.183000
   253  O     c    -1.957532    9.793723    1.961270    0.000000    0.183000
   254  O     c     5.876405   -5.874850   -1.961270    0.000000    0.183000
   255  O     c     5.876405   -5.874850    1.961270    0.000000    0.183000
   256  O     c    -1.957532   -5.874850   -1.961270    0.000000    0.183000
   257  O     c    -1.957532   -5.874850    1.961270    0.000000    0.183000
   258  O     c    -5.874850    5.876405   -1.961270    0.000000    0.183000
   259  O     c    -5.874850    5.876405    1.961270    0.000000    0.183000
   260  O     c    -5.874850   -1.957532   -1.961270    0.000000    0.183000
   261  O     c    -5.874850   -1.957532    1.961270    0.000000    0.183000
   262  Cl    c     7.841949    7.841949    3.926896    0.000000    1.485000
   263  Cl    c     7.841949    7.841949   -3.926896    0.000000    1.485000
   264  Cl    c     7.841949   -3.923076    3.926896    0.000000    1.485000
   265  Cl    c     7.841949   -3.923076   -3.926896    0.000000    1.485000
   266  Cl    c    -3.923076    7.841949    3.926896    0.000000    1.485000
   267  Cl    c    -3.923076    7.841949   -3.926896    0.000000    1.485000
   268  Cl    c    -3.923076   -3.923076    3.926896    0.000000    1.485000
   269  Cl    c    -3.923076   -3.923076   -3.926896    0.000000    1.485000
   270  Li    c     7.851812    5.893274    5.897698    0.000000    1.000000
   271  Li    c     7.851812    5.893274   -5.897698    0.000000    1.000000
   272  Li    c     7.851812   -1.974401    5.897698    0.000000    1.000000
   273  Li    c     7.851812   -1.974401   -5.897698    0.000000    1.000000
   274  Li    c    -3.932939    5.893274    5.897698    0.000000    1.000000
   275  Li    c    -3.932939    5.893274   -5.897698    0.000000    1.000000
   276  Li    c    -3.932939   -1.974401    5.897698    0.000000    1.000000
   277  Li    c    -3.932939   -1.974401   -5.897698    0.000000    1.000000
   278  Li    c     5.893274    7.851812    5.897698    0.000000    1.000000
   279  Li    c     5.893274    7.851812   -5.897698    0.000000    1.000000
   280  Li    c     5.893274   -3.932939    5.897698    0.000000    1.000000
   281  Li    c     5.893274   -3.932939   -5.897698    0.000000    1.000000
   282  Li    c    -1.974401    7.851812    5.897698    0.000000    1.000000
   283  Li    c    -1.974401    7.851812   -5.897698    0.000000    1.000000
   284  Li    c    -1.974401   -3.932939    5.897698    0.000000    1.000000
   285  Li    c    -1.974401   -3.932939   -5.897698    0.000000    1.000000
   286  Li    c     5.884147    9.811158    3.926218    0.000000    1.000000
   287  Li    c     5.884147    9.811158   -3.926218    0.000000    1.000000
   288  Li    c     9.811158    5.884147    3.926218    0.000000    1.000000
   289  Li    c     9.811158    5.884147   -3.926218    0.000000    1.000000
   290  Li    c     9.811158   -1.965274    3.926218    0.000000    1.000000
   291  Li    c     9.811158   -1.965274   -3.926218    0.000000    1.000000
   292  Li    c    -1.965274    9.811158    3.926218    0.000000    1.000000
   293  Li    c    -1.965274    9.811158   -3.926218    0.000000    1.000000
   294  Li    c     5.884147   -5.892285    3.926218    0.000000    1.000000
   295  Li    c     5.884147   -5.892285   -3.926218    0.000000    1.000000
   296  Li    c    -1.965274   -5.892285    3.926218    0.000000    1.000000
   297  Li    c    -1.965274   -5.892285   -3.926218    0.000000    1.000000
   298  Li    c    -5.892285    5.884147    3.926218    0.000000    1.000000
   299  Li    c    -5.892285    5.884147   -3.926218    0.000000    1.000000
   300  Li    c    -5.892285   -1.965274    3.926218    0.000000    1.000000
   301  Li    c    -5.892285   -1.965274   -3.926218    0.000000    1.000000
   302  Li    c     5.896992    5.896992    7.863936    0.000000    1.000000
   303  Li    c     5.896992    5.896992   -7.863936    0.000000    1.000000
   304  Li    c     5.896992   -1.978119    7.863936    0.000000    1.000000
   305  Li    c     5.896992   -1.978119   -7.863936    0.000000    1.000000
   306  Li    c    -1.978119    5.896992    7.863936    0.000000    1.000000
   307  Li    c    -1.978119    5.896992   -7.863936    0.000000    1.000000
   308  Li    c    -1.978119   -1.978119    7.863936    0.000000    1.000000
   309  Li    c    -1.978119   -1.978119   -7.863936    0.000000    1.000000
   310  O     c     1.959436    1.959436    9.830944    0.000000    0.183000
   311  O     c     1.959436    1.959436   -9.830944    0.000000    0.183000
   312  O     c     1.959436    9.806451    5.896104    0.000000    0.183000
   313  O     c     1.959436    9.806451   -5.896104    0.000000    0.183000
   314  O     c     9.806451    1.959436    5.896104    0.000000    0.183000
   315  O     c     9.806451    1.959436   -5.896104    0.000000    0.183000
   316  O     c     1.959436   -5.887578    5.896104    0.000000    0.183000
   317  O     c     1.959436   -5.887578   -5.896104    0.000000    0.183000
   318  O     c    -5.887578    1.959436    5.896104    0.000000    0.183000
   319  O     c    -5.887578    1.959436   -5.896104    0.000000    0.183000
   320  Cl    c     3.922784    7.848390    7.854611    0.000000    1.485000
   321  Cl    c     3.922784    7.848390   -7.854611    0.000000    1.485000
   322  Cl    c     3.922784   -3.929517    7.854611    0.000000    1.485000
   323  Cl    c     3.922784   -3.929517   -7.854611    0.000000    1.485000
   324  Cl    c     7.848390    3.922784    7.854611    0.000000    1.485000
   325  Cl    c     7.848390    3.922784   -7.854611    0.000000    1.485000
   326  Cl    c     7.848390   -0.003911    7.854611    0.000000    1.485000
   327  Cl    c     7.848390   -0.003911   -7.854611    0.000000    1.485000
   328  Cl    c    -0.003911    7.848390    7.854611    0.000000    1.485000
   329  Cl    c    -0.003911    7.848390   -7.854611    0.000000    1.485000
   330  Cl    c    -0.003911   -3.929517    7.854611    0.000000    1.485000
   331  Cl    c    -0.003911   -3.929517   -7.854611    0.000000    1.485000
   332  Cl    c    -3.929517    3.922784    7.854611    0.000000    1.485000
   333  Cl    c    -3.929517    3.922784   -7.854611    0.000000    1.485000
   334  Cl    c    -3.929517   -0.003911    7.854611    0.000000    1.485000
   335  Cl    c    -3.929517   -0.003911   -7.854611    0.000000    1.485000
   336  Cl    c     3.916959   11.745612    0.000000    0.000000    1.485000
   337  Cl    c     3.916959   -7.826739    0.000000    0.000000    1.485000
   338  Cl    c    11.745612    3.916959    0.000000    0.000000    1.485000
   339  Cl    c    11.745612    0.001914    0.000000    0.000000    1.485000
   340  Cl    c     0.001914   11.745612    0.000000    0.000000    1.485000
   341  Cl    c     0.001914   -7.826739    0.000000    0.000000    1.485000
   342  Cl    c    -7.826739    3.916959    0.000000    0.000000    1.485000
   343  Cl    c    -7.826739    0.001914    0.000000    0.000000    1.485000
   344  Li    c     3.927999    1.959436    9.835963    0.000000    1.000000
   345  Li    c     3.927999    1.959436   -9.835963    0.000000    1.000000
   346  Li    c    -0.009126    1.959436    9.835963    0.000000    1.000000
   347  Li    c    -0.009126    1.959436   -9.835963    0.000000    1.000000
   348  Li    c     1.959436    3.927999    9.835963    0.000000    1.000000
   349  Li    c     1.959436    3.927999   -9.835963    0.000000    1.000000
   350  Li    c     1.959436   -0.009126    9.835963    0.000000    1.000000
   351  Li    c     1.959436   -0.009126   -9.835963    0.000000    1.000000
   352  Li    c     3.923503    9.814385    5.889707    0.000000    1.000000
   353  Li    c     3.923503    9.814385   -5.889707    0.000000    1.000000
   354  Li    c     3.923503   -5.895512    5.889707    0.000000    1.000000
   355  Li    c     3.923503   -5.895512   -5.889707    0.000000    1.000000
   356  Li    c    -0.004630    9.814385    5.889707    0.000000    1.000000
   357  Li    c    -0.004630    9.814385   -5.889707    0.000000    1.000000
   358  Li    c    -0.004630   -5.895512    5.889707    0.000000    1.000000
   359  Li    c    -0.004630   -5.895512   -5.889707    0.000000    1.000000
   360  Li    c     9.814385    3.923503    5.889707    0.000000    1.000000
   361  Li    c     9.814385    3.923503   -5.889707    0.000000    1.000000
   362  Li    c     9.814385   -0.004630    5.889707    0.000000    1.000000
   363  Li    c     9.814385   -0.004630   -5.889707    0.000000    1.000000
   364  Li    c    -5.895512    3.923503    5.889707    0.000000    1.000000
   365  Li    c    -5.895512    3.923503   -5.889707    0.000000    1.000000
   366  Li    c    -5.895512   -0.004630    5.889707    0.000000    1.000000
   367  Li    c    -5.895512   -0.004630   -5.889707    0.000000    1.000000
   368  Li    c     7.842750    9.807578   -1.960241    0.000000    1.000000
   369  Li    c     7.842750    9.807578    1.960241    0.000000    1.000000
   370  Li    c    -3.923877    9.807578   -1.960241    0.000000    1.000000
   371  Li    c    -3.923877    9.807578    1.960241    0.000000    1.000000
   372  Li    c     9.807578    7.842750   -1.960241    0.000000    1.000000
   373  Li    c     9.807578    7.842750    1.960241    0.000000    1.000000
   374  Li    c     9.807578   -3.923877   -1.960241    0.000000    1.000000
   375  Li    c     9.807578   -3.923877    1.960241    0.000000    1.000000
   376  Li    c     7.842750   -5.888705   -1.960241    0.000000    1.000000
   377  Li    c     7.842750   -5.888705    1.960241    0.000000    1.000000
   378  Li    c    -3.923877   -5.888705   -1.960241    0.000000    1.000000
   379  Li    c    -3.923877   -5.888705    1.960241    0.000000    1.000000
   380  Li    c    -5.888705    7.842750   -1.960241    0.000000    1.000000
   381  Li    c    -5.888705    7.842750    1.960241    0.000000    1.000000
   382  Li    c    -5.888705   -3.923877   -1.960241    0.000000    1.000000
[...]
    116 y          1.959436      1.959436     0.000000    Cartesian    0.00
    116 z         13.716055     13.724621     0.008566    Cartesian    0.06
    117 x          1.959436      1.959436     0.000000    Cartesian    0.00
    117 y         -9.797182     -9.796706     0.000476    Cartesian   -0.00
    117 z          9.797182      9.797867     0.000684    Cartesian    0.01
    118 x          9.797182      9.795629    -0.001554    Cartesian   -0.02
    118 y         -9.797182     -9.795365     0.001817    Cartesian   -0.02
    118 z          5.878309      5.876150    -0.002160    Cartesian   -0.04
    119 x          7.837746      7.835535    -0.002211    Cartesian   -0.03
    119 y        -11.756619    -11.751434     0.005185    Cartesian   -0.04
    119 z          3.918873      3.917129    -0.001744    Cartesian   -0.04
    120 x         11.756619     11.759596     0.002977    Cartesian    0.03
    120 y         -9.797182     -9.802084    -0.004901    Cartesian    0.05
    120 z         -1.959436     -1.960048    -0.000612    Cartesian    0.03
    121 x        -11.756619    -11.759759    -0.003140    Cartesian    0.03
    121 y          5.878309      5.880401     0.002092    Cartesian    0.04
    121 z          5.878309      5.879910     0.001601    Cartesian    0.03
    122 x          3.918873      3.919852     0.000979    Cartesian    0.02
    122 y         -9.797182     -9.801932    -0.004750    Cartesian    0.05
    122 z          9.797182      9.798305     0.001122    Cartesian    0.01
    123 x          3.918873      3.918856    -0.000017    Cartesian   -0.00
    123 y         11.756619     11.756423    -0.000196    Cartesian   -0.00
    123 z         11.756619     11.756477    -0.000142    Cartesian   -0.00
    124 x          7.837746      7.841249     0.003503    Cartesian    0.04
    124 y          5.878309      5.880330     0.002021    Cartesian    0.03
    124 z         13.716055     13.724258     0.008202    Cartesian    0.06
    125 x          1.959436      1.959436     0.000000    Cartesian    0.00
    125 y          1.959436      1.959436     0.000000    Cartesian    0.00
    125 z         15.675492     15.679915     0.004423    Cartesian    0.03
    126 x          1.959436      1.959436     0.000000    Cartesian    0.00
    126 y         17.634928     17.638923     0.003994    Cartesian    0.02
    126 z          0.000000      0.000000     0.000000    Cartesian    0.00
    127 x          5.878309      5.877340    -0.000970    Cartesian   -0.02
    127 y         -9.797182     -9.795584     0.001599    Cartesian   -0.02
    127 z          9.797182      9.795423    -0.001760    Cartesian   -0.02
    128 x          1.959436      1.959436     0.000000    Cartesian    0.00
    128 y          9.797182      9.797475     0.000293    Cartesian    0.00
    128 z         13.716055     13.716534     0.000479    Cartesian    0.00
    129 x          1.959436      1.959436     0.000000    Cartesian    0.00
    129 y         17.634928     17.632762    -0.002166    Cartesian   -0.01
    129 z         -1.959436     -1.958462     0.000974    Cartesian   -0.05
    130 x        -11.756619    -11.760589    -0.003970    Cartesian    0.03
    130 y          9.797182      9.800947     0.003765    Cartesian    0.04
    130 z         -1.959436     -1.960204    -0.000767    Cartesian    0.04
    131 x          3.918873      3.917912    -0.000961    Cartesian   -0.02
    131 y        -11.756619    -11.751067     0.005552    Cartesian   -0.05
    131 z          7.837746      7.834942    -0.002804    Cartesian   -0.04
    132 x          3.918873      3.920241     0.001368    Cartesian    0.03
    132 y          9.797182      9.800288     0.003105    Cartesian    0.03
    132 z         13.716055     13.722459     0.006403    Cartesian    0.05
    133 x         11.756619     11.760855     0.004236    Cartesian    0.04
    133 y          9.797182      9.802247     0.005064    Cartesian    0.05
    133 z          9.797182      9.803650     0.006468    Cartesian    0.07
    134 x         11.756619     11.753959    -0.002660    Cartesian   -0.02
    134 y         11.756619     11.753959    -0.002660    Cartesian   -0.02
    134 z          7.837746      7.834841    -0.002905    Cartesian   -0.04
    135 x          3.918873      3.919432     0.000559    Cartesian    0.01
    135 y         17.634928     17.641571     0.006643    Cartesian    0.04
    135 z         -1.959436     -1.960281    -0.000844    Cartesian    0.04
    136 x          3.918873      3.918344    -0.000529    Cartesian   -0.01
    136 y          3.918873      3.918344    -0.000529    Cartesian   -0.01
    136 z         15.675492     15.669459    -0.006033    Cartesian   -0.04
    137 x          1.959436      1.959436     0.000000    Cartesian    0.00
    137 y          1.959436      1.959436     0.000000    Cartesian    0.00
    137 z          0.000000      0.000000     0.000000    Cartesian    0.00
    138 x          1.959436      1.959436     0.000000    Cartesian    0.00
    138 y          1.959436      1.959436     0.000000    Cartesian    0.00
    138 z         -1.959436     -2.374848    -0.415412    Cartesian   21.20
    139 x          3.918873      4.041349     0.122476    Cartesian    3.13
    139 y          3.918873      4.041349     0.122476    Cartesian    3.13
    139 z          0.000000      0.000000     0.000000    Cartesian    0.00
    140 x          1.959436      1.959436     0.000000    Cartesian    0.00
    140 y          5.878309      5.856460    -0.021850    Cartesian   -0.37
    140 z         -1.959436     -2.024090    -0.064654    Cartesian    3.30
    141 x          3.918873      3.943139     0.024266    Cartesian    0.62
    141 y          3.918873      3.943139     0.024266    Cartesian    0.62
    141 z          3.918873      4.002351     0.083478    Cartesian    2.13
    142 x          1.959436      1.959436     0.000000    Cartesian    0.00
    142 y          1.959436      1.959436     0.000000    Cartesian    0.00
    142 z          5.878309      6.009529     0.131220    Cartesian    2.23
    143 x          5.878309      5.894860     0.016551    Cartesian    0.28
    143 y          5.878309      5.894860     0.016551    Cartesian    0.28
    143 z         -1.959436     -1.983982    -0.024545    Cartesian    1.25
    144 x          3.918873      3.890055    -0.028818    Cartesian   -0.74
    144 y          7.837746      7.806442    -0.031304    Cartesian   -0.40
    144 z          0.000000      0.000000     0.000000    Cartesian    0.00
    145 x          1.959436      1.959436     0.000000    Cartesian    0.00
    145 y          5.878309      5.910638     0.032328    Cartesian    0.55
    145 z          5.878309      5.929642     0.051332    Cartesian    0.87
    146 x          3.918873      3.907570    -0.011303    Cartesian   -0.29
    146 y          7.837746      7.834552    -0.003194    Cartesian   -0.04
    146 z          3.918873      3.932574     0.013701    Cartesian    0.35
    147 x          1.959436      1.959436     0.000000    Cartesian    0.00
    147 y          9.797182      9.790911    -0.006272    Cartesian   -0.06
    147 z         -1.959436     -1.961648    -0.002211    Cartesian    0.11
    148 x          5.878309      5.892098     0.013789    Cartesian    0.23
    148 y          5.878309      5.892098     0.013789    Cartesian    0.23
    148 z          5.878309      5.904138     0.025829    Cartesian    0.44
    149 x          3.918873      3.931419     0.012546    Cartesian    0.32
    149 y          3.918873      3.931419     0.012546    Cartesian    0.32
    149 z          7.837746      7.862365     0.024619    Cartesian    0.31
    150 x          7.837746      7.830213    -0.007533    Cartesian   -0.10
    150 y          7.837746      7.830213    -0.007533    Cartesian   -0.10
    150 z          0.000000      0.000000     0.000000    Cartesian    0.00
    151 x          5.878309      5.876402    -0.001908    Cartesian   -0.03
    151 y          9.797182      9.793707    -0.003476    Cartesian   -0.04
    151 z         -1.959436     -1.961270    -0.001833    Cartesian    0.09
    152 x          7.837746      7.840412     0.002666    Cartesian    0.03
    152 y          7.837746      7.840412     0.002666    Cartesian    0.03
    152 z          3.918873      3.925947     0.007074    Cartesian    0.18
    153 x          1.959436      1.959436     0.000000    Cartesian    0.00
    153 y          1.959436      1.959436     0.000000    Cartesian    0.00
    153 z          9.797182      9.830912     0.033729    Cartesian    0.34
    154 x          1.959436      1.959436     0.000000    Cartesian    0.00
    154 y          9.797182      9.806421     0.009239    Cartesian    0.09
    154 z          5.878309      5.896119     0.017809    Cartesian    0.30
    155 x          3.918873      3.920577     0.001704    Cartesian    0.04
    155 y          7.837746      7.846168     0.008422    Cartesian    0.11
    155 z          7.837746      7.851822     0.014076    Cartesian    0.18
    156 x          3.918873      3.916493    -0.002380    Cartesian   -0.06
    156 y         11.756619     11.743079    -0.013540    Cartesian   -0.12
    156 z          0.000000      0.000000     0.000000    Cartesian    0.00
    157 x          1.959436      1.959436     0.000000    Cartesian    0.00
    157 y          5.878309      5.888132     0.009822    Cartesian    0.17
    157 z          9.797182      9.816728     0.019545    Cartesian    0.20
    158 x          5.878309      5.880927     0.002617    Cartesian    0.04
    158 y          9.797182      9.802070     0.004888    Cartesian    0.05
    158 z          5.878309      5.883582     0.005273    Cartesian    0.09
    159 x          3.918873      3.917685    -0.001188    Cartesian   -0.03
    159 y         11.756619     11.747659    -0.008960    Cartesian   -0.08
    159 z          3.918873      3.918726    -0.000147    Cartesian   -0.00
    160 x          9.797182      9.797737     0.000555    Cartesian    0.01
    160 y          9.797182      9.797737     0.000555    Cartesian    0.01
    160 z         -1.959436     -1.958265     0.001171    Cartesian   -0.06
    161 x          5.878309      5.886257     0.007947    Cartesian    0.14
    161 y          5.878309      5.886257     0.007947    Cartesian    0.14
    161 z          9.797182      9.811167     0.013985    Cartesian    0.14
    162 x          7.837746      7.841969     0.004223    Cartesian    0.05
    162 y          7.837746      7.841969     0.004223    Cartesian    0.05
    162 z          7.837746      7.843345     0.005599    Cartesian    0.07
    163 x          7.837746      7.833013    -0.004733    Cartesian   -0.06
    163 y         11.756619     11.749054    -0.007565    Cartesian   -0.06
    163 z          0.000000      0.000000     0.000000    Cartesian    0.00
    164 x          1.959436      1.959436     0.000000    Cartesian    0.00
    164 y         -9.797182     -9.793916     0.003267    Cartesian   -0.03
    164 z         -1.959436     -1.959669    -0.000232    Cartesian    0.01
    165 x          7.837746      7.833978    -0.003768    Cartesian   -0.05
    165 y         11.756619     11.751150    -0.005469    Cartesian   -0.05
    165 z          3.918873      3.915328    -0.003545    Cartesian   -0.09
    166 x          3.918873      3.922126     0.003253    Cartesian    0.08
    166 y          3.918873      3.922126     0.003253    Cartesian    0.08
    166 z         11.756619     11.759764     0.003145    Cartesian    0.03
    167 x          5.878309      5.876594    -0.001716    Cartesian   -0.03
    167 y         -9.797182     -9.795368     0.001815    Cartesian   -0.02
    167 z         -1.959436     -1.958659     0.000777    Cartesian   -0.04
    168 x          1.959436      1.959436     0.000000    Cartesian    0.00
    168 y          9.797182      9.806603     0.009421    Cartesian    0.10
    168 z          9.797182      9.807271     0.010088    Cartesian    0.10
    169 x          9.797182      9.799588     0.002406    Cartesian    0.02
    169 y          9.797182      9.799588     0.002406    Cartesian    0.02
    169 z          5.878309      5.879039     0.000729    Cartesian    0.01
    170 x          3.918873      3.919228     0.000355    Cartesian    0.01
    170 y         11.756619     11.755246    -0.001373    Cartesian   -0.01
    170 z          7.837746      7.838800     0.001054    Cartesian    0.01
    171 x          1.959436      1.959436     0.000000    Cartesian    0.00
    171 y         -9.797182     -9.797616    -0.000433    Cartesian    0.00
    171 z          5.878309      5.877100    -0.001209    Cartesian   -0.02
    172 x          5.878309      5.881378     0.003069    Cartesian    0.05
    172 y          9.797182      9.802024     0.004842    Cartesian    0.05
    172 z          9.797182      9.802497     0.005315    Cartesian    0.05
    173 x          3.918873      3.919725     0.000852    Cartesian    0.02
    173 y          7.837746      7.840249     0.002503    Cartesian    0.03
    173 z         11.756619     11.758293     0.001674    Cartesian    0.01
    174 x          5.878309      5.879051     0.000742    Cartesian    0.01
    174 y         -9.797182     -9.797393    -0.000211    Cartesian    0.00
    174 z          5.878309      5.878199    -0.000111    Cartesian   -0.00
    175 x          1.959436      1.959436     0.000000    Cartesian    0.00
    175 y          1.959436      1.959436     0.000000    Cartesian    0.00
    175 z         13.716055     13.720572     0.004516    Cartesian    0.03
    176 x          3.918873      3.918769    -0.000104    Cartesian   -0.00
    176 y        -11.756619    -11.750378     0.006241    Cartesian   -0.05
    176 z          0.000000      0.000000     0.000000    Cartesian    0.00
    177 x         11.756619     11.754066    -0.002553    Cartesian   -0.02
    177 y         11.756619     11.754066    -0.002553    Cartesian   -0.02
    177 z          0.000000      0.000000     0.000000    Cartesian    0.00
    178 x          7.837746      7.836841    -0.000905    Cartesian   -0.01
    178 y         11.756619     11.755376    -0.001243    Cartesian   -0.01
    178 z          7.837746      7.836355    -0.001391    Cartesian   -0.02
    179 x          9.797182      9.797742     0.000560    Cartesian    0.01
    179 y         -9.797182     -9.797636    -0.000454    Cartesian    0.00
    179 z         -1.959436     -1.958764     0.000673    Cartesian   -0.03
    180 x          1.959436      1.959436     0.000000    Cartesian    0.00
    180 y          5.878309      5.881123     0.002814    Cartesian    0.05
    180 z         13.716055     13.719199     0.003143    Cartesian    0.02
    181 x          3.918873      3.918459    -0.000414    Cartesian   -0.01
    181 y        -11.756619    -11.751657     0.004962    Cartesian   -0.04
    181 z          3.918873      3.917719    -0.001154    Cartesian   -0.03
    182 x         11.756619     11.754213    -0.002406    Cartesian   -0.02
    182 y         11.756619     11.754213    -0.002406    Cartesian   -0.02
    182 z          3.918873      3.916586    -0.002287    Cartesian   -0.06
    183 x          7.837746      7.839499     0.001753    Cartesian    0.02
    183 y          7.837746      7.839499     0.001753    Cartesian    0.02
    183 z         11.756619     11.757340     0.000721    Cartesian    0.01
    184 x          9.797182      9.799602     0.002419    Cartesian    0.02
    184 y          9.797182      9.799602     0.002419    Cartesian    0.02
    184 z          9.797182      9.798952     0.001770    Cartesian    0.02
    185 x          5.878309      5.880196     0.001886    Cartesian    0.03
    185 y          5.878309      5.880196     0.001886    Cartesian    0.03
    185 z         13.716055     13.718766     0.002710    Cartesian    0.02
    186 x          7.837746      7.834912    -0.002834    Cartesian   -0.04
    186 y        -11.756619    -11.750684     0.005935    Cartesian   -0.05
    186 z          0.000000      0.000000     0.000000    Cartesian    0.00
    187 x          1.959436      1.959436     0.000000    Cartesian    0.00
    187 y         -9.797182     -9.796696     0.000486    Cartesian   -0.00
    187 z          9.797182      9.797870     0.000688    Cartesian    0.01
    188 x          9.797182      9.795625    -0.001557    Cartesian   -0.02
    188 y         -9.797182     -9.795360     0.001823    Cartesian   -0.02
    188 z          5.878309      5.876147    -0.002162    Cartesian   -0.04
    189 x          7.837746      7.834992    -0.002754    Cartesian   -0.04
    189 y        -11.756619    -11.750088     0.006531    Cartesian   -0.06
    189 z          3.918873      3.916934    -0.001939    Cartesian   -0.05
    190 x          3.918873      3.918262    -0.000611    Cartesian   -0.02
    190 y         11.756619     11.755588    -0.001031    Cartesian   -0.01
    190 z         11.756619     11.755514    -0.001105    Cartesian   -0.01
    191 x          5.878309      5.877337    -0.000972    Cartesian   -0.02
    191 y         -9.797182     -9.795577     0.001605    Cartesian   -0.02
    191 z          9.797182      9.795419    -0.001764    Cartesian   -0.02
    192 x          1.959436      1.959436     0.000000    Cartesian    0.00
    192 y          9.797182      9.797474     0.000291    Cartesian    0.00
    192 z         13.716055     13.716528     0.000472    Cartesian    0.00
    193 x          1.959436      1.959436     0.000000    Cartesian    0.00
    193 y         17.634928     17.632759    -0.002169    Cartesian   -0.01
    193 z         -1.959436     -1.958460     0.000976    Cartesian   -0.05
    194 x          3.918873      3.917698    -0.001175    Cartesian   -0.03
    194 y        -11.756619    -11.749573     0.007046    Cartesian   -0.06
    194 z          7.837746      7.834251    -0.003495    Cartesian   -0.04
    195 x         11.756619     11.752986    -0.003633    Cartesian   -0.03
    195 y         11.756619     11.752986    -0.003633    Cartesian   -0.03
    195 z          7.837746      7.833987    -0.003759    Cartesian   -0.05
    196 x          3.918873      3.918081    -0.000792    Cartesian   -0.02
    196 y          3.918873      3.918081    -0.000792    Cartesian   -0.02
    196 z         15.675492     15.667635    -0.007857    Cartesian   -0.05
--------------------------------------------------------------------------------


  Time to end of optimisation  =       53.9560 seconds


  Peak dynamic memory used =     693.58 MB 


  Timing analysis for GULP :

--------------------------------------------------------------------------------
  Task / Subroutine                                          Time (Seconds)
--------------------------------------------------------------------------------
  Calculation of reciprocal space energy and derivatives          0.0003
  Calculation of reciprocal space energy using symmetry           0.0002
  Calculation of real space energy and derivatives                0.0026
  Calculation of real space energy using symmetry                 0.0017
  Calculation for region 1 energy and derivatives (2-b)          37.1260
  Calculation for region 2a energy                               14.1895
  Calculation for region 2b energy                                0.0002
  Calculation and manipulation of Hessian matrix                  1.8849
  Calculation of matrix inversion                                 0.0820
  Symmetry generation of equivalent positions                     0.0026
--------------------------------------------------------------------------------
  Total CPU time                                                 53.9562
--------------------------------------------------------------------------------


  Dump file written as Li3OCl.grs


  Job Finished at 12:30.03  1st December   2020                               

