********************************************************************************
*                       GENERAL UTILITY LATTICE PROGRAM                        *
*                                 Julian Gale                                  *
*                       Curtin Institute for Computation                       *
*                    School of Molecular and Life Sciences                     *
*                    Curtin University, Western Australia                      *
********************************************************************************
* Version = 5.2.0 * Last modified =  10th September 2020                       *
********************************************************************************
*  optimise     - perform optimisation run                                     *
*  conp         - constant pressure calculation                                *
*  property     - calculate properties for final geometry                      *
*  defect       - perform defect calculation after bulk run                    *
*  compare      - compare initial and final structures                         *
********************************************************************************

  Job Started  at 12:30.52  1st December   2020                               

  Number of CPUs =     1


  Total number of configurations input =      1

********************************************************************************
*  Input for Configuration =   1                                               *
********************************************************************************

  Formula = ClOLi3                                                      

  Number of irreducible atoms/shells =       5


  Total number atoms/shells =       7

  Dimensionality = 3               :  Bulk   


  Symmetry :

  Crystal family                   :  Cubic       
  Crystal class  (Groth - 1921)    :  Cubic Hexakisoctahedral              

  Space group (centrosymmetric)    :  P M 3 M         

  Patterson group                  :  P m -3 m 

  Cartesian lattice vectors (Angstroms) :

        3.918873    0.000000    0.000000
        0.000000    3.918873    0.000000
        0.000000    0.000000    3.918873

  Cell parameters (Angstroms/Degrees):

  a =       3.9189    alpha =  90.0000
  b =       3.9189    beta  =  90.0000
  c =       3.9189    gamma =  90.0000

  Initial cell volume =          60.184349 Angs**3

  Temperature of configuration =   0.00     K 

  Pressure of configuration =         0.000 GPa 

  Fractional coordinates of asymmetric unit :

--------------------------------------------------------------------------------
   No.  Atomic       x           y          z         Charge      Occupancy
        Label      (Frac)      (Frac)     (Frac)        (e)         (Frac)  
--------------------------------------------------------------------------------
      1 Cl    c    0.000000    0.000000    0.000000     1.48500    1.000000    
      2 O     c    0.500000    0.500000    0.500000     0.18300    1.000000    
      3 Li    c    0.500000    0.500000    0.000000     1.00000    1.000000    
      4 Cl    s    0.000000    0.000000    0.000000    -2.48500    1.000000    
      5 O     s    0.500000    0.500000    0.500000    -2.18300    1.000000    
--------------------------------------------------------------------------------


  Constraints : 

--------------------------------------------------------------------------------
  Constraint no.      Unconstrained     Constrained    Coefficient    Offset
                         Variable         Variable
--------------------------------------------------------------------------------
           1              Strain 1        Strain 2       1.00000      0.0000
           2              Strain 1        Strain 3       1.00000      0.0000
--------------------------------------------------------------------------------


********************************************************************************
*  General input information                                                   *
********************************************************************************

  Species output for all configurations : 

--------------------------------------------------------------------------------
  Species    Type    Atomic    Atomic    Charge       Radii (Angs)     Library
                     Number     Mass       (e)     Cova   Ionic  VDW   Symbol
--------------------------------------------------------------------------------
    Li       Core        3       6.94   1.000000   0.680  0.000  1.800          
    O        Core        8      16.00   0.183000   0.730  0.000  1.360          
    O        Shell       8       0.00  -2.183000   0.730  0.000  1.360          
    Cl       Core       17      35.45   1.485000   0.990  0.000  1.650          
    Cl       Shell      17       0.00  -2.485000   0.990  0.000  1.650          
    Mg       Core       12      24.31   0.415000   1.100  0.000  0.000          
    Mg       Shell      12       0.00   1.585000   1.100  0.000  0.000          
    Ca       Core       20      40.08  -1.135000   0.990  0.000  0.000          
    Ca       Shell      20       0.00   3.135000   0.990  0.000  0.000          
    Sr       Core       38      87.62  -1.251000   1.120  0.000  0.000          
    Sr       Shell      38       0.00   3.251000   1.120  0.000  0.000          
    Ba       Core       56     137.33  -7.203000   1.340  0.000  0.000          
    Ba       Shell      56       0.00   9.203000   1.340  0.000  0.000          
--------------------------------------------------------------------------------


  Lattice summation method               =    Ewald          (3-D)
                                         =    Parry          (2-D)
                                         =    Saunders et al (1-D)
  Accuracy factor for lattice sums       =   12.000


  Analytic derivatives to be used

  Time limit = Infinity

  Maximum range for interatomic potentials =    100000.000000 Angstroms

  General interatomic potentials :

--------------------------------------------------------------------------------
Atom  Types   Potential      Parameter       Value         Units   Cutoffs(Ang)
  1     2                                                            Min /  Max 
--------------------------------------------------------------------------------
O    c O    s Spring (c-s)  Spring k 2       593.71600    eV*Ang^-2 0.000  0.800
                            Spring k 4       0.0000000    eV*Ang^-4 
--------------------------------------------------------------------------------
Cl   c Cl   s Spring (c-s)  Spring k 2       29.380000    eV*Ang^-2 0.000  0.800
                            Spring k 4       0.0000000    eV*Ang^-4 
--------------------------------------------------------------------------------
Mg   c Mg   s Spring (c-s)  Spring k 2       361.60000    eV*Ang^-2 0.000  0.800
                            Spring k 4       0.0000000    eV*Ang^-4 
--------------------------------------------------------------------------------
Ca   c Ca   s Spring (c-s)  Spring k 2       110.20000    eV*Ang^-2 0.000  0.800
                            Spring k 4       0.0000000    eV*Ang^-4 
--------------------------------------------------------------------------------
Sr   c Sr   s Spring (c-s)  Spring k 2       71.700000    eV*Ang^-2 0.000  0.800
                            Spring k 4       0.0000000    eV*Ang^-4 
--------------------------------------------------------------------------------
Ba   c Ba   s Spring (c-s)  Spring k 2       495.20000    eV*Ang^-2 0.000  0.800
                            Spring k 4       0.0000000    eV*Ang^-4 
--------------------------------------------------------------------------------
Li   c Li   c Buckingham    Buckingham A     360.53000    eV        0.000 12.000
                            Buckingham rho  0.16100000    Ang       
                            Buckingham C     0.0000000    eV*Ang^6  
--------------------------------------------------------------------------------
Li   c O    s Buckingham    Buckingham A     292.30000    eV        0.000 12.000
                            Buckingham rho  0.34700000    Ang       
                            Buckingham C     0.0000000    eV*Ang^6  
--------------------------------------------------------------------------------
Li   c Cl   s Buckingham    Buckingham A     421.04000    eV        0.000 12.000
                            Buckingham rho  0.33400000    Ang       
                            Buckingham C     0.0000000    eV*Ang^6  
--------------------------------------------------------------------------------
O    s O    s Buckingham    Buckingham A     22764.300    eV        0.000 12.000
                            Buckingham rho  0.14900000    Ang       
                            Buckingham C     13.190000    eV*Ang^6  
--------------------------------------------------------------------------------
O    s Cl   s Buckingham    Buckingham A     8286.9100    eV        0.000 12.000
                            Buckingham rho  0.25900000    Ang       
                            Buckingham C     62.200000    eV*Ang^6  
--------------------------------------------------------------------------------
Cl   s Cl   s Buckingham    Buckingham A     1227.2000    eV        0.000 12.000
                            Buckingham rho  0.32100000    Ang       
                            Buckingham C     14.530000    eV*Ang^6  
--------------------------------------------------------------------------------
O    s Mg   s Buckingham    Buckingham A     1428.5000    eV        0.000 12.000
                            Buckingham rho  0.29450000    Ang       
                            Buckingham C     0.0000000    eV*Ang^6  
--------------------------------------------------------------------------------
Mg   s Cl   s Buckingham    Buckingham A     4914.5400    eV        0.000 12.000
                            Buckingham rho  0.25700000    Ang       
                            Buckingham C     0.0000000    eV*Ang^6  
--------------------------------------------------------------------------------
O    s Ca   s Buckingham    Buckingham A     1090.4000    eV        0.000 12.000
                            Buckingham rho  0.34370000    Ang       
                            Buckingham C     0.0000000    eV*Ang^6  
--------------------------------------------------------------------------------
Cl   s Ca   s Buckingham    Buckingham A     2302.0000    eV        0.000 12.000
                            Buckingham rho  0.34020000    Ang       
                            Buckingham C     0.0000000    eV*Ang^6  
--------------------------------------------------------------------------------
O    s Sr   s Buckingham    Buckingham A     959.10000    eV        0.000 12.000
                            Buckingham rho  0.37210000    Ang       
                            Buckingham C     0.0000000    eV*Ang^6  
--------------------------------------------------------------------------------
Cl   s Sr   s Buckingham    Buckingham A     2191.0900    eV        0.000 12.000
                            Buckingham rho  0.34570000    Ang       
                            Buckingham C     0.0000000    eV*Ang^6  
--------------------------------------------------------------------------------
O    s Ba   s Buckingham    Buckingham A     905.70000    eV        0.000 12.000
                            Buckingham rho  0.39760000    Ang       
                            Buckingham C     0.0000000    eV*Ang^6  
--------------------------------------------------------------------------------
Cl   s Ba   s Buckingham    Buckingham A     2704.5500    eV        0.000 12.000
                            Buckingham rho  0.35280000    Ang       
                            Buckingham C     0.0000000    eV*Ang^6  
--------------------------------------------------------------------------------

********************************************************************************
*  Output for configuration   1                                                *
********************************************************************************


  Components of energy : 

--------------------------------------------------------------------------------
  Interatomic potentials     =           7.24802695 eV    
  Monopole - monopole (real) =         -11.53475722 eV    
  Monopole - monopole (recip)=         -33.94580548 eV    
  Monopole - monopole (total)=         -45.48056271 eV    
--------------------------------------------------------------------------------
  Total lattice energy       =         -38.23253575 eV    
--------------------------------------------------------------------------------
  Total lattice energy       =           -3688.8553 kJ/(mole unit cells)
--------------------------------------------------------------------------------


  Number of variables =        1

  Maximum number of calculations  =          1000
  Maximum Hessian update interval =            10
  Maximum step size               =   1.000000000
  Maximum parameter tolerance     =   0.000010000
  Maximum function  tolerance     =   0.000010000
  Maximum gradient  tolerance     =   0.001000000
  Maximum gradient  component     =   0.010000000

  Symmetry constrained optimisation

  Symmetry used for second derivatives

  Cell parameters to be optimised using strains

  Newton-Raphson optimiser to be used

  BFGS hessian update to be used

  Lower half triangular hessian to be used

  Start of bulk optimisation :

  Cycle:      0 Energy:       -38.232536  Gnorm:      0.000019  CPU:    0.017


  **** Optimisation achieved ****


  Final energy =     -38.23253575 eV
  Final Gnorm  =       0.00001878

  Components of energy : 

--------------------------------------------------------------------------------
  Interatomic potentials     =           7.24802695 eV    
  Monopole - monopole (real) =         -11.53475722 eV    
  Monopole - monopole (recip)=         -33.94580548 eV    
  Monopole - monopole (total)=         -45.48056271 eV    
--------------------------------------------------------------------------------
  Total lattice energy       =         -38.23253575 eV    
--------------------------------------------------------------------------------
  Total lattice energy       =           -3688.8553 kJ/(mole unit cells)
--------------------------------------------------------------------------------

  Final asymmetric unit coordinates :

--------------------------------------------------------------------------------
   No.  Atomic        x           y           z         Radius
        Label       (Frac)      (Frac)      (Frac)       (Angs) 
--------------------------------------------------------------------------------
     1  Cl    c     0.000000    0.000000    0.000000    0.000000
     2  O     c     0.500000    0.500000    0.500000    0.000000
     3  Li    c     0.500000    0.500000    0.000000    0.000000
     4  Cl    s     0.000000    0.000000    0.000000    0.000000
     5  O     s     0.500000    0.500000    0.500000    0.000000
--------------------------------------------------------------------------------

  Final Cartesian lattice vectors (Angstroms) :

        3.918873    0.000000    0.000000
        0.000000    3.918873    0.000000
        0.000000    0.000000    3.918873


  Final cell parameters and derivatives :

--------------------------------------------------------------------------------
       a            3.918873 Angstrom     dE/de1(xx)    -0.000019 eV/strain
       b            3.918873 Angstrom     dE/de2(yy)     0.000000 eV/strain
       c            3.918873 Angstrom     dE/de3(zz)     0.000000 eV/strain
       alpha       90.000000 Degrees      dE/de4(yz)     0.000000 eV/strain
       beta        90.000000 Degrees      dE/de5(xz)     0.000000 eV/strain
       gamma       90.000000 Degrees      dE/de6(xy)     0.000000 eV/strain
--------------------------------------------------------------------------------

  Primitive cell volume =            60.184349 Angs**3

  Density of cell =      1.994024 g/cm**3

  Non-primitive cell volume =            60.184349 Angs**3


  Final internal derivatives :

--------------------------------------------------------------------------------
   No.  Atomic          a             b             c           Radius
        Label          (eV)          (eV)          (eV)        (eV/Angs)
--------------------------------------------------------------------------------
      1 Cl    c       0.000000      0.000000      0.000000      0.000000
      2 O     c       0.000000      0.000000      0.000000      0.000000
      3 Li    c       0.000000      0.000000      0.000000      0.000000
      4 Cl    s       0.000000      0.000000      0.000000      0.000000
      5 O     s       0.000000      0.000000      0.000000      0.000000
--------------------------------------------------------------------------------
  Maximum abs         0.000000      0.000000      0.000000      0.000000
--------------------------------------------------------------------------------

  Comparison of initial and final structures : 

--------------------------------------------------------------------------------
  Parameter   Initial value   Final value   Difference    Units      Percent
--------------------------------------------------------------------------------
    Volume        60.184349     60.184349     0.000000    Angs**3      0.00
    a              3.918873      3.918873     0.000000    Angstroms    0.00
    b              3.918873      3.918873     0.000000    Angstroms    0.00
    c              3.918873      3.918873     0.000000    Angstroms    0.00
    alpha         90.000000     90.000000     0.000000    Degrees      0.00
    beta          90.000000     90.000000     0.000000    Degrees      0.00
    gamma         90.000000     90.000000     0.000000    Degrees      0.00
      1 x          0.000000      0.000000     0.000000    Fractional   0.00
      1 y          0.000000      0.000000     0.000000    Fractional   0.00
      1 z          0.000000      0.000000     0.000000    Fractional   0.00
      2 x          0.500000      0.500000     0.000000    Fractional   0.00
      2 y          0.500000      0.500000     0.000000    Fractional   0.00
      2 z          0.500000      0.500000     0.000000    Fractional   0.00
      3 x          0.500000      0.500000     0.000000    Fractional   0.00
      3 y          0.500000      0.500000     0.000000    Fractional   0.00
      3 z          0.000000      0.000000     0.000000    Fractional   0.00
      4 x          0.000000      0.000000     0.000000    Fractional   0.00
      4 y          0.000000      0.000000     0.000000    Fractional   0.00
      4 z          0.000000      0.000000     0.000000    Fractional   0.00
      5 x          0.500000      0.500000     0.000000    Fractional   0.00
      5 y          0.500000      0.500000     0.000000    Fractional   0.00
      5 z          0.500000      0.500000     0.000000    Fractional   0.00
--------------------------------------------------------------------------------


  Born effective charge tensors : 

-------------------------------------------------------------------------------
  Atom             x           y             z
-------------------------------------------------------------------------------
    1 Cl    x      -0.9481      0.0000      0.0000
            y       0.0000     -0.9481      0.0000
            z       0.0000      0.0000     -0.9481
-------------------------------------------------------------------------------
    2 O     x      -2.4696     -0.0000     -0.0000
            y      -0.0000     -2.4696     -0.0000
            z      -0.0000     -0.0000     -2.4696
-------------------------------------------------------------------------------
    3 Li    x       1.3129     -0.0000     -0.0000
            y      -0.0000      1.3129      0.0000
            z      -0.0000     -0.0000      0.7918
-------------------------------------------------------------------------------




  Elastic Constant Matrix: (Units=GPa)

-------------------------------------------------------------------------------
  Indices      1         2         3         4         5         6    
-------------------------------------------------------------------------------
       1     94.4615   45.0779   45.0779    0.0000   -0.0000    0.0000
       2     45.0779   94.4615   45.0779   -0.0000    0.0000   -0.0000
       3     45.0779   45.0779   94.4615   -0.0000   -0.0000   -0.0000
       4      0.0000   -0.0000   -0.0000   45.0779   -0.0000   -0.0000
       5     -0.0000    0.0000   -0.0000   -0.0000   45.0779   -0.0000
       6      0.0000   -0.0000   -0.0000   -0.0000   -0.0000   45.0779
-------------------------------------------------------------------------------


  Elastic Compliance Matrix: (Units=1/GPa)

-------------------------------------------------------------------------------
  Indices      1         2         3         4         5         6    
-------------------------------------------------------------------------------
       1    0.015305 -0.004944 -0.004944 -0.000000  0.000000 -0.000000
       2   -0.004944  0.015305 -0.004944  0.000000 -0.000000  0.000000
       3   -0.004944 -0.004944  0.015305  0.000000  0.000000  0.000000
       4   -0.000000  0.000000  0.000000  0.022184  0.000000  0.000000
       5    0.000000 -0.000000  0.000000  0.000000  0.022184  0.000000
       6   -0.000000  0.000000  0.000000  0.000000  0.000000  0.022184
-------------------------------------------------------------------------------

  Mechanical properties :

-------------------------------------------------------------------------------
  Convention :                    Reuss         Voigt         Hill
-------------------------------------------------------------------------------
  Bulk  Modulus (GPa)     =      61.53912      61.53912      61.53912
  Shear Modulus (GPa)     =      33.88682      36.92346      35.40514
-------------------------------------------------------------------------------
  Velocity S-wave (km/s)  =       4.12240       4.30314       4.21374
  Velocity P-wave (km/s)  =       7.31578       7.45327       7.38484
-------------------------------------------------------------------------------
  Compressibility (1/GPa) =    0.01624983
-------------------------------------------------------------------------------
  Stress axis :                     x             y             z
-------------------------------------------------------------------------------
  Youngs Moduli (GPa)     =      65.33688      65.33688      65.33688
-------------------------------------------------------------------------------
  Poissons Ratio (x)      =                     0.32305       0.32305
  Poissons Ratio (y)      =       0.32305                     0.32305
  Poissons Ratio (z)      =       0.32305       0.32305
-------------------------------------------------------------------------------


  Piezoelectric Strain Matrix: (Units=C/m**2)

-------------------------------------------------------------------------------
  Indices      1         2         3         4         5         6    
-------------------------------------------------------------------------------
       x    -0.00000   0.00000   0.00000   0.00000   0.00000   0.00000
       y    -0.00000  -0.00000  -0.00000   0.00000   0.00000  -0.00000
       z    -0.00000  -0.00000   0.00000   0.00000  -0.00000   0.00000
-------------------------------------------------------------------------------


  Piezoelectric Stress Matrix: (Units=10**-11 C/N)

-------------------------------------------------------------------------------
  Indices      1         2         3         4         5         6    
-------------------------------------------------------------------------------
       x    -0.00000   0.00000   0.00000   0.00000   0.00000   0.00000
       y     0.00000   0.00000  -0.00000   0.00000   0.00000  -0.00000
       z    -0.00000  -0.00000   0.00000   0.00000  -0.00000   0.00000
-------------------------------------------------------------------------------


  Static dielectric constant tensor : 

-------------------------------------------------------------------------------
              x         y         z
-------------------------------------------------------------------------------
       x    12.07041   0.00000   0.00000
       y     0.00000  12.07041   0.00000
       z     0.00000   0.00000  12.07041
--------------------------------------------------------------------------------

  High frequency dielectric constant tensor : 

-------------------------------------------------------------------------------
              x         y         z
-------------------------------------------------------------------------------
       x     1.74197  -0.00000  -0.00000
       y    -0.00000   1.74197  -0.00000
       z    -0.00000  -0.00000   1.74197
-------------------------------------------------------------------------------

  Static refractive indices : 

-------------------------------------------------------------------------------
    1 =    3.47425      2 =    3.47425      3 =    3.47425
-------------------------------------------------------------------------------

  High frequency refractive indices : 

-------------------------------------------------------------------------------
    1 =    1.31984      2 =    1.31984      3 =    1.31984
-------------------------------------------------------------------------------


  Time to end of optimisation =       0.0250 seconds

********************************************************************************
*  Defect calculation for configuration   1 :                                  *
********************************************************************************

  Total number of defects =      1

  Total charge on defect  =   1.00

  Defect centre is at   0.5000   0.5000   0.0000  Frac

  Region 1 radius =  16.0000      Number of ions =   2034

  Number of symmetry inequivalent region 1 ions  =    196

  Region 2 radius =  20.0000      Number of ions =   1870

  Number of symmetry inequivalent region 2a ions =    153

  Region 2a mode = 4 : screened electrostatics due to region 1 
                       neglect correction to region 1 forces from 2a
                       region 2a displacements based on defects only

  Region 2a ions will only interact with defects in region 1

  Impurities:

--------------------------------------------------------------------------------
    Specification type     Symbol/Number         x          y          z
--------------------------------------------------------------------------------
    Frac/Symbol             Sr               0.500000   0.500000   0.000000
--------------------------------------------------------------------------------


  Symmetry reduced region 1 (Relative to defect centre) :

--------------------------------------------------------------------------------
   No.   Atomic       x            y             z       Radius  Multiplicity   
         Label      (Angs)       (Angs)        (Angs)    (Angs)     
--------------------------------------------------------------------------------
     1  Sr    c      0.0000       0.0000       0.0000    0.0000     1    Defect
     2  O     c      0.0000       0.0000      -1.9594 *  0.0000     2          
     3  Cl    c      1.9594 *     1.9594       0.0000    0.0000     4          
     4  Li    c      1.9594 *     0.0000      -1.9594 *  0.0000     8          
     5  Li    c      0.0000       0.0000       3.9189 *  0.0000     2          
     6  Li    c      0.0000       3.9189 *     0.0000    0.0000     4          
     7  O     c      0.0000       3.9189 *    -1.9594 *  0.0000     8          
     8  Cl    c      1.9594 *     1.9594       3.9189 *  0.0000     8          
     9  Li    c      1.9594 *     3.9189 *    -1.9594 *  0.0000    16          
    10  Li    c      0.0000       3.9189 *     3.9189 *  0.0000     8          
    11  Li    c      3.9189 *     3.9189       0.0000    0.0000     4          
    12  O     c      0.0000       0.0000       5.8783 *  0.0000     2          
    13  O     c      3.9189 *     3.9189      -1.9594 *  0.0000     8          
    14  Cl    c      1.9594 *     5.8783 *     0.0000    0.0000     8          
    15  Li    c      1.9594 *     0.0000       5.8783 *  0.0000     8          
    16  Li    c      5.8783 *     0.0000      -1.9594 *  0.0000     8          
    17  Li    c      3.9189 *     3.9189       3.9189 *  0.0000     8          
    18  O     c      0.0000       3.9189 *     5.8783 *  0.0000     8          
    19  Cl    c      1.9594 *     5.8783 *     3.9189 *  0.0000    16          
    20  Li    c      1.9594 *     3.9189 *     5.8783 *  0.0000    16          
    21  Li    c      5.8783 *     3.9189 *    -1.9594 *  0.0000    16          
    22  Li    c      0.0000       7.8377 *     0.0000    0.0000     4          
    23  Li    c      0.0000       0.0000       7.8377 *  0.0000     2          
    24  O     c      0.0000       7.8377 *    -1.9594 *  0.0000     8          
    25  O     c      3.9189 *     3.9189       5.8783 *  0.0000     8          
    26  Li    c      1.9594 *     7.8377 *    -1.9594 *  0.0000    16          
    27  Cl    c      1.9594 *     1.9594       7.8377 *  0.0000     8          
    28  Cl    c      5.8783 *     5.8783       0.0000    0.0000     4          
    29  Li    c      5.8783 *     0.0000       5.8783 *  0.0000     8          
    30  Li    c      0.0000       7.8377 *     3.9189 *  0.0000     8          
    31  Li    c      3.9189 *     7.8377 *     0.0000    0.0000     8          
    32  Li    c      0.0000       3.9189 *     7.8377 *  0.0000     8          
    33  O     c      3.9189 *     7.8377 *    -1.9594 *  0.0000    16          
    34  Cl    c      5.8783 *     5.8783       3.9189 *  0.0000     8          
    35  Li    c      5.8783 *     3.9189 *     5.8783 *  0.0000    16          
    36  Li    c      3.9189 *     7.8377 *     3.9189 *  0.0000    16          
    37  Li    c      3.9189 *     3.9189       7.8377 *  0.0000     8          
    38  O     c      0.0000       0.0000       9.7972 *  0.0000     2          
    39  O     c      0.0000       7.8377 *     5.8783 *  0.0000     8          
    40  Cl    c      1.9594 *     5.8783 *     7.8377 *  0.0000    16          
    41  Cl    c      1.9594 *     9.7972 *     0.0000    0.0000     8          
    42  Li    c      1.9594 *     0.0000       9.7972 *  0.0000     8          
    43  Li    c      1.9594 *     7.8377 *     5.8783 *  0.0000    16          
    44  Li    c      5.8783 *     7.8377 *    -1.9594 *  0.0000    16          
    45  Li    c      9.7972 *     0.0000      -1.9594 *  0.0000     8          
    46  O     c      0.0000       3.9189 *     9.7972 *  0.0000     8          
    47  O     c      3.9189 *     7.8377 *     5.8783 *  0.0000    16          
    48  Li    c      1.9594 *     3.9189 *     9.7972 *  0.0000    16          
    49  Cl    c      1.9594 *     9.7972 *     3.9189 *  0.0000    16          
    50  Li    c      9.7972 *     3.9189 *    -1.9594 *  0.0000    16          
    51  Li    c      7.8377 *     7.8377       0.0000    0.0000     4          
    52  Li    c      0.0000       7.8377 *     7.8377 *  0.0000     8          
    53  O     c      7.8377 *     7.8377      -1.9594 *  0.0000     8          
    54  O     c      3.9189 *     3.9189       9.7972 *  0.0000     8          
    55  Cl    c      5.8783 *     5.8783       7.8377 *  0.0000     8          
    56  Cl    c      5.8783 *     9.7972 *     0.0000    0.0000     8          
    57  Li    c      5.8783 *     0.0000       9.7972 *  0.0000     8          
    58  Li    c      5.8783 *     7.8377 *     5.8783 *  0.0000    16          
    59  Li    c      9.7972 *     0.0000       5.8783 *  0.0000     8          
    60  Li    c      0.0000     -11.7566 *     0.0000    0.0000     4          
    61  Li    c      3.9189 *     7.8377 *     7.8377 *  0.0000    16          
    62  Li    c      7.8377 *     7.8377       3.9189 *  0.0000     8          
    63  Li    c      0.0000       0.0000      11.7566 *  0.0000     2          
    64  O     c      0.0000     -11.7566 *    -1.9594 *  0.0000     8          
    65  Li    c      1.9594 *   -11.7566 *    -1.9594 *  0.0000    16          
    66  Cl    c      5.8783 *     9.7972 *     3.9189 *  0.0000    16          
    67  Li    c      5.8783 *     3.9189 *     9.7972 *  0.0000    16          
    68  Li    c      9.7972 *     3.9189 *     5.8783 *  0.0000    16          
    69  Cl    c      1.9594 *     1.9594      11.7566 *  0.0000     8          
    70  Li    c      0.0000     -11.7566 *     3.9189 *  0.0000     8          
    71  Li    c      3.9189 *   -11.7566 *     0.0000    0.0000     8          
    72  Li    c      0.0000       3.9189 *    11.7566 *  0.0000     8          
    73  O     c      3.9189 *   -11.7566 *    -1.9594 *  0.0000    16          
    74  O     c      0.0000       7.8377 *     9.7972 *  0.0000     8          
    75  O     c      7.8377 *     7.8377       5.8783 *  0.0000     8          
    76  Li    c      1.9594 *     7.8377 *     9.7972 *  0.0000    16          
    77  Li    c      9.7972 *     7.8377 *    -1.9594 *  0.0000    16          
    78  Cl    c      1.9594 *     9.7972 *     7.8377 *  0.0000    16          
    79  Li    c      3.9189 *   -11.7566 *     3.9189 *  0.0000    16          
    80  Li    c      3.9189 *     3.9189      11.7566 *  0.0000     8          
    81  O     c      0.0000     -11.7566 *     5.8783 *  0.0000     8          
    82  O     c      3.9189 *     7.8377 *     9.7972 *  0.0000    16          
    83  Li    c      1.9594 *   -11.7566 *     5.8783 *  0.0000    16          
    84  Li    c      5.8783 *   -11.7566 *    -1.9594 *  0.0000    16          
    85  Cl    c      1.9594 *     5.8783 *    11.7566 *  0.0000    16          
    86  Li    c      7.8377 *     7.8377       7.8377 *  0.0000     8          
    87  O     c      3.9189 *   -11.7566 *     5.8783 *  0.0000    16          
    88  O     c      0.0000       0.0000      13.7161 *  0.0000     2          
    89  Cl    c      1.9594 *   -13.7161 *     0.0000    0.0000     8          
    90  Li    c    -13.7161 *     0.0000      -1.9594 *  0.0000     8          
    91  Cl    c      9.7972 *     9.7972       0.0000    0.0000     4          
    92  Li    c      1.9594 *     0.0000      13.7161 *  0.0000     8          
    93  Li    c      5.8783 *     7.8377 *     9.7972 *  0.0000    16          
    94  Li    c      9.7972 *     0.0000       9.7972 *  0.0000     8          
    95  Li    c      9.7972 *     7.8377 *     5.8783 *  0.0000    16          
    96  Cl    c      5.8783 *     9.7972 *     7.8377 *  0.0000    16          
    97  Li    c      7.8377 *   -11.7566 *     0.0000    0.0000     8          
    98  Li    c      0.0000     -11.7566 *     7.8377 *  0.0000     8          
    99  Li    c      0.0000       7.8377 *    11.7566 *  0.0000     8          
   100  O     c      7.8377 *   -11.7566 *    -1.9594 *  0.0000    16          
   101  O     c      0.0000       3.9189 *    13.7161 *  0.0000     8          
   102  Cl    c      1.9594 *   -13.7161 *     3.9189 *  0.0000    16          
   103  Li    c    -13.7161 *     3.9189 *    -1.9594 *  0.0000    16          
   104  Li    c      5.8783 *   -11.7566 *     5.8783 *  0.0000    16          
   105  Cl    c      9.7972 *     9.7972       3.9189 *  0.0000     8          
   106  Li    c      9.7972 *     3.9189 *     9.7972 *  0.0000    16          
   107  Li    c      1.9594 *     3.9189 *    13.7161 *  0.0000    16          
   108  Cl    c      5.8783 *     5.8783      11.7566 *  0.0000     8          
   109  Li    c      7.8377 *   -11.7566 *     3.9189 *  0.0000    16          
   110  Li    c      3.9189 *   -11.7566 *     7.8377 *  0.0000    16          
   111  Li    c      3.9189 *     7.8377 *    11.7566 *  0.0000    16          
   112  O     c      7.8377 *     7.8377       9.7972 *  0.0000     8          
   113  O     c      3.9189 *     3.9189      13.7161 *  0.0000     8          
   114  Cl    c      5.8783 *   -13.7161 *     0.0000    0.0000     8          
   115  Li    c    -13.7161 *     0.0000       5.8783 *  0.0000     8          
   116  Li    c      5.8783 *     0.0000      13.7161 *  0.0000     8          
   117  O     c      0.0000     -11.7566 *     9.7972 *  0.0000     8          
   118  O     c      7.8377 *   -11.7566 *     5.8783 *  0.0000    16          
   119  Cl    c      5.8783 *   -13.7161 *     3.9189 *  0.0000    16          
   120  Li    c      9.7972 *   -11.7566 *    -1.9594 *  0.0000    16          
   121  Li    c    -13.7161 *     3.9189 *     5.8783 *  0.0000    16          
   122  Li    c      1.9594 *   -11.7566 *     9.7972 *  0.0000    16          
   123  Cl    c      1.9594 *     9.7972 *    11.7566 *  0.0000    16          
   124  Li    c      5.8783 *     3.9189 *    13.7161 *  0.0000    16          
   125  Li    c      0.0000       0.0000      15.6755 *  0.0000     2          
   126  Li    c      0.0000      15.6755 *     0.0000    0.0000     4          
   127  O     c      3.9189 *   -11.7566 *     9.7972 *  0.0000    16          
   128  O     c      0.0000       7.8377 *    13.7161 *  0.0000     8          
   129  O     c      0.0000      15.6755 *    -1.9594 *  0.0000     8          
   130  Li    c    -13.7161 *     7.8377 *    -1.9594 *  0.0000    16          
   131  Cl    c      1.9594 *   -13.7161 *     7.8377 *  0.0000    16          
   132  Li    c      1.9594 *     7.8377 *    13.7161 *  0.0000    16          
   133  Li    c      9.7972 *     7.8377 *     9.7972 *  0.0000    16          
   134  Cl    c      9.7972 *     9.7972       7.8377 *  0.0000     8          
   135  Li    c      1.9594 *    15.6755 *    -1.9594 *  0.0000    16          
   136  Cl    c      1.9594 *     1.9594      15.6755 *  0.0000     8          
   137  Sr    s      0.0000       0.0000       0.0000    0.0000     1    Defect
   138  O     s      0.0000       0.0000      -1.9594 *  0.0000     2          
   139  Cl    s      1.9594 *     1.9594       0.0000    0.0000     4          
   140  O     s      0.0000       3.9189 *    -1.9594 *  0.0000     8          
   141  Cl    s      1.9594 *     1.9594       3.9189 *  0.0000     8          
   142  O     s      0.0000       0.0000       5.8783 *  0.0000     2          
   143  O     s      3.9189 *     3.9189      -1.9594 *  0.0000     8          
   144  Cl    s      1.9594 *     5.8783 *     0.0000    0.0000     8          
   145  O     s      0.0000       3.9189 *     5.8783 *  0.0000     8          
   146  Cl    s      1.9594 *     5.8783 *     3.9189 *  0.0000    16          
   147  O     s      0.0000       7.8377 *    -1.9594 *  0.0000     8          
   148  O     s      3.9189 *     3.9189       5.8783 *  0.0000     8          
   149  Cl    s      1.9594 *     1.9594       7.8377 *  0.0000     8          
   150  Cl    s      5.8783 *     5.8783       0.0000    0.0000     4          
   151  O     s      3.9189 *     7.8377 *    -1.9594 *  0.0000    16          
   152  Cl    s      5.8783 *     5.8783       3.9189 *  0.0000     8          
   153  O     s      0.0000       0.0000       9.7972 *  0.0000     2          
   154  O     s      0.0000       7.8377 *     5.8783 *  0.0000     8          
   155  Cl    s      1.9594 *     5.8783 *     7.8377 *  0.0000    16          
   156  Cl    s      1.9594 *     9.7972 *     0.0000    0.0000     8          
   157  O     s      0.0000       3.9189 *     9.7972 *  0.0000     8          
   158  O     s      3.9189 *     7.8377 *     5.8783 *  0.0000    16          
   159  Cl    s      1.9594 *     9.7972 *     3.9189 *  0.0000    16          
   160  O     s      7.8377 *     7.8377      -1.9594 *  0.0000     8          
   161  O     s      3.9189 *     3.9189       9.7972 *  0.0000     8          
   162  Cl    s      5.8783 *     5.8783       7.8377 *  0.0000     8          
   163  Cl    s      5.8783 *     9.7972 *     0.0000    0.0000     8          
   164  O     s      0.0000     -11.7566 *    -1.9594 *  0.0000     8          
   165  Cl    s      5.8783 *     9.7972 *     3.9189 *  0.0000    16          
   166  Cl    s      1.9594 *     1.9594      11.7566 *  0.0000     8          
   167  O     s      3.9189 *   -11.7566 *    -1.9594 *  0.0000    16          
   168  O     s      0.0000       7.8377 *     9.7972 *  0.0000     8          
   169  O     s      7.8377 *     7.8377       5.8783 *  0.0000     8          
   170  Cl    s      1.9594 *     9.7972 *     7.8377 *  0.0000    16          
   171  O     s      0.0000     -11.7566 *     5.8783 *  0.0000     8          
   172  O     s      3.9189 *     7.8377 *     9.7972 *  0.0000    16          
   173  Cl    s      1.9594 *     5.8783 *    11.7566 *  0.0000    16          
   174  O     s      3.9189 *   -11.7566 *     5.8783 *  0.0000    16          
   175  O     s      0.0000       0.0000      13.7161 *  0.0000     2          
   176  Cl    s      1.9594 *   -13.7161 *     0.0000    0.0000     8          
   177  Cl    s      9.7972 *     9.7972       0.0000    0.0000     4          
   178  Cl    s      5.8783 *     9.7972 *     7.8377 *  0.0000    16          
   179  O     s      7.8377 *   -11.7566 *    -1.9594 *  0.0000    16          
   180  O     s      0.0000       3.9189 *    13.7161 *  0.0000     8          
   181  Cl    s      1.9594 *   -13.7161 *     3.9189 *  0.0000    16          
   182  Cl    s      9.7972 *     9.7972       3.9189 *  0.0000     8          
   183  Cl    s      5.8783 *     5.8783      11.7566 *  0.0000     8          
   184  O     s      7.8377 *     7.8377       9.7972 *  0.0000     8          
   185  O     s      3.9189 *     3.9189      13.7161 *  0.0000     8          
   186  Cl    s      5.8783 *   -13.7161 *     0.0000    0.0000     8          
   187  O     s      0.0000     -11.7566 *     9.7972 *  0.0000     8          
   188  O     s      7.8377 *   -11.7566 *     5.8783 *  0.0000    16          
   189  Cl    s      5.8783 *   -13.7161 *     3.9189 *  0.0000    16          
   190  Cl    s      1.9594 *     9.7972 *    11.7566 *  0.0000    16          
   191  O     s      3.9189 *   -11.7566 *     9.7972 *  0.0000    16          
   192  O     s      0.0000       7.8377 *    13.7161 *  0.0000     8          
   193  O     s      0.0000      15.6755 *    -1.9594 *  0.0000     8          
   194  Cl    s      1.9594 *   -13.7161 *     7.8377 *  0.0000    16          
   195  Cl    s      9.7972 *     9.7972       7.8377 *  0.0000     8          
   196  Cl    s      1.9594 *     1.9594      15.6755 *  0.0000     8          
--------------------------------------------------------------------------------


  Constraints on symmetry reduced coordinates :

--------------------------------------------------------------------------------
  Constraint no.      Unconstrained     Constrained    Coefficient    
                         Variable         Variable
--------------------------------------------------------------------------------
           1                 3 x             3 y         1.00000
           2                 8 x             8 y         1.00000
           3                11 x            11 y         1.00000
           4                13 x            13 y         1.00000
           5                17 x            17 y         1.00000
           6                25 x            25 y         1.00000
           7                27 x            27 y         1.00000
           8                28 x            28 y         1.00000
           9                34 x            34 y         1.00000
          10                37 x            37 y         1.00000
          11                51 x            51 y         1.00000
          12                53 x            53 y         1.00000
          13                54 x            54 y         1.00000
          14                55 x            55 y         1.00000
          15                62 x            62 y         1.00000
          16                69 x            69 y         1.00000
          17                75 x            75 y         1.00000
          18                80 x            80 y         1.00000
          19                86 x            86 y         1.00000
          20                91 x            91 y         1.00000
          21               105 x           105 y         1.00000
          22               108 x           108 y         1.00000
          23               112 x           112 y         1.00000
          24               113 x           113 y         1.00000
          25               134 x           134 y         1.00000
          26               136 x           136 y         1.00000
          27               139 x           139 y         1.00000
          28               141 x           141 y         1.00000
          29               143 x           143 y         1.00000
          30               148 x           148 y         1.00000
          31               149 x           149 y         1.00000
          32               150 x           150 y         1.00000
          33               152 x           152 y         1.00000
          34               160 x           160 y         1.00000
          35               161 x           161 y         1.00000
          36               162 x           162 y         1.00000
          37               166 x           166 y         1.00000
          38               169 x           169 y         1.00000
          39               177 x           177 y         1.00000
          40               182 x           182 y         1.00000
          41               183 x           183 y         1.00000
          42               184 x           184 y         1.00000
          43               185 x           185 y         1.00000
          44               195 x           195 y         1.00000
          45               196 x           196 y         1.00000
--------------------------------------------------------------------------------


  Components of defect energy : 

--------------------------------------------------------------------------------
  Region 1 - region 1                   =    -18.51659781 eV
  Region 1 - region 2a (unrelaxed)      =     17.04107169 eV
  Region 1 - 2a (relaxed - correction)  =     -0.15918559 eV
  Region 1 (Total)                      =     -1.63471171 eV
  Region 2a                             =      0.07959844 eV
  Region 2b                             =     -0.33005010 eV
--------------------------------------------------------------------------------
  Total defect energy                   =     -1.88516336 eV
--------------------------------------------------------------------------------

  Largest displacement in region 2 =   0.0049 Angstroms


  Number of variables =      439

  Maximum number of calculations  =        1000
  Maximum Hessian update interval =          10
  Maximum step size               =   1.0000000
  Maximum parameter tolerance     =   0.0000100
  Maximum function  tolerance     =   0.0000100
  Maximum gradient  tolerance     =   0.0010000

  Symmetry adapted optimisation

  Symmetry to be used for second derivatives

  Newton-Raphson optimiser to be used

  BFGS hessian update to be used

  Lower half triangular hessian to be used

  Start of defect optimisation :

  Cycle:      0 Defect Energy:  -1.885163  Gnorm:     0.110603  CPU:   12.012
  ** Hessian calculated **
  Cycle:      1 Defect Energy:  -6.208539  Gnorm:     0.008043  CPU:   21.477
  Cycle:      2 Defect Energy:  -6.269676  Gnorm:     0.006173  CPU:   23.071
  Cycle:      3 Defect Energy:  -6.314134  Gnorm:     0.004294  CPU:   24.741
  Cycle:      4 Defect Energy:  -6.336588  Gnorm:     0.003014  CPU:   26.300
  Cycle:      5 Defect Energy:  -6.348361  Gnorm:     0.002116  CPU:   27.723
  Cycle:      6 Defect Energy:  -6.354447  Gnorm:     0.001483  CPU:   29.412
  Cycle:      7 Defect Energy:  -6.357559  Gnorm:     0.001039  CPU:   31.124
  Cycle:      8 Defect Energy:  -6.359137  Gnorm:     0.000728  CPU:   32.917
  Cycle:      9 Defect Energy:  -6.359933  Gnorm:     0.000510  CPU:   34.545
  Cycle:     10 Defect Energy:  -6.360333  Gnorm:     0.000357  CPU:   36.171
  ** Hessian calculated **
  Cycle:     11 Defect Energy:  -6.360534  Gnorm:     0.000250  CPU:   40.143
  Cycle:     12 Defect Energy:  -6.360635  Gnorm:     0.000175  CPU:   41.804
  Cycle:     13 Defect Energy:  -6.360686  Gnorm:     0.000123  CPU:   43.425
  Cycle:     14 Defect Energy:  -6.360713  Gnorm:     0.000086  CPU:   45.120
  Cycle:     15 Defect Energy:  -6.360726  Gnorm:     0.000060  CPU:   46.680
  Cycle:     16 Defect Energy:  -6.360733  Gnorm:     0.000042  CPU:   48.234


  **** Optimisation achieved ****


  Final defect energy  =       -6.36073717
  Final defect Gnorm   =        0.00002946

  Components of defect energy : 

--------------------------------------------------------------------------------
  Region 1 - region 1                   =    -23.36894605 eV
  Region 1 - region 2a (unrelaxed)      =     17.40249028 eV
  Region 1 - 2a (relaxed - correction)  =     -0.12844694 eV
  Region 1 (Total)                      =     -6.09490271 eV
  Region 2a                             =      0.06421564 eV
  Region 2b                             =     -0.33005010 eV
--------------------------------------------------------------------------------
  Total defect energy                   =     -6.36073717 eV
--------------------------------------------------------------------------------

  Largest displacement in region 2 =   0.0049 Angstroms

  Final coordinates of region 1 :

--------------------------------------------------------------------------------
   No.  Atomic        x           y           z          Radius      Charge
        Label       (Angs)      (Angs)      (Angs)       (Angs)       (e) 
--------------------------------------------------------------------------------
     1  Sr    c     1.959436    1.959436    0.000000    0.000000   -1.251000
     2  O     c     1.959436    1.959436   -2.246815    0.000000    0.183000
     3  O     c     1.959436    1.959436    2.246815    0.000000    0.183000
     4  Cl    c     3.997408    3.997408    0.000000    0.000000    1.485000
     5  Cl    c     3.997408   -0.078535    0.000000    0.000000    1.485000
     6  Cl    c    -0.078535    3.997408    0.000000    0.000000    1.485000
     7  Cl    c    -0.078535   -0.078535    0.000000    0.000000    1.485000
     8  Li    c     4.013316    1.959436   -2.349406    0.000000    1.000000
     9  Li    c     4.013316    1.959436    2.349406    0.000000    1.000000
    10  Li    c    -0.094443    1.959436   -2.349406    0.000000    1.000000
    11  Li    c    -0.094443    1.959436    2.349406    0.000000    1.000000
    12  Li    c     1.959436    4.013316   -2.349406    0.000000    1.000000
    13  Li    c     1.959436    4.013316    2.349406    0.000000    1.000000
    14  Li    c     1.959436   -0.094443   -2.349406    0.000000    1.000000
    15  Li    c     1.959436   -0.094443    2.349406    0.000000    1.000000
    16  Li    c     1.959436    1.959436    4.118156    0.000000    1.000000
    17  Li    c     1.959436    1.959436   -4.118156    0.000000    1.000000
    18  Li    c     1.959436    5.839241    0.000000    0.000000    1.000000
    19  Li    c     1.959436   -1.920368    0.000000    0.000000    1.000000
    20  Li    c     5.839241    1.959436    0.000000    0.000000    1.000000
    21  Li    c    -1.920368    1.959436    0.000000    0.000000    1.000000
    22  O     c     1.959436    5.867493   -2.010355    0.000000    0.183000
    23  O     c     1.959436    5.867493    2.010355    0.000000    0.183000
    24  O     c     1.959436   -1.948620   -2.010355    0.000000    0.183000
    25  O     c     1.959436   -1.948620    2.010355    0.000000    0.183000
    26  O     c     5.867493    1.959436   -2.010355    0.000000    0.183000
    27  O     c     5.867493    1.959436    2.010355    0.000000    0.183000
    28  O     c    -1.948620    1.959436   -2.010355    0.000000    0.183000
    29  O     c    -1.948620    1.959436    2.010355    0.000000    0.183000
    30  Cl    c     3.938704    3.938704    3.986109    0.000000    1.485000
    31  Cl    c     3.938704    3.938704   -3.986109    0.000000    1.485000
    32  Cl    c     3.938704   -0.019831    3.986109    0.000000    1.485000
    33  Cl    c     3.938704   -0.019831   -3.986109    0.000000    1.485000
    34  Cl    c    -0.019831    3.938704    3.986109    0.000000    1.485000
    35  Cl    c    -0.019831    3.938704   -3.986109    0.000000    1.485000
    36  Cl    c    -0.019831   -0.019831    3.986109    0.000000    1.485000
    37  Cl    c    -0.019831   -0.019831   -3.986109    0.000000    1.485000
    38  Li    c     3.933038    5.910840   -1.974458    0.000000    1.000000
    39  Li    c     3.933038    5.910840    1.974458    0.000000    1.000000
    40  Li    c     3.933038   -1.991967   -1.974458    0.000000    1.000000
    41  Li    c     3.933038   -1.991967    1.974458    0.000000    1.000000
    42  Li    c    -0.014165    5.910840   -1.974458    0.000000    1.000000
    43  Li    c    -0.014165    5.910840    1.974458    0.000000    1.000000
    44  Li    c    -0.014165   -1.991967   -1.974458    0.000000    1.000000
    45  Li    c    -0.014165   -1.991967    1.974458    0.000000    1.000000
    46  Li    c     5.910840    3.933038   -1.974458    0.000000    1.000000
    47  Li    c     5.910840    3.933038    1.974458    0.000000    1.000000
    48  Li    c     5.910840   -0.014165   -1.974458    0.000000    1.000000
    49  Li    c     5.910840   -0.014165    1.974458    0.000000    1.000000
    50  Li    c    -1.991967    3.933038   -1.974458    0.000000    1.000000
    51  Li    c    -1.991967    3.933038    1.974458    0.000000    1.000000
    52  Li    c    -1.991967   -0.014165   -1.974458    0.000000    1.000000
    53  Li    c    -1.991967   -0.014165    1.974458    0.000000    1.000000
    54  Li    c     1.959436    6.028764    3.994564    0.000000    1.000000
    55  Li    c     1.959436    6.028764   -3.994564    0.000000    1.000000
    56  Li    c     1.959436   -2.109891    3.994564    0.000000    1.000000
    57  Li    c     1.959436   -2.109891   -3.994564    0.000000    1.000000
    58  Li    c     6.028764    1.959436    3.994564    0.000000    1.000000
    59  Li    c     6.028764    1.959436   -3.994564    0.000000    1.000000
    60  Li    c    -2.109891    1.959436    3.994564    0.000000    1.000000
    61  Li    c    -2.109891    1.959436   -3.994564    0.000000    1.000000
    62  Li    c     5.904893    5.904893    0.000000    0.000000    1.000000
    63  Li    c     5.904893   -1.986020    0.000000    0.000000    1.000000
    64  Li    c    -1.986020    5.904893    0.000000    0.000000    1.000000
    65  Li    c    -1.986020   -1.986020    0.000000    0.000000    1.000000
    66  O     c     1.959436    1.959436    5.964378    0.000000    0.183000
    67  O     c     1.959436    1.959436   -5.964378    0.000000    0.183000
    68  O     c     5.885244    5.885244   -1.971838    0.000000    0.183000
    69  O     c     5.885244    5.885244    1.971838    0.000000    0.183000
    70  O     c     5.885244   -1.966371   -1.971838    0.000000    0.183000
    71  O     c     5.885244   -1.966371    1.971838    0.000000    0.183000
    72  O     c    -1.966371    5.885244   -1.971838    0.000000    0.183000
    73  O     c    -1.966371    5.885244    1.971838    0.000000    0.183000
    74  O     c    -1.966371   -1.966371   -1.971838    0.000000    0.183000
    75  O     c    -1.966371   -1.966371    1.971838    0.000000    0.183000
    76  Cl    c     3.901809    7.811541    0.000000    0.000000    1.485000
    77  Cl    c     3.901809   -3.892668    0.000000    0.000000    1.485000
    78  Cl    c     7.811541    3.901809    0.000000    0.000000    1.485000
    79  Cl    c     7.811541    0.017064    0.000000    0.000000    1.485000
    80  Cl    c     0.017064    7.811541    0.000000    0.000000    1.485000
    81  Cl    c     0.017064   -3.892668    0.000000    0.000000    1.485000
    82  Cl    c    -3.892668    3.901809    0.000000    0.000000    1.485000
    83  Cl    c    -3.892668    0.017064    0.000000    0.000000    1.485000
    84  Li    c     3.949461    1.959436    5.968116    0.000000    1.000000
    85  Li    c     3.949461    1.959436   -5.968116    0.000000    1.000000
    86  Li    c    -0.030588    1.959436    5.968116    0.000000    1.000000
    87  Li    c    -0.030588    1.959436   -5.968116    0.000000    1.000000
    88  Li    c     1.959436    3.949461    5.968116    0.000000    1.000000
    89  Li    c     1.959436    3.949461   -5.968116    0.000000    1.000000
    90  Li    c     1.959436   -0.030588    5.968116    0.000000    1.000000
    91  Li    c     1.959436   -0.030588   -5.968116    0.000000    1.000000
    92  Li    c     7.845937    1.959436   -1.939494    0.000000    1.000000
    93  Li    c     7.845937    1.959436    1.939494    0.000000    1.000000
    94  Li    c    -3.927064    1.959436   -1.939494    0.000000    1.000000
    95  Li    c    -3.927064    1.959436    1.939494    0.000000    1.000000
    96  Li    c     1.959436    7.845937   -1.939494    0.000000    1.000000
    97  Li    c     1.959436    7.845937    1.939494    0.000000    1.000000
    98  Li    c     1.959436   -3.927064   -1.939494    0.000000    1.000000
    99  Li    c     1.959436   -3.927064    1.939494    0.000000    1.000000
   100  Li    c     5.890440    5.890440    3.939212    0.000000    1.000000
   101  Li    c     5.890440    5.890440   -3.939212    0.000000    1.000000
   102  Li    c     5.890440   -1.971567    3.939212    0.000000    1.000000
   103  Li    c     5.890440   -1.971567   -3.939212    0.000000    1.000000
   104  Li    c    -1.971567    5.890440    3.939212    0.000000    1.000000
   105  Li    c    -1.971567    5.890440   -3.939212    0.000000    1.000000
   106  Li    c    -1.971567   -1.971567    3.939212    0.000000    1.000000
   107  Li    c    -1.971567   -1.971567   -3.939212    0.000000    1.000000
   108  O     c     1.959436    5.904508    5.916201    0.000000    0.183000
   109  O     c     1.959436    5.904508   -5.916201    0.000000    0.183000
   110  O     c     1.959436   -1.985635    5.916201    0.000000    0.183000
   111  O     c     1.959436   -1.985635   -5.916201    0.000000    0.183000
   112  O     c     5.904508    1.959436    5.916201    0.000000    0.183000
   113  O     c     5.904508    1.959436   -5.916201    0.000000    0.183000
   114  O     c    -1.985635    1.959436    5.916201    0.000000    0.183000
   115  O     c    -1.985635    1.959436   -5.916201    0.000000    0.183000
   116  Cl    c     3.915823    7.837475    3.928883    0.000000    1.485000
   117  Cl    c     3.915823    7.837475   -3.928883    0.000000    1.485000
   118  Cl    c     3.915823   -3.918602    3.928883    0.000000    1.485000
   119  Cl    c     3.915823   -3.918602   -3.928883    0.000000    1.485000
   120  Cl    c     7.837475    3.915823    3.928883    0.000000    1.485000
   121  Cl    c     7.837475    3.915823   -3.928883    0.000000    1.485000
   122  Cl    c     7.837475    0.003050    3.928883    0.000000    1.485000
   123  Cl    c     7.837475    0.003050   -3.928883    0.000000    1.485000
   124  Cl    c     0.003050    7.837475    3.928883    0.000000    1.485000
   125  Cl    c     0.003050    7.837475   -3.928883    0.000000    1.485000
   126  Cl    c     0.003050   -3.918602    3.928883    0.000000    1.485000
   127  Cl    c     0.003050   -3.918602   -3.928883    0.000000    1.485000
   128  Cl    c    -3.918602    3.915823    3.928883    0.000000    1.485000
   129  Cl    c    -3.918602    3.915823   -3.928883    0.000000    1.485000
   130  Cl    c    -3.918602    0.003050    3.928883    0.000000    1.485000
   131  Cl    c    -3.918602    0.003050   -3.928883    0.000000    1.485000
   132  Li    c     3.931183    5.897915    5.919401    0.000000    1.000000
   133  Li    c     3.931183    5.897915   -5.919401    0.000000    1.000000
   134  Li    c     3.931183   -1.979042    5.919401    0.000000    1.000000
   135  Li    c     3.931183   -1.979042   -5.919401    0.000000    1.000000
   136  Li    c    -0.012310    5.897915    5.919401    0.000000    1.000000
   137  Li    c    -0.012310    5.897915   -5.919401    0.000000    1.000000
   138  Li    c    -0.012310   -1.979042    5.919401    0.000000    1.000000
   139  Li    c    -0.012310   -1.979042   -5.919401    0.000000    1.000000
   140  Li    c     5.897915    3.931183    5.919401    0.000000    1.000000
   141  Li    c     5.897915    3.931183   -5.919401    0.000000    1.000000
   142  Li    c     5.897915   -0.012310    5.919401    0.000000    1.000000
   143  Li    c     5.897915   -0.012310   -5.919401    0.000000    1.000000
   144  Li    c    -1.979042    3.931183    5.919401    0.000000    1.000000
   145  Li    c    -1.979042    3.931183   -5.919401    0.000000    1.000000
   146  Li    c    -1.979042   -0.012310    5.919401    0.000000    1.000000
   147  Li    c    -1.979042   -0.012310   -5.919401    0.000000    1.000000
   148  Li    c     7.847477    5.893899   -1.972682    0.000000    1.000000
   149  Li    c     7.847477    5.893899    1.972682    0.000000    1.000000
   150  Li    c     7.847477   -1.975026   -1.972682    0.000000    1.000000
   151  Li    c     7.847477   -1.975026    1.972682    0.000000    1.000000
   152  Li    c    -3.928604    5.893899   -1.972682    0.000000    1.000000
   153  Li    c    -3.928604    5.893899    1.972682    0.000000    1.000000
   154  Li    c    -3.928604   -1.975026   -1.972682    0.000000    1.000000
   155  Li    c    -3.928604   -1.975026    1.972682    0.000000    1.000000
   156  Li    c     5.893899    7.847477   -1.972682    0.000000    1.000000
   157  Li    c     5.893899    7.847477    1.972682    0.000000    1.000000
   158  Li    c     5.893899   -3.928604   -1.972682    0.000000    1.000000
   159  Li    c     5.893899   -3.928604    1.972682    0.000000    1.000000
   160  Li    c    -1.975026    7.847477   -1.972682    0.000000    1.000000
   161  Li    c    -1.975026    7.847477    1.972682    0.000000    1.000000
   162  Li    c    -1.975026   -3.928604   -1.972682    0.000000    1.000000
   163  Li    c    -1.975026   -3.928604    1.972682    0.000000    1.000000
   164  Li    c     1.959436    9.816711    0.000000    0.000000    1.000000
   165  Li    c     9.816711    1.959436    0.000000    0.000000    1.000000
   166  Li    c     1.959436   -5.897838    0.000000    0.000000    1.000000
   167  Li    c    -5.897838    1.959436    0.000000    0.000000    1.000000
   168  Li    c     1.959436    1.959436    7.887023    0.000000    1.000000
   169  Li    c     1.959436    1.959436   -7.887023    0.000000    1.000000
   170  O     c     1.959436    9.792836   -1.959800    0.000000    0.183000
   171  O     c     1.959436    9.792836    1.959800    0.000000    0.183000
   172  O     c     9.792836    1.959436   -1.959800    0.000000    0.183000
   173  O     c     9.792836    1.959436    1.959800    0.000000    0.183000
   174  O     c     1.959436   -5.873963   -1.959800    0.000000    0.183000
   175  O     c     1.959436   -5.873963    1.959800    0.000000    0.183000
   176  O     c    -5.873963    1.959436   -1.959800    0.000000    0.183000
   177  O     c    -5.873963    1.959436    1.959800    0.000000    0.183000
   178  O     c     5.886671    5.886671    5.895631    0.000000    0.183000
   179  O     c     5.886671    5.886671   -5.895631    0.000000    0.183000
   180  O     c     5.886671   -1.967798    5.895631    0.000000    0.183000
   181  O     c     5.886671   -1.967798   -5.895631    0.000000    0.183000
   182  O     c    -1.967798    5.886671    5.895631    0.000000    0.183000
   183  O     c    -1.967798    5.886671   -5.895631    0.000000    0.183000
   184  O     c    -1.967798   -1.967798    5.895631    0.000000    0.183000
   185  O     c    -1.967798   -1.967798   -5.895631    0.000000    0.183000
   186  Li    c     3.919592    9.805768   -1.965477    0.000000    1.000000
   187  Li    c     3.919592    9.805768    1.965477    0.000000    1.000000
   188  Li    c    -0.000719    9.805768   -1.965477    0.000000    1.000000
   189  Li    c    -0.000719    9.805768    1.965477    0.000000    1.000000
   190  Li    c     9.805768    3.919592   -1.965477    0.000000    1.000000
   191  Li    c     9.805768    3.919592    1.965477    0.000000    1.000000
   192  Li    c     9.805768   -0.000719   -1.965477    0.000000    1.000000
   193  Li    c     9.805768   -0.000719    1.965477    0.000000    1.000000
   194  Li    c     3.919592   -5.886895   -1.965477    0.000000    1.000000
   195  Li    c     3.919592   -5.886895    1.965477    0.000000    1.000000
   196  Li    c    -0.000719   -5.886895   -1.965477    0.000000    1.000000
   197  Li    c    -0.000719   -5.886895    1.965477    0.000000    1.000000
   198  Li    c    -5.886895    3.919592   -1.965477    0.000000    1.000000
   199  Li    c    -5.886895    3.919592    1.965477    0.000000    1.000000
   200  Li    c    -5.886895   -0.000719   -1.965477    0.000000    1.000000
   201  Li    c    -5.886895   -0.000719    1.965477    0.000000    1.000000
   202  Cl    c     3.927448    3.927448    7.854629    0.000000    1.485000
   203  Cl    c     3.927448    3.927448   -7.854629    0.000000    1.485000
   204  Cl    c     3.927448   -0.008575    7.854629    0.000000    1.485000
   205  Cl    c     3.927448   -0.008575   -7.854629    0.000000    1.485000
   206  Cl    c    -0.008575    3.927448    7.854629    0.000000    1.485000
   207  Cl    c    -0.008575    3.927448   -7.854629    0.000000    1.485000
   208  Cl    c    -0.008575   -0.008575    7.854629    0.000000    1.485000
   209  Cl    c    -0.008575   -0.008575   -7.854629    0.000000    1.485000
   210  Cl    c     7.831720    7.831720    0.000000    0.000000    1.485000
   211  Cl    c     7.831720   -3.912847    0.000000    0.000000    1.485000
   212  Cl    c    -3.912847    7.831720    0.000000    0.000000    1.485000
   213  Cl    c    -3.912847   -3.912847    0.000000    0.000000    1.485000
   214  Li    c     7.870606    1.959436    5.955276    0.000000    1.000000
   215  Li    c     7.870606    1.959436   -5.955276    0.000000    1.000000
   216  Li    c    -3.951733    1.959436    5.955276    0.000000    1.000000
   217  Li    c    -3.951733    1.959436   -5.955276    0.000000    1.000000
   218  Li    c     1.959436    7.870606    5.955276    0.000000    1.000000
   219  Li    c     1.959436    7.870606   -5.955276    0.000000    1.000000
   220  Li    c     1.959436   -3.951733    5.955276    0.000000    1.000000
   221  Li    c     1.959436   -3.951733   -5.955276    0.000000    1.000000
   222  Li    c     1.959436    9.792831    3.927758    0.000000    1.000000
   223  Li    c     1.959436    9.792831   -3.927758    0.000000    1.000000
   224  Li    c     9.792831    1.959436    3.927758    0.000000    1.000000
   225  Li    c     9.792831    1.959436   -3.927758    0.000000    1.000000
   226  Li    c     1.959436   -5.873958    3.927758    0.000000    1.000000
   227  Li    c     1.959436   -5.873958   -3.927758    0.000000    1.000000
   228  Li    c    -5.873958    1.959436    3.927758    0.000000    1.000000
   229  Li    c    -5.873958    1.959436   -3.927758    0.000000    1.000000
   230  Li    c     5.880136    9.802161    0.000000    0.000000    1.000000
   231  Li    c     9.802161    5.880136    0.000000    0.000000    1.000000
   232  Li    c     9.802161   -1.961263    0.000000    0.000000    1.000000
   233  Li    c    -1.961263    9.802161    0.000000    0.000000    1.000000
   234  Li    c     5.880136   -5.883288    0.000000    0.000000    1.000000
   235  Li    c    -1.961263   -5.883288    0.000000    0.000000    1.000000
   236  Li    c    -5.883288    5.880136    0.000000    0.000000    1.000000
   237  Li    c    -5.883288   -1.961263    0.000000    0.000000    1.000000
   238  Li    c     1.959436    5.905049    7.874235    0.000000    1.000000
   239  Li    c     1.959436    5.905049   -7.874235    0.000000    1.000000
   240  Li    c     1.959436   -1.986176    7.874235    0.000000    1.000000
   241  Li    c     1.959436   -1.986176   -7.874235    0.000000    1.000000
   242  Li    c     5.905049    1.959436    7.874235    0.000000    1.000000
   243  Li    c     5.905049    1.959436   -7.874235    0.000000    1.000000
   244  Li    c    -1.986176    1.959436    7.874235    0.000000    1.000000
   245  Li    c    -1.986176    1.959436   -7.874235    0.000000    1.000000
   246  O     c     5.876369    9.793990   -1.959933    0.000000    0.183000
   247  O     c     5.876369    9.793990    1.959933    0.000000    0.183000
   248  O     c     9.793990    5.876369   -1.959933    0.000000    0.183000
   249  O     c     9.793990    5.876369    1.959933    0.000000    0.183000
   250  O     c     9.793990   -1.957496   -1.959933    0.000000    0.183000
   251  O     c     9.793990   -1.957496    1.959933    0.000000    0.183000
   252  O     c    -1.957496    9.793990   -1.959933    0.000000    0.183000
   253  O     c    -1.957496    9.793990    1.959933    0.000000    0.183000
   254  O     c     5.876369   -5.875117   -1.959933    0.000000    0.183000
   255  O     c     5.876369   -5.875117    1.959933    0.000000    0.183000
   256  O     c    -1.957496   -5.875117   -1.959933    0.000000    0.183000
   257  O     c    -1.957496   -5.875117    1.959933    0.000000    0.183000
   258  O     c    -5.875117    5.876369   -1.959933    0.000000    0.183000
   259  O     c    -5.875117    5.876369    1.959933    0.000000    0.183000
   260  O     c    -5.875117   -1.957496   -1.959933    0.000000    0.183000
   261  O     c    -5.875117   -1.957496    1.959933    0.000000    0.183000
   262  Cl    c     7.837019    7.837019    3.921214    0.000000    1.485000
   263  Cl    c     7.837019    7.837019   -3.921214    0.000000    1.485000
   264  Cl    c     7.837019   -3.918146    3.921214    0.000000    1.485000
   265  Cl    c     7.837019   -3.918146   -3.921214    0.000000    1.485000
   266  Cl    c    -3.918146    7.837019    3.921214    0.000000    1.485000
   267  Cl    c    -3.918146    7.837019   -3.921214    0.000000    1.485000
   268  Cl    c    -3.918146   -3.918146    3.921214    0.000000    1.485000
   269  Cl    c    -3.918146   -3.918146   -3.921214    0.000000    1.485000
   270  Li    c     7.848769    5.889572    5.892871    0.000000    1.000000
   271  Li    c     7.848769    5.889572   -5.892871    0.000000    1.000000
   272  Li    c     7.848769   -1.970699    5.892871    0.000000    1.000000
   273  Li    c     7.848769   -1.970699   -5.892871    0.000000    1.000000
   274  Li    c    -3.929896    5.889572    5.892871    0.000000    1.000000
   275  Li    c    -3.929896    5.889572   -5.892871    0.000000    1.000000
   276  Li    c    -3.929896   -1.970699    5.892871    0.000000    1.000000
   277  Li    c    -3.929896   -1.970699   -5.892871    0.000000    1.000000
   278  Li    c     5.889572    7.848769    5.892871    0.000000    1.000000
   279  Li    c     5.889572    7.848769   -5.892871    0.000000    1.000000
   280  Li    c     5.889572   -3.929896    5.892871    0.000000    1.000000
   281  Li    c     5.889572   -3.929896   -5.892871    0.000000    1.000000
   282  Li    c    -1.970699    7.848769    5.892871    0.000000    1.000000
   283  Li    c    -1.970699    7.848769   -5.892871    0.000000    1.000000
   284  Li    c    -1.970699   -3.929896    5.892871    0.000000    1.000000
   285  Li    c    -1.970699   -3.929896   -5.892871    0.000000    1.000000
   286  Li    c     5.883558    9.808578    3.924325    0.000000    1.000000
   287  Li    c     5.883558    9.808578   -3.924325    0.000000    1.000000
   288  Li    c     9.808578    5.883558    3.924325    0.000000    1.000000
   289  Li    c     9.808578    5.883558   -3.924325    0.000000    1.000000
   290  Li    c     9.808578   -1.964685    3.924325    0.000000    1.000000
   291  Li    c     9.808578   -1.964685   -3.924325    0.000000    1.000000
   292  Li    c    -1.964685    9.808578    3.924325    0.000000    1.000000
   293  Li    c    -1.964685    9.808578   -3.924325    0.000000    1.000000
   294  Li    c     5.883558   -5.889705    3.924325    0.000000    1.000000
   295  Li    c     5.883558   -5.889705   -3.924325    0.000000    1.000000
   296  Li    c    -1.964685   -5.889705    3.924325    0.000000    1.000000
   297  Li    c    -1.964685   -5.889705   -3.924325    0.000000    1.000000
   298  Li    c    -5.889705    5.883558    3.924325    0.000000    1.000000
   299  Li    c    -5.889705    5.883558   -3.924325    0.000000    1.000000
   300  Li    c    -5.889705   -1.964685    3.924325    0.000000    1.000000
   301  Li    c    -5.889705   -1.964685   -3.924325    0.000000    1.000000
   302  Li    c     5.893219    5.893219    7.858257    0.000000    1.000000
   303  Li    c     5.893219    5.893219   -7.858257    0.000000    1.000000
   304  Li    c     5.893219   -1.974346    7.858257    0.000000    1.000000
   305  Li    c     5.893219   -1.974346   -7.858257    0.000000    1.000000
   306  Li    c    -1.974346    5.893219    7.858257    0.000000    1.000000
   307  Li    c    -1.974346    5.893219   -7.858257    0.000000    1.000000
   308  Li    c    -1.974346   -1.974346    7.858257    0.000000    1.000000
   309  Li    c    -1.974346   -1.974346   -7.858257    0.000000    1.000000
   310  O     c     1.959436    1.959436    9.818659    0.000000    0.183000
   311  O     c     1.959436    1.959436   -9.818659    0.000000    0.183000
   312  O     c     1.959436    9.803828    5.891404    0.000000    0.183000
   313  O     c     1.959436    9.803828   -5.891404    0.000000    0.183000
   314  O     c     9.803828    1.959436    5.891404    0.000000    0.183000
   315  O     c     9.803828    1.959436   -5.891404    0.000000    0.183000
   316  O     c     1.959436   -5.884955    5.891404    0.000000    0.183000
   317  O     c     1.959436   -5.884955   -5.891404    0.000000    0.183000
   318  O     c    -5.884955    1.959436    5.891404    0.000000    0.183000
   319  O     c    -5.884955    1.959436   -5.891404    0.000000    0.183000
   320  Cl    c     3.921855    7.844799    7.848865    0.000000    1.485000
   321  Cl    c     3.921855    7.844799   -7.848865    0.000000    1.485000
   322  Cl    c     3.921855   -3.925926    7.848865    0.000000    1.485000
   323  Cl    c     3.921855   -3.925926   -7.848865    0.000000    1.485000
   324  Cl    c     7.844799    3.921855    7.848865    0.000000    1.485000
   325  Cl    c     7.844799    3.921855   -7.848865    0.000000    1.485000
   326  Cl    c     7.844799   -0.002982    7.848865    0.000000    1.485000
   327  Cl    c     7.844799   -0.002982   -7.848865    0.000000    1.485000
   328  Cl    c    -0.002982    7.844799    7.848865    0.000000    1.485000
   329  Cl    c    -0.002982    7.844799   -7.848865    0.000000    1.485000
   330  Cl    c    -0.002982   -3.925926    7.848865    0.000000    1.485000
   331  Cl    c    -0.002982   -3.925926   -7.848865    0.000000    1.485000
   332  Cl    c    -3.925926    3.921855    7.848865    0.000000    1.485000
   333  Cl    c    -3.925926    3.921855   -7.848865    0.000000    1.485000
   334  Cl    c    -3.925926   -0.002982    7.848865    0.000000    1.485000
   335  Cl    c    -3.925926   -0.002982   -7.848865    0.000000    1.485000
   336  Cl    c     3.917258   11.747037    0.000000    0.000000    1.485000
   337  Cl    c     3.917258   -7.828164    0.000000    0.000000    1.485000
   338  Cl    c    11.747037    3.917258    0.000000    0.000000    1.485000
   339  Cl    c    11.747037    0.001615    0.000000    0.000000    1.485000
   340  Cl    c     0.001615   11.747037    0.000000    0.000000    1.485000
   341  Cl    c     0.001615   -7.828164    0.000000    0.000000    1.485000
   342  Cl    c    -7.828164    3.917258    0.000000    0.000000    1.485000
   343  Cl    c    -7.828164    0.001615    0.000000    0.000000    1.485000
   344  Li    c     3.924906    1.959436    9.825522    0.000000    1.000000
   345  Li    c     3.924906    1.959436   -9.825522    0.000000    1.000000
   346  Li    c    -0.006033    1.959436    9.825522    0.000000    1.000000
   347  Li    c    -0.006033    1.959436   -9.825522    0.000000    1.000000
   348  Li    c     1.959436    3.924906    9.825522    0.000000    1.000000
   349  Li    c     1.959436    3.924906   -9.825522    0.000000    1.000000
   350  Li    c     1.959436   -0.006033    9.825522    0.000000    1.000000
   351  Li    c     1.959436   -0.006033   -9.825522    0.000000    1.000000
   352  Li    c     3.922926    9.812239    5.887620    0.000000    1.000000
   353  Li    c     3.922926    9.812239   -5.887620    0.000000    1.000000
   354  Li    c     3.922926   -5.893366    5.887620    0.000000    1.000000
   355  Li    c     3.922926   -5.893366   -5.887620    0.000000    1.000000
   356  Li    c    -0.004053    9.812239    5.887620    0.000000    1.000000
   357  Li    c    -0.004053    9.812239   -5.887620    0.000000    1.000000
   358  Li    c    -0.004053   -5.893366    5.887620    0.000000    1.000000
   359  Li    c    -0.004053   -5.893366   -5.887620    0.000000    1.000000
   360  Li    c     9.812239    3.922926    5.887620    0.000000    1.000000
   361  Li    c     9.812239    3.922926   -5.887620    0.000000    1.000000
   362  Li    c     9.812239   -0.004053    5.887620    0.000000    1.000000
   363  Li    c     9.812239   -0.004053   -5.887620    0.000000    1.000000
   364  Li    c    -5.893366    3.922926    5.887620    0.000000    1.000000
   365  Li    c    -5.893366    3.922926   -5.887620    0.000000    1.000000
   366  Li    c    -5.893366   -0.004053    5.887620    0.000000    1.000000
   367  Li    c    -5.893366   -0.004053   -5.887620    0.000000    1.000000
   368  Li    c     7.842114    9.806567   -1.959993    0.000000    1.000000
   369  Li    c     7.842114    9.806567    1.959993    0.000000    1.000000
   370  Li    c    -3.923241    9.806567   -1.959993    0.000000    1.000000
   371  Li    c    -3.923241    9.806567    1.959993    0.000000    1.000000
   372  Li    c     9.806567    7.842114   -1.959993    0.000000    1.000000
   373  Li    c     9.806567    7.842114    1.959993    0.000000    1.000000
   374  Li    c     9.806567   -3.923241   -1.959993    0.000000    1.000000
   375  Li    c     9.806567   -3.923241    1.959993    0.000000    1.000000
   376  Li    c     7.842114   -5.887694   -1.959993    0.000000    1.000000
   377  Li    c     7.842114   -5.887694    1.959993    0.000000    1.000000
   378  Li    c    -3.923241   -5.887694   -1.959993    0.000000    1.000000
   379  Li    c    -3.923241   -5.887694    1.959993    0.000000    1.000000
   380  Li    c    -5.887694    7.842114   -1.959993    0.000000    1.000000
   381  Li    c    -5.887694    7.842114    1.959993    0.000000    1.000000
   382  Li    c    -5.887694   -3.923241   -1.959993    0.000000    1.000000
   383  Li    c    -5.887694   -3.923241    1.959993    0.000000    1.000000
[...]
    116 y          1.959436      1.959436     0.000000    Cartesian    0.00
    116 z         13.716055     13.722808     0.006753    Cartesian    0.05
    117 x          1.959436      1.959436     0.000000    Cartesian    0.00
    117 y         -9.797182     -9.796199     0.000983    Cartesian   -0.01
    117 z          9.797182      9.797382     0.000199    Cartesian    0.00
    118 x          9.797182      9.795489    -0.001694    Cartesian   -0.02
    118 y         -9.797182     -9.795134     0.002049    Cartesian   -0.02
    118 z          5.878309      5.876179    -0.002131    Cartesian   -0.04
    119 x          7.837746      7.835609    -0.002137    Cartesian   -0.03
    119 y        -11.756619    -11.751441     0.005178    Cartesian   -0.04
    119 z          3.918873      3.917222    -0.001651    Cartesian   -0.04
    120 x         11.756619     11.759486     0.002867    Cartesian    0.02
    120 y         -9.797182     -9.801939    -0.004757    Cartesian    0.05
    120 z         -1.959436     -1.960065    -0.000629    Cartesian    0.03
    121 x        -11.756619    -11.759627    -0.003008    Cartesian    0.03
    121 y          5.878309      5.880246     0.001936    Cartesian    0.03
    121 z          5.878309      5.880090     0.001781    Cartesian    0.03
    122 x          3.918873      3.919652     0.000779    Cartesian    0.02
    122 y         -9.797182     -9.801267    -0.004084    Cartesian    0.04
    122 z          9.797182      9.798307     0.001124    Cartesian    0.01
    123 x          3.918873      3.918650    -0.000223    Cartesian   -0.01
    123 y         11.756619     11.755546    -0.001073    Cartesian   -0.01
    123 z         11.756619     11.755491    -0.001128    Cartesian   -0.01
    124 x          7.837746      7.840656     0.002910    Cartesian    0.04
    124 y          5.878309      5.880048     0.001738    Cartesian    0.03
    124 z         13.716055     13.723342     0.007286    Cartesian    0.05
    125 x          1.959436      1.959436     0.000000    Cartesian    0.00
    125 y          1.959436      1.959436     0.000000    Cartesian    0.00
    125 z         15.675492     15.679032     0.003540    Cartesian    0.02
    126 x          1.959436      1.959436     0.000000    Cartesian    0.00
    126 y         17.634928     17.639000     0.004071    Cartesian    0.02
    126 z          0.000000      0.000000     0.000000    Cartesian    0.00
    127 x          5.878309      5.877202    -0.001108    Cartesian   -0.02
    127 y         -9.797182     -9.795153     0.002030    Cartesian   -0.02
    127 z          9.797182      9.795115    -0.002068    Cartesian   -0.02
    128 x          1.959436      1.959436     0.000000    Cartesian    0.00
    128 y          9.797182      9.796946    -0.000236    Cartesian   -0.00
    128 z         13.716055     13.715802    -0.000253    Cartesian   -0.00
    129 x          1.959436      1.959436     0.000000    Cartesian    0.00
    129 y         17.634928     17.632859    -0.002069    Cartesian   -0.01
    129 z         -1.959436     -1.958488     0.000949    Cartesian   -0.05
    130 x        -11.756619    -11.760596    -0.003977    Cartesian    0.03
    130 y          9.797182      9.801066     0.003883    Cartesian    0.04
    130 z         -1.959436     -1.960248    -0.000812    Cartesian    0.04
    131 x          3.918873      3.917888    -0.000985    Cartesian   -0.03
    131 y        -11.756619    -11.750916     0.005703    Cartesian   -0.05
    131 z          7.837746      7.834833    -0.002913    Cartesian   -0.04
    132 x          3.918873      3.919981     0.001108    Cartesian    0.03
    132 y          9.797182      9.800187     0.003005    Cartesian    0.03
    132 z         13.716055     13.722195     0.006139    Cartesian    0.04
    133 x         11.756619     11.760352     0.003733    Cartesian    0.03
    133 y          9.797182      9.801595     0.004413    Cartesian    0.05
    133 z          9.797182      9.803153     0.005970    Cartesian    0.06
    134 x         11.756619     11.753302    -0.003317    Cartesian   -0.03
    134 y         11.756619     11.753302    -0.003317    Cartesian   -0.03
    134 z          7.837746      7.834532    -0.003214    Cartesian   -0.04
    135 x          3.918873      3.919467     0.000594    Cartesian    0.02
    135 y         17.634928     17.641640     0.006711    Cartesian    0.04
    135 z         -1.959436     -1.960277    -0.000841    Cartesian    0.04
    136 x          3.918873      3.918164    -0.000709    Cartesian   -0.02
    136 y          3.918873      3.918164    -0.000709    Cartesian   -0.02
    136 z         15.675492     15.669026    -0.006466    Cartesian   -0.04
    137 x          1.959436      1.959436     0.000000    Cartesian    0.00
    137 y          1.959436      1.959436     0.000000    Cartesian    0.00
    137 z          0.000000      0.000000     0.000000    Cartesian    0.00
    138 x          1.959436      1.959436     0.000000    Cartesian    0.00
    138 y          1.959436      1.959436     0.000000    Cartesian    0.00
    138 z         -1.959436     -2.246539    -0.287102    Cartesian   14.65
    139 x          3.918873      3.967708     0.048835    Cartesian    1.25
    139 y          3.918873      3.967708     0.048835    Cartesian    1.25
    139 z          0.000000      0.000000     0.000000    Cartesian    0.00
    140 x          1.959436      1.959436     0.000000    Cartesian    0.00
    140 y          5.878309      5.867413    -0.010897    Cartesian   -0.19
    140 z         -1.959436     -2.010448    -0.051011    Cartesian    2.60
    141 x          3.918873      3.928264     0.009391    Cartesian    0.24
    141 y          3.918873      3.928264     0.009391    Cartesian    0.24
    141 z          3.918873      3.971247     0.052374    Cartesian    1.34
    142 x          1.959436      1.959436     0.000000    Cartesian    0.00
    142 y          1.959436      1.959436     0.000000    Cartesian    0.00
    142 z          5.878309      5.964258     0.085948    Cartesian    1.46
    143 x          5.878309      5.885245     0.006936    Cartesian    0.12
    143 y          5.878309      5.885245     0.006936    Cartesian    0.12
    143 z         -1.959436     -1.971845    -0.012408    Cartesian    0.63
    144 x          3.918873      3.897921    -0.020952    Cartesian   -0.53
    144 y          7.837746      7.806072    -0.031674    Cartesian   -0.40
    144 z          0.000000      0.000000     0.000000    Cartesian    0.00
    145 x          1.959436      1.959436     0.000000    Cartesian    0.00
    145 y          5.878309      5.904524     0.026215    Cartesian    0.45
    145 z          5.878309      5.916180     0.037871    Cartesian    0.64
    146 x          3.918873      3.911452    -0.007421    Cartesian   -0.19
    146 y          7.837746      7.832081    -0.005665    Cartesian   -0.07
    146 z          3.918873      3.927079     0.008206    Cartesian    0.21
    147 x          1.959436      1.959436     0.000000    Cartesian    0.00
    147 y          9.797182      9.792822    -0.004361    Cartesian   -0.04
    147 z         -1.959436     -1.959790    -0.000353    Cartesian    0.02
    148 x          5.878309      5.886668     0.008359    Cartesian    0.14
    148 y          5.878309      5.886668     0.008359    Cartesian    0.14
    148 z          5.878309      5.895633     0.017323    Cartesian    0.29
    149 x          3.918873      3.926575     0.007702    Cartesian    0.20
    149 y          3.918873      3.926575     0.007702    Cartesian    0.20
    149 z          7.837746      7.850084     0.012338    Cartesian    0.16
    150 x          7.837746      7.828482    -0.009264    Cartesian   -0.12
    150 y          7.837746      7.828482    -0.009264    Cartesian   -0.12
    150 z          0.000000      0.000000     0.000000    Cartesian    0.00
    151 x          5.878309      5.876365    -0.001944    Cartesian   -0.03
    151 y          9.797182      9.793975    -0.003207    Cartesian   -0.03
    151 z         -1.959436     -1.959932    -0.000495    Cartesian    0.03
    152 x          7.837746      7.835043    -0.002703    Cartesian   -0.03
    152 y          7.837746      7.835043    -0.002703    Cartesian   -0.03
    152 z          3.918873      3.919888     0.001015    Cartesian    0.03
    153 x          1.959436      1.959436     0.000000    Cartesian    0.00
    153 y          1.959436      1.959436     0.000000    Cartesian    0.00
    153 z          9.797182      9.818637     0.021455    Cartesian    0.22
    154 x          1.959436      1.959436     0.000000    Cartesian    0.00
    154 y          9.797182      9.803801     0.006618    Cartesian    0.07
    154 z          5.878309      5.891415     0.013105    Cartesian    0.22
    155 x          3.918873      3.920076     0.001203    Cartesian    0.03
    155 y          7.837746      7.842711     0.004965    Cartesian    0.06
    155 z          7.837746      7.846097     0.008351    Cartesian    0.11
    156 x          3.918873      3.916744    -0.002129    Cartesian   -0.05
    156 y         11.756619     11.744418    -0.012201    Cartesian   -0.10
    156 z          0.000000      0.000000     0.000000    Cartesian    0.00
    157 x          1.959436      1.959436     0.000000    Cartesian    0.00
    157 y          5.878309      5.884837     0.006528    Cartesian    0.11
    157 z          9.797182      9.810457     0.013274    Cartesian    0.14
    158 x          5.878309      5.880264     0.001955    Cartesian    0.03
    158 y          9.797182      9.800253     0.003071    Cartesian    0.03
    158 z          5.878309      5.881482     0.003172    Cartesian    0.05
    159 x          3.918873      3.917636    -0.001237    Cartesian   -0.03
    159 y         11.756619     11.747679    -0.008940    Cartesian   -0.08
    159 z          3.918873      3.917728    -0.001145    Cartesian   -0.03
    160 x          9.797182      9.797077    -0.000105    Cartesian   -0.00
    160 y          9.797182      9.797077    -0.000105    Cartesian   -0.00
    160 z         -1.959436     -1.958215     0.001222    Cartesian   -0.06
    161 x          5.878309      5.883766     0.005456    Cartesian    0.09
    161 y          5.878309      5.883766     0.005456    Cartesian    0.09
    161 z          9.797182      9.806739     0.009556    Cartesian    0.10
    162 x          7.837746      7.839039     0.001293    Cartesian    0.02
    162 y          7.837746      7.839039     0.001293    Cartesian    0.02
    162 z          7.837746      7.839583     0.001837    Cartesian    0.02
    163 x          7.837746      7.833450    -0.004296    Cartesian   -0.05
    163 y         11.756619     11.749394    -0.007225    Cartesian   -0.06
    163 z          0.000000      0.000000     0.000000    Cartesian    0.00
    164 x          1.959436      1.959436     0.000000    Cartesian    0.00
    164 y         -9.797182     -9.794737     0.002446    Cartesian   -0.02
    164 z         -1.959436     -1.959609    -0.000173    Cartesian    0.01
    165 x          7.837746      7.833961    -0.003785    Cartesian   -0.05
    165 y         11.756619     11.750574    -0.006045    Cartesian   -0.05
    165 z          3.918873      3.915011    -0.003862    Cartesian   -0.10
    166 x          3.918873      3.920787     0.001914    Cartesian    0.05
    166 y          3.918873      3.920787     0.001914    Cartesian    0.05
    166 z         11.756619     11.756311    -0.000308    Cartesian   -0.00
    167 x          5.878309      5.876888    -0.001422    Cartesian   -0.02
    167 y         -9.797182     -9.795688     0.001494    Cartesian   -0.02
    167 z         -1.959436     -1.958774     0.000662    Cartesian   -0.03
    168 x          1.959436      1.959436     0.000000    Cartesian    0.00
    168 y          9.797182      9.803971     0.006789    Cartesian    0.07
    168 z          9.797182      9.804190     0.007008    Cartesian    0.07
    169 x          9.797182      9.797963     0.000780    Cartesian    0.01
    169 y          9.797182      9.797963     0.000780    Cartesian    0.01
    169 z          5.878309      5.877858    -0.000451    Cartesian   -0.01
    170 x          3.918873      3.918784    -0.000089    Cartesian   -0.00
    170 y         11.756619     11.753819    -0.002800    Cartesian   -0.02
    170 z          7.837746      7.837014    -0.000732    Cartesian   -0.01
    171 x          1.959436      1.959436     0.000000    Cartesian    0.00
    171 y         -9.797182     -9.797190    -0.000008    Cartesian    0.00
    171 z          5.878309      5.876813    -0.001496    Cartesian   -0.03
    172 x          5.878309      5.880614     0.002305    Cartesian    0.04
    172 y          9.797182      9.800442     0.003260    Cartesian    0.03
    172 z          9.797182      9.800852     0.003670    Cartesian    0.04
    173 x          3.918873      3.919477     0.000604    Cartesian    0.02
    173 y          7.837746      7.838703     0.000957    Cartesian    0.01
    173 z         11.756619     11.756102    -0.000517    Cartesian   -0.00
    174 x          5.878309      5.878959     0.000649    Cartesian    0.01
    174 y         -9.797182     -9.796978     0.000205    Cartesian   -0.00
    174 z          5.878309      5.877968    -0.000342    Cartesian   -0.01
    175 x          1.959436      1.959436     0.000000    Cartesian    0.00
    175 y          1.959436      1.959436     0.000000    Cartesian    0.00
    175 z         13.716055     13.718107     0.002052    Cartesian    0.01
    176 x          3.918873      3.918943     0.000070    Cartesian    0.00
    176 y        -11.756619    -11.750639     0.005980    Cartesian   -0.05
    176 z          0.000000      0.000000     0.000000    Cartesian    0.00
    177 x         11.756619     11.753755    -0.002864    Cartesian   -0.02
    177 y         11.756619     11.753755    -0.002864    Cartesian   -0.02
    177 z          0.000000      0.000000     0.000000    Cartesian    0.00
    178 x          7.837746      7.836591    -0.001155    Cartesian   -0.01
    178 y         11.756619     11.754379    -0.002240    Cartesian   -0.02
    178 z          7.837746      7.835724    -0.002022    Cartesian   -0.03
    179 x          9.797182      9.797769     0.000586    Cartesian    0.01
    179 y         -9.797182     -9.797597    -0.000415    Cartesian    0.00
    179 z         -1.959436     -1.958830     0.000607    Cartesian   -0.03
    180 x          1.959436      1.959436     0.000000    Cartesian    0.00
    180 y          5.878309      5.880424     0.002115    Cartesian    0.04
    180 z         13.716055     13.717660     0.001605    Cartesian    0.01
    181 x          3.918873      3.918518    -0.000355    Cartesian   -0.01
    181 y        -11.756619    -11.751747     0.004872    Cartesian   -0.04
    181 z          3.918873      3.917794    -0.001079    Cartesian   -0.03
    182 x         11.756619     11.753786    -0.002833    Cartesian   -0.02
    182 y         11.756619     11.753786    -0.002833    Cartesian   -0.02
    182 z          3.918873      3.916676    -0.002197    Cartesian   -0.06
    183 x          7.837746      7.838405     0.000659    Cartesian    0.01
    183 y          7.837746      7.838405     0.000659    Cartesian    0.01
    183 z         11.756619     11.755882    -0.000737    Cartesian   -0.01
    184 x          9.797182      9.798645     0.001463    Cartesian    0.01
    184 y          9.797182      9.798645     0.001463    Cartesian    0.01
    184 z          9.797182      9.798300     0.001117    Cartesian    0.01
    185 x          5.878309      5.879627     0.001318    Cartesian    0.02
    185 y          5.878309      5.879627     0.001318    Cartesian    0.02
    185 z         13.716055     13.717663     0.001607    Cartesian    0.01
    186 x          7.837746      7.835068    -0.002678    Cartesian   -0.03
    186 y        -11.756619    -11.750796     0.005823    Cartesian   -0.05
    186 z          0.000000      0.000000     0.000000    Cartesian    0.00
    187 x          1.959436      1.959436     0.000000    Cartesian    0.00
    187 y         -9.797182     -9.796190     0.000992    Cartesian   -0.01
    187 z          9.797182      9.797384     0.000202    Cartesian    0.00
    188 x          9.797182      9.795485    -0.001697    Cartesian   -0.02
    188 y         -9.797182     -9.795129     0.002054    Cartesian   -0.02
    188 z          5.878309      5.876176    -0.002134    Cartesian   -0.04
    189 x          7.837746      7.835064    -0.002682    Cartesian   -0.03
    189 y        -11.756619    -11.750094     0.006525    Cartesian   -0.06
    189 z          3.918873      3.917003    -0.001870    Cartesian   -0.05
    190 x          3.918873      3.918145    -0.000728    Cartesian   -0.02
    190 y         11.756619     11.754727    -0.001892    Cartesian   -0.02
    190 z         11.756619     11.754490    -0.002129    Cartesian   -0.02
    191 x          5.878309      5.877199    -0.001110    Cartesian   -0.02
    191 y         -9.797182     -9.795146     0.002036    Cartesian   -0.02
    191 z          9.797182      9.795111    -0.002072    Cartesian   -0.02
    192 x          1.959436      1.959436     0.000000    Cartesian    0.00
    192 y          9.797182      9.796944    -0.000238    Cartesian   -0.00
    192 z         13.716055     13.715796    -0.000259    Cartesian   -0.00
    193 x          1.959436      1.959436     0.000000    Cartesian    0.00
    193 y         17.634928     17.632856    -0.002073    Cartesian   -0.01
    193 z         -1.959436     -1.958486     0.000951    Cartesian   -0.05
    194 x          3.918873      3.917668    -0.001205    Cartesian   -0.03
    194 y        -11.756619    -11.749458     0.007161    Cartesian   -0.06
    194 z          7.837746      7.834105    -0.003641    Cartesian   -0.05
    195 x         11.756619     11.752300    -0.004319    Cartesian   -0.04
    195 y         11.756619     11.752300    -0.004319    Cartesian   -0.04
    195 z          7.837746      7.833678    -0.004068    Cartesian   -0.05
    196 x          3.918873      3.917906    -0.000967    Cartesian   -0.02
    196 y          3.918873      3.917906    -0.000967    Cartesian   -0.02
    196 z         15.675492     15.667260    -0.008232    Cartesian   -0.05
--------------------------------------------------------------------------------


  Time to end of optimisation  =       49.4995 seconds


  Peak dynamic memory used =     693.58 MB 


  Timing analysis for GULP :

--------------------------------------------------------------------------------
  Task / Subroutine                                          Time (Seconds)
--------------------------------------------------------------------------------
  Calculation of reciprocal space energy and derivatives          0.0007
  Calculation of reciprocal space energy using symmetry           0.0004
  Calculation of real space energy and derivatives                0.0051
  Calculation of real space energy using symmetry                 0.0038
  Calculation for region 1 energy and derivatives (2-b)          34.9696
  Calculation for region 2a energy                               12.0863
  Calculation for region 2b energy                                0.0002
  Calculation and manipulation of Hessian matrix                  1.5915
  Calculation of matrix inversion                                 0.0774
  Symmetry generation of equivalent positions                     0.0053
--------------------------------------------------------------------------------
  Total CPU time                                                 49.4995
--------------------------------------------------------------------------------


  Dump file written as Li3OCl.grs


  Job Finished at 12:31.43  1st December   2020                               

