********************************************************************************
*                       GENERAL UTILITY LATTICE PROGRAM                        *
*                                 Julian Gale                                  *
*                       Curtin Institute for Computation                       *
*                    School of Molecular and Life Sciences                     *
*                    Curtin University, Western Australia                      *
********************************************************************************
* Version = 5.2.0 * Last modified =  10th September 2020                       *
********************************************************************************
*  optimise     - perform optimisation run                                     *
*  conp         - constant pressure calculation                                *
*  property     - calculate properties for final geometry                      *
*  defect       - perform defect calculation after bulk run                    *
*  compare      - compare initial and final structures                         *
********************************************************************************

  Job Started  at 12:30.08  1st December   2020                               

  Number of CPUs =     1


  Total number of configurations input =      1

********************************************************************************
*  Input for Configuration =   1                                               *
********************************************************************************

  Formula = ClOLi3                                                      

  Number of irreducible atoms/shells =       5


  Total number atoms/shells =       7

  Dimensionality = 3               :  Bulk   


  Symmetry :

  Crystal family                   :  Cubic       
  Crystal class  (Groth - 1921)    :  Cubic Hexakisoctahedral              

  Space group (centrosymmetric)    :  P M 3 M         

  Patterson group                  :  P m -3 m 

  Cartesian lattice vectors (Angstroms) :

        3.918873    0.000000    0.000000
        0.000000    3.918873    0.000000
        0.000000    0.000000    3.918873

  Cell parameters (Angstroms/Degrees):

  a =       3.9189    alpha =  90.0000
  b =       3.9189    beta  =  90.0000
  c =       3.9189    gamma =  90.0000

  Initial cell volume =          60.184349 Angs**3

  Temperature of configuration =   0.00     K 

  Pressure of configuration =         0.000 GPa 

  Fractional coordinates of asymmetric unit :

--------------------------------------------------------------------------------
   No.  Atomic       x           y          z         Charge      Occupancy
        Label      (Frac)      (Frac)     (Frac)        (e)         (Frac)  
--------------------------------------------------------------------------------
      1 Cl    c    0.000000    0.000000    0.000000     1.48500    1.000000    
      2 O     c    0.500000    0.500000    0.500000     0.18300    1.000000    
      3 Li    c    0.500000    0.500000    0.000000     1.00000    1.000000    
      4 Cl    s    0.000000    0.000000    0.000000    -2.48500    1.000000    
      5 O     s    0.500000    0.500000    0.500000    -2.18300    1.000000    
--------------------------------------------------------------------------------


  Constraints : 

--------------------------------------------------------------------------------
  Constraint no.      Unconstrained     Constrained    Coefficient    Offset
                         Variable         Variable
--------------------------------------------------------------------------------
           1              Strain 1        Strain 2       1.00000      0.0000
           2              Strain 1        Strain 3       1.00000      0.0000
--------------------------------------------------------------------------------


********************************************************************************
*  General input information                                                   *
********************************************************************************

  Species output for all configurations : 

--------------------------------------------------------------------------------
  Species    Type    Atomic    Atomic    Charge       Radii (Angs)     Library
                     Number     Mass       (e)     Cova   Ionic  VDW   Symbol
--------------------------------------------------------------------------------
    Li       Core        3       6.94   1.000000   0.680  0.000  1.800          
    O        Core        8      16.00   0.183000   0.730  0.000  1.360          
    O        Shell       8       0.00  -2.183000   0.730  0.000  1.360          
    Cl       Core       17      35.45   1.485000   0.990  0.000  1.650          
    Cl       Shell      17       0.00  -2.485000   0.990  0.000  1.650          
    Mg       Core       12      24.31   0.415000   1.100  0.000  0.000          
    Mg       Shell      12       0.00   1.585000   1.100  0.000  0.000          
    Ca       Core       20      40.08  -1.135000   0.990  0.000  0.000          
    Ca       Shell      20       0.00   3.135000   0.990  0.000  0.000          
    Sr       Core       38      87.62  -1.251000   1.120  0.000  0.000          
    Sr       Shell      38       0.00   3.251000   1.120  0.000  0.000          
    Ba       Core       56     137.33  -7.203000   1.340  0.000  0.000          
    Ba       Shell      56       0.00   9.203000   1.340  0.000  0.000          
--------------------------------------------------------------------------------


  Lattice summation method               =    Ewald          (3-D)
                                         =    Parry          (2-D)
                                         =    Saunders et al (1-D)
  Accuracy factor for lattice sums       =   12.000


  Analytic derivatives to be used

  Time limit = Infinity

  Maximum range for interatomic potentials =    100000.000000 Angstroms

  General interatomic potentials :

--------------------------------------------------------------------------------
Atom  Types   Potential      Parameter       Value         Units   Cutoffs(Ang)
  1     2                                                            Min /  Max 
--------------------------------------------------------------------------------
O    c O    s Spring (c-s)  Spring k 2       593.71600    eV*Ang^-2 0.000  0.800
                            Spring k 4       0.0000000    eV*Ang^-4 
--------------------------------------------------------------------------------
Cl   c Cl   s Spring (c-s)  Spring k 2       29.380000    eV*Ang^-2 0.000  0.800
                            Spring k 4       0.0000000    eV*Ang^-4 
--------------------------------------------------------------------------------
Mg   c Mg   s Spring (c-s)  Spring k 2       361.60000    eV*Ang^-2 0.000  0.800
                            Spring k 4       0.0000000    eV*Ang^-4 
--------------------------------------------------------------------------------
Ca   c Ca   s Spring (c-s)  Spring k 2       110.20000    eV*Ang^-2 0.000  0.800
                            Spring k 4       0.0000000    eV*Ang^-4 
--------------------------------------------------------------------------------
Sr   c Sr   s Spring (c-s)  Spring k 2       71.700000    eV*Ang^-2 0.000  0.800
                            Spring k 4       0.0000000    eV*Ang^-4 
--------------------------------------------------------------------------------
Ba   c Ba   s Spring (c-s)  Spring k 2       495.20000    eV*Ang^-2 0.000  0.800
                            Spring k 4       0.0000000    eV*Ang^-4 
--------------------------------------------------------------------------------
Li   c Li   c Buckingham    Buckingham A     360.53000    eV        0.000 12.000
                            Buckingham rho  0.16100000    Ang       
                            Buckingham C     0.0000000    eV*Ang^6  
--------------------------------------------------------------------------------
Li   c O    s Buckingham    Buckingham A     292.30000    eV        0.000 12.000
                            Buckingham rho  0.34700000    Ang       
                            Buckingham C     0.0000000    eV*Ang^6  
--------------------------------------------------------------------------------
Li   c Cl   s Buckingham    Buckingham A     421.04000    eV        0.000 12.000
                            Buckingham rho  0.33400000    Ang       
                            Buckingham C     0.0000000    eV*Ang^6  
--------------------------------------------------------------------------------
O    s O    s Buckingham    Buckingham A     22764.300    eV        0.000 12.000
                            Buckingham rho  0.14900000    Ang       
                            Buckingham C     13.190000    eV*Ang^6  
--------------------------------------------------------------------------------
O    s Cl   s Buckingham    Buckingham A     8286.9100    eV        0.000 12.000
                            Buckingham rho  0.25900000    Ang       
                            Buckingham C     62.200000    eV*Ang^6  
--------------------------------------------------------------------------------
Cl   s Cl   s Buckingham    Buckingham A     1227.2000    eV        0.000 12.000
                            Buckingham rho  0.32100000    Ang       
                            Buckingham C     14.530000    eV*Ang^6  
--------------------------------------------------------------------------------
O    s Mg   s Buckingham    Buckingham A     1428.5000    eV        0.000 12.000
                            Buckingham rho  0.29450000    Ang       
                            Buckingham C     0.0000000    eV*Ang^6  
--------------------------------------------------------------------------------
Mg   s Cl   s Buckingham    Buckingham A     4914.5400    eV        0.000 12.000
                            Buckingham rho  0.25700000    Ang       
                            Buckingham C     0.0000000    eV*Ang^6  
--------------------------------------------------------------------------------
O    s Ca   s Buckingham    Buckingham A     1090.4000    eV        0.000 12.000
                            Buckingham rho  0.34370000    Ang       
                            Buckingham C     0.0000000    eV*Ang^6  
--------------------------------------------------------------------------------
Cl   s Ca   s Buckingham    Buckingham A     2302.0000    eV        0.000 12.000
                            Buckingham rho  0.34020000    Ang       
                            Buckingham C     0.0000000    eV*Ang^6  
--------------------------------------------------------------------------------
O    s Sr   s Buckingham    Buckingham A     959.10000    eV        0.000 12.000
                            Buckingham rho  0.37210000    Ang       
                            Buckingham C     0.0000000    eV*Ang^6  
--------------------------------------------------------------------------------
Cl   s Sr   s Buckingham    Buckingham A     2191.0900    eV        0.000 12.000
                            Buckingham rho  0.34570000    Ang       
                            Buckingham C     0.0000000    eV*Ang^6  
--------------------------------------------------------------------------------
O    s Ba   s Buckingham    Buckingham A     905.70000    eV        0.000 12.000
                            Buckingham rho  0.39760000    Ang       
                            Buckingham C     0.0000000    eV*Ang^6  
--------------------------------------------------------------------------------
Cl   s Ba   s Buckingham    Buckingham A     2704.5500    eV        0.000 12.000
                            Buckingham rho  0.35280000    Ang       
                            Buckingham C     0.0000000    eV*Ang^6  
--------------------------------------------------------------------------------

********************************************************************************
*  Output for configuration   1                                                *
********************************************************************************


  Components of energy : 

--------------------------------------------------------------------------------
  Interatomic potentials     =           7.24802695 eV    
  Monopole - monopole (real) =         -11.53475722 eV    
  Monopole - monopole (recip)=         -33.94580548 eV    
  Monopole - monopole (total)=         -45.48056271 eV    
--------------------------------------------------------------------------------
  Total lattice energy       =         -38.23253575 eV    
--------------------------------------------------------------------------------
  Total lattice energy       =           -3688.8553 kJ/(mole unit cells)
--------------------------------------------------------------------------------


  Number of variables =        1

  Maximum number of calculations  =          1000
  Maximum Hessian update interval =            10
  Maximum step size               =   1.000000000
  Maximum parameter tolerance     =   0.000010000
  Maximum function  tolerance     =   0.000010000
  Maximum gradient  tolerance     =   0.001000000
  Maximum gradient  component     =   0.010000000

  Symmetry constrained optimisation

  Symmetry used for second derivatives

  Cell parameters to be optimised using strains

  Newton-Raphson optimiser to be used

  BFGS hessian update to be used

  Lower half triangular hessian to be used

  Start of bulk optimisation :

  Cycle:      0 Energy:       -38.232536  Gnorm:      0.000019  CPU:    0.015


  **** Optimisation achieved ****


  Final energy =     -38.23253575 eV
  Final Gnorm  =       0.00001878

  Components of energy : 

--------------------------------------------------------------------------------
  Interatomic potentials     =           7.24802695 eV    
  Monopole - monopole (real) =         -11.53475722 eV    
  Monopole - monopole (recip)=         -33.94580548 eV    
  Monopole - monopole (total)=         -45.48056271 eV    
--------------------------------------------------------------------------------
  Total lattice energy       =         -38.23253575 eV    
--------------------------------------------------------------------------------
  Total lattice energy       =           -3688.8553 kJ/(mole unit cells)
--------------------------------------------------------------------------------

  Final asymmetric unit coordinates :

--------------------------------------------------------------------------------
   No.  Atomic        x           y           z         Radius
        Label       (Frac)      (Frac)      (Frac)       (Angs) 
--------------------------------------------------------------------------------
     1  Cl    c     0.000000    0.000000    0.000000    0.000000
     2  O     c     0.500000    0.500000    0.500000    0.000000
     3  Li    c     0.500000    0.500000    0.000000    0.000000
     4  Cl    s     0.000000    0.000000    0.000000    0.000000
     5  O     s     0.500000    0.500000    0.500000    0.000000
--------------------------------------------------------------------------------

  Final Cartesian lattice vectors (Angstroms) :

        3.918873    0.000000    0.000000
        0.000000    3.918873    0.000000
        0.000000    0.000000    3.918873


  Final cell parameters and derivatives :

--------------------------------------------------------------------------------
       a            3.918873 Angstrom     dE/de1(xx)    -0.000019 eV/strain
       b            3.918873 Angstrom     dE/de2(yy)     0.000000 eV/strain
       c            3.918873 Angstrom     dE/de3(zz)     0.000000 eV/strain
       alpha       90.000000 Degrees      dE/de4(yz)     0.000000 eV/strain
       beta        90.000000 Degrees      dE/de5(xz)     0.000000 eV/strain
       gamma       90.000000 Degrees      dE/de6(xy)     0.000000 eV/strain
--------------------------------------------------------------------------------

  Primitive cell volume =            60.184349 Angs**3

  Density of cell =      1.994024 g/cm**3

  Non-primitive cell volume =            60.184349 Angs**3


  Final internal derivatives :

--------------------------------------------------------------------------------
   No.  Atomic          a             b             c           Radius
        Label          (eV)          (eV)          (eV)        (eV/Angs)
--------------------------------------------------------------------------------
      1 Cl    c       0.000000      0.000000      0.000000      0.000000
      2 O     c       0.000000      0.000000      0.000000      0.000000
      3 Li    c       0.000000      0.000000      0.000000      0.000000
      4 Cl    s       0.000000      0.000000      0.000000      0.000000
      5 O     s       0.000000      0.000000      0.000000      0.000000
--------------------------------------------------------------------------------
  Maximum abs         0.000000      0.000000      0.000000      0.000000
--------------------------------------------------------------------------------

  Comparison of initial and final structures : 

--------------------------------------------------------------------------------
  Parameter   Initial value   Final value   Difference    Units      Percent
--------------------------------------------------------------------------------
    Volume        60.184349     60.184349     0.000000    Angs**3      0.00
    a              3.918873      3.918873     0.000000    Angstroms    0.00
    b              3.918873      3.918873     0.000000    Angstroms    0.00
    c              3.918873      3.918873     0.000000    Angstroms    0.00
    alpha         90.000000     90.000000     0.000000    Degrees      0.00
    beta          90.000000     90.000000     0.000000    Degrees      0.00
    gamma         90.000000     90.000000     0.000000    Degrees      0.00
      1 x          0.000000      0.000000     0.000000    Fractional   0.00
      1 y          0.000000      0.000000     0.000000    Fractional   0.00
      1 z          0.000000      0.000000     0.000000    Fractional   0.00
      2 x          0.500000      0.500000     0.000000    Fractional   0.00
      2 y          0.500000      0.500000     0.000000    Fractional   0.00
      2 z          0.500000      0.500000     0.000000    Fractional   0.00
      3 x          0.500000      0.500000     0.000000    Fractional   0.00
      3 y          0.500000      0.500000     0.000000    Fractional   0.00
      3 z          0.000000      0.000000     0.000000    Fractional   0.00
      4 x          0.000000      0.000000     0.000000    Fractional   0.00
      4 y          0.000000      0.000000     0.000000    Fractional   0.00
      4 z          0.000000      0.000000     0.000000    Fractional   0.00
      5 x          0.500000      0.500000     0.000000    Fractional   0.00
      5 y          0.500000      0.500000     0.000000    Fractional   0.00
      5 z          0.500000      0.500000     0.000000    Fractional   0.00
--------------------------------------------------------------------------------


  Born effective charge tensors : 

-------------------------------------------------------------------------------
  Atom             x           y             z
-------------------------------------------------------------------------------
    1 Cl    x      -0.9481      0.0000      0.0000
            y       0.0000     -0.9481      0.0000
            z       0.0000      0.0000     -0.9481
-------------------------------------------------------------------------------
    2 O     x      -2.4696     -0.0000     -0.0000
            y      -0.0000     -2.4696     -0.0000
            z      -0.0000     -0.0000     -2.4696
-------------------------------------------------------------------------------
    3 Li    x       1.3129     -0.0000     -0.0000
            y      -0.0000      1.3129      0.0000
            z      -0.0000     -0.0000      0.7918
-------------------------------------------------------------------------------




  Elastic Constant Matrix: (Units=GPa)

-------------------------------------------------------------------------------
  Indices      1         2         3         4         5         6    
-------------------------------------------------------------------------------
       1     94.4615   45.0779   45.0779    0.0000   -0.0000    0.0000
       2     45.0779   94.4615   45.0779   -0.0000    0.0000   -0.0000
       3     45.0779   45.0779   94.4615   -0.0000   -0.0000   -0.0000
       4      0.0000   -0.0000   -0.0000   45.0779   -0.0000   -0.0000
       5     -0.0000    0.0000   -0.0000   -0.0000   45.0779   -0.0000
       6      0.0000   -0.0000   -0.0000   -0.0000   -0.0000   45.0779
-------------------------------------------------------------------------------


  Elastic Compliance Matrix: (Units=1/GPa)

-------------------------------------------------------------------------------
  Indices      1         2         3         4         5         6    
-------------------------------------------------------------------------------
       1    0.015305 -0.004944 -0.004944 -0.000000  0.000000 -0.000000
       2   -0.004944  0.015305 -0.004944  0.000000 -0.000000  0.000000
       3   -0.004944 -0.004944  0.015305  0.000000  0.000000  0.000000
       4   -0.000000  0.000000  0.000000  0.022184  0.000000  0.000000
       5    0.000000 -0.000000  0.000000  0.000000  0.022184  0.000000
       6   -0.000000  0.000000  0.000000  0.000000  0.000000  0.022184
-------------------------------------------------------------------------------

  Mechanical properties :

-------------------------------------------------------------------------------
  Convention :                    Reuss         Voigt         Hill
-------------------------------------------------------------------------------
  Bulk  Modulus (GPa)     =      61.53912      61.53912      61.53912
  Shear Modulus (GPa)     =      33.88682      36.92346      35.40514
-------------------------------------------------------------------------------
  Velocity S-wave (km/s)  =       4.12240       4.30314       4.21374
  Velocity P-wave (km/s)  =       7.31578       7.45327       7.38484
-------------------------------------------------------------------------------
  Compressibility (1/GPa) =    0.01624983
-------------------------------------------------------------------------------
  Stress axis :                     x             y             z
-------------------------------------------------------------------------------
  Youngs Moduli (GPa)     =      65.33688      65.33688      65.33688
-------------------------------------------------------------------------------
  Poissons Ratio (x)      =                     0.32305       0.32305
  Poissons Ratio (y)      =       0.32305                     0.32305
  Poissons Ratio (z)      =       0.32305       0.32305
-------------------------------------------------------------------------------


  Piezoelectric Strain Matrix: (Units=C/m**2)

-------------------------------------------------------------------------------
  Indices      1         2         3         4         5         6    
-------------------------------------------------------------------------------
       x    -0.00000   0.00000   0.00000   0.00000   0.00000   0.00000
       y    -0.00000  -0.00000  -0.00000   0.00000   0.00000  -0.00000
       z    -0.00000  -0.00000   0.00000   0.00000  -0.00000   0.00000
-------------------------------------------------------------------------------


  Piezoelectric Stress Matrix: (Units=10**-11 C/N)

-------------------------------------------------------------------------------
  Indices      1         2         3         4         5         6    
-------------------------------------------------------------------------------
       x    -0.00000   0.00000   0.00000   0.00000   0.00000   0.00000
       y     0.00000   0.00000  -0.00000   0.00000   0.00000  -0.00000
       z    -0.00000  -0.00000   0.00000   0.00000  -0.00000   0.00000
-------------------------------------------------------------------------------


  Static dielectric constant tensor : 

-------------------------------------------------------------------------------
              x         y         z
-------------------------------------------------------------------------------
       x    12.07041   0.00000   0.00000
       y     0.00000  12.07041   0.00000
       z     0.00000   0.00000  12.07041
--------------------------------------------------------------------------------

  High frequency dielectric constant tensor : 

-------------------------------------------------------------------------------
              x         y         z
-------------------------------------------------------------------------------
       x     1.74197  -0.00000  -0.00000
       y    -0.00000   1.74197  -0.00000
       z    -0.00000  -0.00000   1.74197
-------------------------------------------------------------------------------

  Static refractive indices : 

-------------------------------------------------------------------------------
    1 =    3.47425      2 =    3.47425      3 =    3.47425
-------------------------------------------------------------------------------

  High frequency refractive indices : 

-------------------------------------------------------------------------------
    1 =    1.31984      2 =    1.31984      3 =    1.31984
-------------------------------------------------------------------------------


  Time to end of optimisation =       0.0214 seconds

********************************************************************************
*  Defect calculation for configuration   1 :                                  *
********************************************************************************

  Total number of defects =      1

  Total charge on defect  =   2.00

  Defect centre is at   0.5000   0.5000   0.5000  Frac

  Region 1 radius =  16.0000      Number of ions =   1936

  Number of symmetry inequivalent region 1 ions  =     83

  Region 2 radius =  20.0000      Number of ions =   2002

  Number of symmetry inequivalent region 2a ions =     67

  Region 2a mode = 4 : screened electrostatics due to region 1 
                       neglect correction to region 1 forces from 2a
                       region 2a displacements based on defects only

  Region 2a ions will only interact with defects in region 1

  Vacancies:

--------------------------------------------------------------------------------
    Specification type     Symbol/Number         x          y          z
--------------------------------------------------------------------------------
    Fractional                               0.500000   0.500000   0.500000
--------------------------------------------------------------------------------


  Symmetry reduced region 1 (Relative to defect centre) :

--------------------------------------------------------------------------------
   No.   Atomic       x            y             z       Radius  Multiplicity   
         Label      (Angs)       (Angs)        (Angs)    (Angs)     
--------------------------------------------------------------------------------
     1  Li    c      0.0000       0.0000       1.9594 *  0.0000     6          
     2  Cl    c      1.9594 *     1.9594       1.9594    0.0000     8          
     3  O     c      0.0000       0.0000       3.9189 *  0.0000     6          
     4  Li    c      0.0000       3.9189 *     1.9594 *  0.0000    24          
     5  O     c      0.0000       3.9189 *     3.9189    0.0000    12          
     6  Li    c      0.0000       0.0000       5.8783 *  0.0000     6          
     7  Li    c      3.9189 *     3.9189       1.9594 *  0.0000    24          
     8  Cl    c      1.9594 *     5.8783 *     1.9594    0.0000    24          
     9  O     c      3.9189 *     3.9189       3.9189    0.0000     8          
    10  Li    c      0.0000       3.9189 *     5.8783 *  0.0000    24          
    11  O     c      0.0000       0.0000       7.8377 *  0.0000     6          
    12  Li    c      0.0000       7.8377 *     1.9594 *  0.0000    24          
    13  Li    c      3.9189 *     3.9189       5.8783 *  0.0000    24          
    14  Cl    c      1.9594 *     5.8783 *     5.8783    0.0000    24          
    15  O     c      0.0000       3.9189 *     7.8377 *  0.0000    24          
    16  Li    c      3.9189 *     7.8377 *     1.9594 *  0.0000    48          
    17  O     c      3.9189 *     3.9189       7.8377 *  0.0000    24          
    18  Li    c      0.0000       0.0000       9.7972 *  0.0000     6          
    19  Li    c      0.0000       7.8377 *     5.8783 *  0.0000    24          
    20  Cl    c      1.9594 *     1.9594       9.7972 *  0.0000    24          
    21  Cl    c      5.8783 *     5.8783       5.8783    0.0000     8          
    22  Li    c      0.0000       3.9189 *     9.7972 *  0.0000    24          
    23  Li    c      3.9189 *     7.8377 *     5.8783 *  0.0000    48          
    24  O     c      0.0000       7.8377 *     7.8377    0.0000    12          
    25  Li    c      7.8377 *     7.8377       1.9594 *  0.0000    24          
    26  Li    c      3.9189 *     3.9189       9.7972 *  0.0000    24          
    27  Cl    c      1.9594 *     5.8783 *     9.7972 *  0.0000    48          
    28  O     c      0.0000       0.0000     -11.7566 *  0.0000     6          
    29  O     c      3.9189 *     7.8377 *     7.8377    0.0000    24          
    30  Li    c      0.0000     -11.7566 *     1.9594 *  0.0000    24          
    31  O     c      0.0000       3.9189 *   -11.7566 *  0.0000    24          
    32  Li    c      3.9189 *   -11.7566 *     1.9594 *  0.0000    48          
    33  Li    c      0.0000       7.8377 *     9.7972 *  0.0000    24          
    34  Li    c      7.8377 *     7.8377       5.8783 *  0.0000    24          
    35  Cl    c      5.8783 *     5.8783       9.7972 *  0.0000    24          
    36  O     c      3.9189 *   -11.7566 *     3.9189    0.0000    24          
    37  Li    c      0.0000     -11.7566 *     5.8783 *  0.0000    24          
    38  Li    c      3.9189 *     7.8377 *     9.7972 *  0.0000    48          
    39  O     c      7.8377 *     7.8377       7.8377    0.0000     8          
    40  Li    c      0.0000       0.0000     -13.7161 *  0.0000     6          
    41  Li    c      3.9189 *   -11.7566 *     5.8783 *  0.0000    48          
    42  Cl    c      1.9594 *   -13.7161 *     1.9594    0.0000    24          
    43  Cl    c      1.9594 *     9.7972 *     9.7972    0.0000    24          
    44  O     c      0.0000       7.8377 *   -11.7566 *  0.0000    24          
    45  Li    c      0.0000       3.9189 *   -13.7161 *  0.0000    24          
    46  Li    c      7.8377 *   -11.7566 *     1.9594 *  0.0000    48          
    47  O     c      3.9189 *   -11.7566 *     7.8377 *  0.0000    48          
    48  Li    c    -13.7161 *     3.9189 *     3.9189    0.0000    24          
    49  Li    c      7.8377 *     7.8377       9.7972 *  0.0000    24          
    50  Cl    c      1.9594 *   -13.7161 *     5.8783 *  0.0000    48          
    51  Cl    c      9.7972 *     9.7972       5.8783 *  0.0000    24          
    52  Li    c      0.0000     -11.7566 *     9.7972 *  0.0000    24          
    53  Li    c      7.8377 *   -11.7566 *     5.8783 *  0.0000    48          
    54  O     c      0.0000       0.0000      15.6755 *  0.0000     6          
    55  Li    c      0.0000       7.8377 *   -13.7161 *  0.0000    24          
    56  Li    c      9.7972 *   -11.7566 *     3.9189 *  0.0000    48          
    57  Li    c      0.0000      15.6755 *     1.9594 *  0.0000    24          
    58  Cl    s      1.9594 *     1.9594       1.9594    0.0000     8          
    59  O     s      0.0000       0.0000       3.9189 *  0.0000     6          
    60  O     s      0.0000       3.9189 *     3.9189    0.0000    12          
    61  Cl    s      1.9594 *     5.8783 *     1.9594    0.0000    24          
    62  O     s      3.9189 *     3.9189       3.9189    0.0000     8          
    63  O     s      0.0000       0.0000       7.8377 *  0.0000     6          
    64  Cl    s      1.9594 *     5.8783 *     5.8783    0.0000    24          
    65  O     s      0.0000       3.9189 *     7.8377 *  0.0000    24          
    66  O     s      3.9189 *     3.9189       7.8377 *  0.0000    24          
    67  Cl    s      1.9594 *     1.9594       9.7972 *  0.0000    24          
    68  Cl    s      5.8783 *     5.8783       5.8783    0.0000     8          
    69  O     s      0.0000       7.8377 *     7.8377    0.0000    12          
    70  Cl    s      1.9594 *     5.8783 *     9.7972 *  0.0000    48          
    71  O     s      0.0000       0.0000     -11.7566 *  0.0000     6          
    72  O     s      3.9189 *     7.8377 *     7.8377    0.0000    24          
    73  O     s      0.0000       3.9189 *   -11.7566 *  0.0000    24          
    74  Cl    s      5.8783 *     5.8783       9.7972 *  0.0000    24          
    75  O     s      3.9189 *   -11.7566 *     3.9189    0.0000    24          
    76  O     s      7.8377 *     7.8377       7.8377    0.0000     8          
    77  Cl    s      1.9594 *   -13.7161 *     1.9594    0.0000    24          
    78  Cl    s      1.9594 *     9.7972 *     9.7972    0.0000    24          
    79  O     s      0.0000       7.8377 *   -11.7566 *  0.0000    24          
    80  O     s      3.9189 *   -11.7566 *     7.8377 *  0.0000    48          
    81  Cl    s      1.9594 *   -13.7161 *     5.8783 *  0.0000    48          
    82  Cl    s      9.7972 *     9.7972       5.8783 *  0.0000    24          
    83  O     s      0.0000       0.0000      15.6755 *  0.0000     6          
--------------------------------------------------------------------------------


  Constraints on symmetry reduced coordinates :

--------------------------------------------------------------------------------
  Constraint no.      Unconstrained     Constrained    Coefficient    
                         Variable         Variable
--------------------------------------------------------------------------------
           1                 2 x             2 y         1.00000
           2                 2 x             2 z         1.00000
           3                 5 y             5 z         1.00000
           4                 7 x             7 y         1.00000
           5                 8 x             8 z         1.00000
           6                 9 x             9 y         1.00000
           7                 9 x             9 z         1.00000
           8                13 x            13 y         1.00000
           9                14 y            14 z         1.00000
          10                17 x            17 y         1.00000
          11                20 x            20 y         1.00000
          12                21 x            21 y         1.00000
          13                21 x            21 z         1.00000
          14                24 y            24 z         1.00000
          15                25 x            25 y         1.00000
          16                26 x            26 y         1.00000
          17                29 y            29 z         1.00000
          18                34 x            34 y         1.00000
          19                35 x            35 y         1.00000
          20                36 x            36 z         1.00000
          21                39 x            39 y         1.00000
          22                39 x            39 z         1.00000
          23                42 x            42 z         1.00000
          24                43 y            43 z         1.00000
          25                48 y            48 z         1.00000
          26                49 x            49 y         1.00000
          27                51 x            51 y         1.00000
          28                58 x            58 y         1.00000
          29                58 x            58 z         1.00000
          30                60 y            60 z         1.00000
          31                61 x            61 z         1.00000
          32                62 x            62 y         1.00000
          33                62 x            62 z         1.00000
          34                64 y            64 z         1.00000
          35                66 x            66 y         1.00000
          36                67 x            67 y         1.00000
          37                68 x            68 y         1.00000
          38                68 x            68 z         1.00000
          39                69 y            69 z         1.00000
          40                72 y            72 z         1.00000
          41                74 x            74 y         1.00000
          42                75 x            75 z         1.00000
          43                76 x            76 y         1.00000
          44                76 x            76 z         1.00000
          45                77 x            77 z         1.00000
          46                78 y            78 z         1.00000
          47                82 x            82 y         1.00000
--------------------------------------------------------------------------------


  Components of defect energy : 

--------------------------------------------------------------------------------
  Region 1 - region 1                   =    164.60547339 eV
  Region 1 - region 2a (unrelaxed)      =   -125.08990479 eV
  Region 1 - 2a (relaxed - correction)  =     -0.68496595 eV
  Region 1 (Total)                      =     38.83060266 eV
  Region 2a                             =      0.34254196 eV
  Region 2b                             =     -1.32030363 eV
--------------------------------------------------------------------------------
  Total defect energy                   =     37.85284099 eV
--------------------------------------------------------------------------------

  Largest displacement in region 2 =   0.0102 Angstroms


  Number of variables =      156

  Maximum number of calculations  =        1000
  Maximum Hessian update interval =          10
  Maximum step size               =   1.0000000
  Maximum parameter tolerance     =   0.0000100
  Maximum function  tolerance     =   0.0000100
  Maximum gradient  tolerance     =   0.0010000

  Symmetry adapted optimisation

  Symmetry to be used for second derivatives

  Newton-Raphson optimiser to be used

  BFGS hessian update to be used

  Lower half triangular hessian to be used

  Start of defect optimisation :

  Cycle:      0 Defect Energy:  37.852841  Gnorm:     1.007057  CPU:    9.695
  ** Hessian calculated **
  Cycle:      1 Defect Energy:  26.884048  Gnorm:     0.360410  CPU:   13.833
  ** Hessian calculated **
  Cycle:      2 Defect Energy:  23.718855  Gnorm:     0.049266  CPU:   17.757
  Cycle:      3 Defect Energy:  23.554910  Gnorm:     0.013318  CPU:   19.717
  Cycle:      4 Defect Energy:  23.543264  Gnorm:     0.011110  CPU:   20.473
  Cycle:      5 Defect Energy:  23.534650  Gnorm:     0.007969  CPU:   21.251
  Cycle:      6 Defect Energy:  23.530269  Gnorm:     0.005641  CPU:   22.054
  Cycle:      7 Defect Energy:  23.528059  Gnorm:     0.003979  CPU:   22.815
  Cycle:      8 Defect Energy:  23.526954  Gnorm:     0.002799  CPU:   23.579
  Cycle:      9 Defect Energy:  23.526404  Gnorm:     0.001966  CPU:   24.390
  Cycle:     10 Defect Energy:  23.526133  Gnorm:     0.001380  CPU:   25.152
  Cycle:     11 Defect Energy:  23.525999  Gnorm:     0.000968  CPU:   25.859
  ** Hessian calculated **
  Cycle:     12 Defect Energy:  23.525933  Gnorm:     0.000678  CPU:   27.465
  Cycle:     13 Defect Energy:  23.525901  Gnorm:     0.000475  CPU:   28.170
  Cycle:     14 Defect Energy:  23.525885  Gnorm:     0.000332  CPU:   28.970
  Cycle:     15 Defect Energy:  23.525877  Gnorm:     0.000233  CPU:   29.677
  Cycle:     16 Defect Energy:  23.525874  Gnorm:     0.000163  CPU:   30.392
  Cycle:     17 Defect Energy:  23.525871  Gnorm:     0.000114  CPU:   31.098
  Cycle:     18 Defect Energy:  23.525871  Gnorm:     0.000079  CPU:   31.788


  **** Optimisation achieved ****


  Final defect energy  =       23.52587051
  Final defect Gnorm   =        0.00005561

  Components of defect energy : 

--------------------------------------------------------------------------------
  Region 1 - region 1                   =    145.19410470 eV
  Region 1 - region 2a (unrelaxed)      =   -120.06873438 eV
  Region 1 - 2a (relaxed - correction)  =     -0.55819532 eV
  Region 1 (Total)                      =     24.56717500 eV
  Region 2a                             =      0.27899914 eV
  Region 2b                             =     -1.32030363 eV
--------------------------------------------------------------------------------
  Total defect energy                   =     23.52587051 eV
--------------------------------------------------------------------------------

  Largest displacement in region 2 =   0.0102 Angstroms

  Final coordinates of region 1 :

--------------------------------------------------------------------------------
   No.  Atomic        x           y           z          Radius      Charge
        Label       (Angs)      (Angs)      (Angs)       (Angs)       (e) 
--------------------------------------------------------------------------------
     1  Li    c     1.959436    1.959436    4.274858    0.000000    1.000000
     2  Li    c     1.959436    1.959436   -0.355985    0.000000    1.000000
     3  Li    c     4.274858    1.959436    1.959436    0.000000    1.000000
     4  Li    c    -0.355985    1.959436    1.959436    0.000000    1.000000
     5  Li    c     1.959436    4.274858    1.959436    0.000000    1.000000
     6  Li    c     1.959436   -0.355985    1.959436    0.000000    1.000000
     7  Cl    c     3.702323    3.702323    3.702323    0.000000    1.485000
     8  Cl    c     3.702323    3.702323    0.216550    0.000000    1.485000
     9  Cl    c     3.702323    0.216550    3.702323    0.000000    1.485000
    10  Cl    c     3.702323    0.216550    0.216550    0.000000    1.485000
    11  Cl    c     0.216550    3.702323    3.702323    0.000000    1.485000
    12  Cl    c     0.216550    3.702323    0.216550    0.000000    1.485000
    13  Cl    c     0.216550    0.216550    3.702323    0.000000    1.485000
    14  Cl    c     0.216550    0.216550    0.216550    0.000000    1.485000
    15  O     c     1.959436    1.959436    6.027033    0.000000    0.183000
    16  O     c     1.959436    1.959436   -2.108160    0.000000    0.183000
    17  O     c     1.959436    6.027033    1.959436    0.000000    0.183000
    18  O     c     1.959436   -2.108160    1.959436    0.000000    0.183000
    19  O     c     6.027033    1.959436    1.959436    0.000000    0.183000
    20  O     c    -2.108160    1.959436    1.959436    0.000000    0.183000
    21  Li    c     1.959436    6.005613    3.960734    0.000000    1.000000
    22  Li    c     1.959436    6.005613   -0.041861    0.000000    1.000000
    23  Li    c     1.959436   -2.086740    3.960734    0.000000    1.000000
    24  Li    c     1.959436   -2.086740   -0.041861    0.000000    1.000000
    25  Li    c     6.005613    1.959436    3.960734    0.000000    1.000000
    26  Li    c     6.005613    1.959436   -0.041861    0.000000    1.000000
    27  Li    c    -2.086740    1.959436    3.960734    0.000000    1.000000
    28  Li    c    -2.086740    1.959436   -0.041861    0.000000    1.000000
    29  Li    c     3.960734    1.959436    6.005613    0.000000    1.000000
    30  Li    c     3.960734    1.959436   -2.086740    0.000000    1.000000
    31  Li    c     3.960734    6.005613    1.959436    0.000000    1.000000
    32  Li    c     3.960734   -2.086740    1.959436    0.000000    1.000000
    33  Li    c    -0.041861    1.959436    6.005613    0.000000    1.000000
    34  Li    c    -0.041861    1.959436   -2.086740    0.000000    1.000000
    35  Li    c    -0.041861    6.005613    1.959436    0.000000    1.000000
    36  Li    c    -0.041861   -2.086740    1.959436    0.000000    1.000000
    37  Li    c     1.959436    3.960734    6.005613    0.000000    1.000000
    38  Li    c     1.959436    3.960734   -2.086740    0.000000    1.000000
    39  Li    c     1.959436   -0.041861    6.005613    0.000000    1.000000
    40  Li    c     1.959436   -0.041861   -2.086740    0.000000    1.000000
    41  Li    c     6.005613    3.960734    1.959436    0.000000    1.000000
    42  Li    c     6.005613   -0.041861    1.959436    0.000000    1.000000
    43  Li    c    -2.086740    3.960734    1.959436    0.000000    1.000000
    44  Li    c    -2.086740   -0.041861    1.959436    0.000000    1.000000
    45  O     c     1.959436    5.881595    5.881595    0.000000    0.183000
    46  O     c     1.959436    5.881595   -1.962722    0.000000    0.183000
    47  O     c     1.959436   -1.962722    5.881595    0.000000    0.183000
    48  O     c     1.959436   -1.962722   -1.962722    0.000000    0.183000
    49  O     c     5.881595    1.959436    5.881595    0.000000    0.183000
    50  O     c     5.881595    1.959436   -1.962722    0.000000    0.183000
    51  O     c     5.881595    5.881595    1.959436    0.000000    0.183000
    52  O     c     5.881595   -1.962722    1.959436    0.000000    0.183000
    53  O     c    -1.962722    1.959436    5.881595    0.000000    0.183000
    54  O     c    -1.962722    1.959436   -1.962722    0.000000    0.183000
    55  O     c    -1.962722    5.881595    1.959436    0.000000    0.183000
    56  O     c    -1.962722   -1.962722    1.959436    0.000000    0.183000
    57  Li    c     1.959436    1.959436    7.917869    0.000000    1.000000
    58  Li    c     1.959436    1.959436   -3.998996    0.000000    1.000000
    59  Li    c     7.917869    1.959436    1.959436    0.000000    1.000000
    60  Li    c    -3.998996    1.959436    1.959436    0.000000    1.000000
    61  Li    c     1.959436    7.917869    1.959436    0.000000    1.000000
    62  Li    c     1.959436   -3.998996    1.959436    0.000000    1.000000
    63  Li    c     5.926362    5.926362    3.926805    0.000000    1.000000
    64  Li    c     5.926362    5.926362   -0.007932    0.000000    1.000000
    65  Li    c     5.926362   -2.007489    3.926805    0.000000    1.000000
    66  Li    c     5.926362   -2.007489   -0.007932    0.000000    1.000000
    67  Li    c    -2.007489    5.926362    3.926805    0.000000    1.000000
    68  Li    c    -2.007489    5.926362   -0.007932    0.000000    1.000000
    69  Li    c    -2.007489   -2.007489    3.926805    0.000000    1.000000
    70  Li    c    -2.007489   -2.007489   -0.007932    0.000000    1.000000
    71  Li    c     3.926805    5.926362    5.926362    0.000000    1.000000
    72  Li    c     3.926805    5.926362   -2.007489    0.000000    1.000000
    73  Li    c     3.926805   -2.007489    5.926362    0.000000    1.000000
    74  Li    c     3.926805   -2.007489   -2.007489    0.000000    1.000000
    75  Li    c    -0.007932    5.926362    5.926362    0.000000    1.000000
    76  Li    c    -0.007932    5.926362   -2.007489    0.000000    1.000000
    77  Li    c    -0.007932   -2.007489    5.926362    0.000000    1.000000
    78  Li    c    -0.007932   -2.007489   -2.007489    0.000000    1.000000
    79  Li    c     5.926362    3.926805    5.926362    0.000000    1.000000
    80  Li    c     5.926362    3.926805   -2.007489    0.000000    1.000000
    81  Li    c     5.926362   -0.007932    5.926362    0.000000    1.000000
    82  Li    c     5.926362   -0.007932   -2.007489    0.000000    1.000000
    83  Li    c    -2.007489    3.926805    5.926362    0.000000    1.000000
    84  Li    c    -2.007489    3.926805   -2.007489    0.000000    1.000000
    85  Li    c    -2.007489   -0.007932    5.926362    0.000000    1.000000
    86  Li    c    -2.007489   -0.007932   -2.007489    0.000000    1.000000
    87  Cl    c     3.934293    7.826509    3.934293    0.000000    1.485000
    88  Cl    c     3.934293    7.826509   -0.015420    0.000000    1.485000
    89  Cl    c     3.934293   -3.907636    3.934293    0.000000    1.485000
    90  Cl    c     3.934293   -3.907636   -0.015420    0.000000    1.485000
    91  Cl    c     7.826509    3.934293    3.934293    0.000000    1.485000
    92  Cl    c     7.826509    3.934293   -0.015420    0.000000    1.485000
    93  Cl    c     7.826509   -0.015420    3.934293    0.000000    1.485000
    94  Cl    c     7.826509   -0.015420   -0.015420    0.000000    1.485000
    95  Cl    c    -0.015420    7.826509    3.934293    0.000000    1.485000
    96  Cl    c    -0.015420    7.826509   -0.015420    0.000000    1.485000
    97  Cl    c    -0.015420   -3.907636    3.934293    0.000000    1.485000
    98  Cl    c    -0.015420   -3.907636   -0.015420    0.000000    1.485000
    99  Cl    c    -3.907636    3.934293    3.934293    0.000000    1.485000
   100  Cl    c    -3.907636    3.934293   -0.015420    0.000000    1.485000
   101  Cl    c    -3.907636   -0.015420    3.934293    0.000000    1.485000
   102  Cl    c    -3.907636   -0.015420   -0.015420    0.000000    1.485000
   103  Cl    c     3.934293    3.934293    7.826509    0.000000    1.485000
   104  Cl    c     3.934293    3.934293   -3.907636    0.000000    1.485000
   105  Cl    c     3.934293   -0.015420    7.826509    0.000000    1.485000
   106  Cl    c     3.934293   -0.015420   -3.907636    0.000000    1.485000
   107  Cl    c    -0.015420    3.934293    7.826509    0.000000    1.485000
   108  Cl    c    -0.015420    3.934293   -3.907636    0.000000    1.485000
   109  Cl    c    -0.015420   -0.015420    7.826509    0.000000    1.485000
   110  Cl    c    -0.015420   -0.015420   -3.907636    0.000000    1.485000
   111  O     c     5.857903    5.857903    5.857903    0.000000    0.183000
   112  O     c     5.857903    5.857903   -1.939030    0.000000    0.183000
   113  O     c     5.857903   -1.939030    5.857903    0.000000    0.183000
   114  O     c     5.857903   -1.939030   -1.939030    0.000000    0.183000
   115  O     c    -1.939030    5.857903    5.857903    0.000000    0.183000
   116  O     c    -1.939030    5.857903   -1.939030    0.000000    0.183000
   117  O     c    -1.939030   -1.939030    5.857903    0.000000    0.183000
   118  O     c    -1.939030   -1.939030   -1.939030    0.000000    0.183000
   119  Li    c     1.959436    5.920790    7.878095    0.000000    1.000000
   120  Li    c     1.959436    5.920790   -3.959222    0.000000    1.000000
   121  Li    c     1.959436   -2.001917    7.878095    0.000000    1.000000
   122  Li    c     1.959436   -2.001917   -3.959222    0.000000    1.000000
   123  Li    c     5.920790    1.959436    7.878095    0.000000    1.000000
   124  Li    c     5.920790    1.959436   -3.959222    0.000000    1.000000
   125  Li    c    -2.001917    1.959436    7.878095    0.000000    1.000000
   126  Li    c    -2.001917    1.959436   -3.959222    0.000000    1.000000
   127  Li    c     7.878095    1.959436    5.920790    0.000000    1.000000
   128  Li    c     7.878095    1.959436   -2.001917    0.000000    1.000000
   129  Li    c     7.878095    5.920790    1.959436    0.000000    1.000000
   130  Li    c     7.878095   -2.001917    1.959436    0.000000    1.000000
   131  Li    c    -3.959222    1.959436    5.920790    0.000000    1.000000
   132  Li    c    -3.959222    1.959436   -2.001917    0.000000    1.000000
   133  Li    c    -3.959222    5.920790    1.959436    0.000000    1.000000
   134  Li    c    -3.959222   -2.001917    1.959436    0.000000    1.000000
   135  Li    c     1.959436    7.878095    5.920790    0.000000    1.000000
   136  Li    c     1.959436    7.878095   -2.001917    0.000000    1.000000
   137  Li    c     1.959436   -3.959222    5.920790    0.000000    1.000000
   138  Li    c     1.959436   -3.959222   -2.001917    0.000000    1.000000
   139  Li    c     5.920790    7.878095    1.959436    0.000000    1.000000
   140  Li    c     5.920790   -3.959222    1.959436    0.000000    1.000000
   141  Li    c    -2.001917    7.878095    1.959436    0.000000    1.000000
   142  Li    c    -2.001917   -3.959222    1.959436    0.000000    1.000000
   143  O     c     1.959436    1.959436    9.825107    0.000000    0.183000
   144  O     c     1.959436    9.825107    1.959436    0.000000    0.183000
   145  O     c     9.825107    1.959436    1.959436    0.000000    0.183000
   146  O     c     1.959436    1.959436   -5.906234    0.000000    0.183000
   147  O     c     1.959436   -5.906234    1.959436    0.000000    0.183000
   148  O     c    -5.906234    1.959436    1.959436    0.000000    0.183000
   149  Li    c     1.959436    9.842487    3.928716    0.000000    1.000000
   150  Li    c     1.959436    9.842487   -0.009843    0.000000    1.000000
   151  Li    c     9.842487    1.959436    3.928716    0.000000    1.000000
   152  Li    c     9.842487    1.959436   -0.009843    0.000000    1.000000
   153  Li    c     3.928716    1.959436    9.842487    0.000000    1.000000
   154  Li    c     3.928716    9.842487    1.959436    0.000000    1.000000
   155  Li    c    -0.009843    1.959436    9.842487    0.000000    1.000000
   156  Li    c    -0.009843    9.842487    1.959436    0.000000    1.000000
   157  Li    c     1.959436    3.928716    9.842487    0.000000    1.000000
   158  Li    c     1.959436   -0.009843    9.842487    0.000000    1.000000
   159  Li    c     9.842487    3.928716    1.959436    0.000000    1.000000
   160  Li    c     9.842487   -0.009843    1.959436    0.000000    1.000000
   161  Li    c     1.959436   -5.923614    3.928716    0.000000    1.000000
   162  Li    c     1.959436   -5.923614   -0.009843    0.000000    1.000000
   163  Li    c    -5.923614    1.959436    3.928716    0.000000    1.000000
   164  Li    c    -5.923614    1.959436   -0.009843    0.000000    1.000000
   165  Li    c     3.928716    1.959436   -5.923614    0.000000    1.000000
   166  Li    c     3.928716   -5.923614    1.959436    0.000000    1.000000
   167  Li    c    -0.009843    1.959436   -5.923614    0.000000    1.000000
   168  Li    c    -0.009843   -5.923614    1.959436    0.000000    1.000000
   169  Li    c     1.959436    3.928716   -5.923614    0.000000    1.000000
   170  Li    c     1.959436   -0.009843   -5.923614    0.000000    1.000000
   171  Li    c    -5.923614    3.928716    1.959436    0.000000    1.000000
   172  Li    c    -5.923614   -0.009843    1.959436    0.000000    1.000000
   173  Li    c     5.886417    5.886417    7.855088    0.000000    1.000000
   174  Li    c     5.886417    5.886417   -3.936215    0.000000    1.000000
   175  Li    c     5.886417   -1.967544    7.855088    0.000000    1.000000
   176  Li    c     5.886417   -1.967544   -3.936215    0.000000    1.000000
   177  Li    c    -1.967544    5.886417    7.855088    0.000000    1.000000
   178  Li    c    -1.967544    5.886417   -3.936215    0.000000    1.000000
   179  Li    c    -1.967544   -1.967544    7.855088    0.000000    1.000000
   180  Li    c    -1.967544   -1.967544   -3.936215    0.000000    1.000000
   181  Li    c     7.855088    5.886417    5.886417    0.000000    1.000000
   182  Li    c     7.855088    5.886417   -1.967544    0.000000    1.000000
   183  Li    c     7.855088   -1.967544    5.886417    0.000000    1.000000
   184  Li    c     7.855088   -1.967544   -1.967544    0.000000    1.000000
   185  Li    c    -3.936215    5.886417    5.886417    0.000000    1.000000
   186  Li    c    -3.936215    5.886417   -1.967544    0.000000    1.000000
   187  Li    c    -3.936215   -1.967544    5.886417    0.000000    1.000000
   188  Li    c    -3.936215   -1.967544   -1.967544    0.000000    1.000000
   189  Li    c     5.886417    7.855088    5.886417    0.000000    1.000000
   190  Li    c     5.886417    7.855088   -1.967544    0.000000    1.000000
   191  Li    c     5.886417   -3.936215    5.886417    0.000000    1.000000
   192  Li    c     5.886417   -3.936215   -1.967544    0.000000    1.000000
   193  Li    c    -1.967544    7.855088    5.886417    0.000000    1.000000
   194  Li    c    -1.967544    7.855088   -1.967544    0.000000    1.000000
   195  Li    c    -1.967544   -3.936215    5.886417    0.000000    1.000000
   196  Li    c    -1.967544   -3.936215   -1.967544    0.000000    1.000000
   197  Cl    c     3.915184    7.828590    7.828590    0.000000    1.485000
   198  Cl    c     3.915184    7.828590   -3.909717    0.000000    1.485000
   199  Cl    c     3.915184   -3.909717    7.828590    0.000000    1.485000
   200  Cl    c     3.915184   -3.909717   -3.909717    0.000000    1.485000
   201  Cl    c     7.828590    3.915184    7.828590    0.000000    1.485000
   202  Cl    c     7.828590    3.915184   -3.909717    0.000000    1.485000
   203  Cl    c     7.828590    7.828590    3.915184    0.000000    1.485000
   204  Cl    c     7.828590    7.828590    0.003689    0.000000    1.485000
   205  Cl    c     7.828590    0.003689    7.828590    0.000000    1.485000
   206  Cl    c     7.828590    0.003689   -3.909717    0.000000    1.485000
   207  Cl    c     7.828590   -3.909717    3.915184    0.000000    1.485000
   208  Cl    c     7.828590   -3.909717    0.003689    0.000000    1.485000
   209  Cl    c     0.003689    7.828590    7.828590    0.000000    1.485000
   210  Cl    c     0.003689    7.828590   -3.909717    0.000000    1.485000
   211  Cl    c     0.003689   -3.909717    7.828590    0.000000    1.485000
   212  Cl    c     0.003689   -3.909717   -3.909717    0.000000    1.485000
   213  Cl    c    -3.909717    3.915184    7.828590    0.000000    1.485000
   214  Cl    c    -3.909717    3.915184   -3.909717    0.000000    1.485000
   215  Cl    c    -3.909717    7.828590    3.915184    0.000000    1.485000
   216  Cl    c    -3.909717    7.828590    0.003689    0.000000    1.485000
   217  Cl    c    -3.909717    0.003689    7.828590    0.000000    1.485000
   218  Cl    c    -3.909717    0.003689   -3.909717    0.000000    1.485000
   219  Cl    c    -3.909717   -3.909717    3.915184    0.000000    1.485000
   220  Cl    c    -3.909717   -3.909717    0.003689    0.000000    1.485000
   221  O     c     1.959436    5.882189    9.805073    0.000000    0.183000
   222  O     c     1.959436    9.805073    5.882189    0.000000    0.183000
   223  O     c     1.959436    9.805073   -1.963316    0.000000    0.183000
   224  O     c     1.959436   -1.963316    9.805073    0.000000    0.183000
   225  O     c     5.882189    1.959436    9.805073    0.000000    0.183000
   226  O     c     5.882189    9.805073    1.959436    0.000000    0.183000
   227  O     c     9.805073    1.959436    5.882189    0.000000    0.183000
   228  O     c     9.805073    1.959436   -1.963316    0.000000    0.183000
   229  O     c     9.805073    5.882189    1.959436    0.000000    0.183000
   230  O     c     9.805073   -1.963316    1.959436    0.000000    0.183000
   231  O     c    -1.963316    1.959436    9.805073    0.000000    0.183000
   232  O     c    -1.963316    9.805073    1.959436    0.000000    0.183000
   233  O     c     1.959436    5.882189   -5.886200    0.000000    0.183000
   234  O     c     1.959436   -1.963316   -5.886200    0.000000    0.183000
   235  O     c     1.959436   -5.886200    5.882189    0.000000    0.183000
   236  O     c     1.959436   -5.886200   -1.963316    0.000000    0.183000
   237  O     c     5.882189    1.959436   -5.886200    0.000000    0.183000
   238  O     c     5.882189   -5.886200    1.959436    0.000000    0.183000
   239  O     c    -1.963316    1.959436   -5.886200    0.000000    0.183000
   240  O     c    -1.963316   -5.886200    1.959436    0.000000    0.183000
   241  O     c    -5.886200    1.959436    5.882189    0.000000    0.183000
   242  O     c    -5.886200    1.959436   -1.963316    0.000000    0.183000
   243  O     c    -5.886200    5.882189    1.959436    0.000000    0.183000
   244  O     c    -5.886200   -1.963316    1.959436    0.000000    0.183000
   245  Li    c     5.888351    9.823300    3.925265    0.000000    1.000000
   246  Li    c     5.888351    9.823300   -0.006392    0.000000    1.000000
   247  Li    c     9.823300    5.888351    3.925265    0.000000    1.000000
   248  Li    c     9.823300    5.888351   -0.006392    0.000000    1.000000
   249  Li    c     9.823300   -1.969478    3.925265    0.000000    1.000000
   250  Li    c     9.823300   -1.969478   -0.006392    0.000000    1.000000
   251  Li    c    -1.969478    9.823300    3.925265    0.000000    1.000000
   252  Li    c    -1.969478    9.823300   -0.006392    0.000000    1.000000
   253  Li    c     3.925265    5.888351    9.823300    0.000000    1.000000
   254  Li    c     3.925265    9.823300    5.888351    0.000000    1.000000
   255  Li    c     3.925265    9.823300   -1.969478    0.000000    1.000000
   256  Li    c     3.925265   -1.969478    9.823300    0.000000    1.000000
   257  Li    c    -0.006392    5.888351    9.823300    0.000000    1.000000
   258  Li    c    -0.006392    9.823300    5.888351    0.000000    1.000000
   259  Li    c    -0.006392    9.823300   -1.969478    0.000000    1.000000
   260  Li    c    -0.006392   -1.969478    9.823300    0.000000    1.000000
   261  Li    c     5.888351    3.925265    9.823300    0.000000    1.000000
   262  Li    c     5.888351   -0.006392    9.823300    0.000000    1.000000
   263  Li    c     9.823300    3.925265    5.888351    0.000000    1.000000
   264  Li    c     9.823300    3.925265   -1.969478    0.000000    1.000000
   265  Li    c     9.823300   -0.006392    5.888351    0.000000    1.000000
   266  Li    c     9.823300   -0.006392   -1.969478    0.000000    1.000000
   267  Li    c    -1.969478    3.925265    9.823300    0.000000    1.000000
   268  Li    c    -1.969478   -0.006392    9.823300    0.000000    1.000000
   269  Li    c     5.888351   -5.904427    3.925265    0.000000    1.000000
   270  Li    c     5.888351   -5.904427   -0.006392    0.000000    1.000000
   271  Li    c    -1.969478   -5.904427    3.925265    0.000000    1.000000
   272  Li    c    -1.969478   -5.904427   -0.006392    0.000000    1.000000
   273  Li    c    -5.904427    5.888351    3.925265    0.000000    1.000000
   274  Li    c    -5.904427    5.888351   -0.006392    0.000000    1.000000
   275  Li    c    -5.904427   -1.969478    3.925265    0.000000    1.000000
   276  Li    c    -5.904427   -1.969478   -0.006392    0.000000    1.000000
   277  Li    c     3.925265    5.888351   -5.904427    0.000000    1.000000
   278  Li    c     3.925265   -1.969478   -5.904427    0.000000    1.000000
   279  Li    c     3.925265   -5.904427    5.888351    0.000000    1.000000
   280  Li    c     3.925265   -5.904427   -1.969478    0.000000    1.000000
   281  Li    c    -0.006392    5.888351   -5.904427    0.000000    1.000000
   282  Li    c    -0.006392   -1.969478   -5.904427    0.000000    1.000000
   283  Li    c    -0.006392   -5.904427    5.888351    0.000000    1.000000
   284  Li    c    -0.006392   -5.904427   -1.969478    0.000000    1.000000
   285  Li    c     5.888351    3.925265   -5.904427    0.000000    1.000000
   286  Li    c     5.888351   -0.006392   -5.904427    0.000000    1.000000
   287  Li    c    -1.969478    3.925265   -5.904427    0.000000    1.000000
   288  Li    c    -1.969478   -0.006392   -5.904427    0.000000    1.000000
   289  Li    c    -5.904427    3.925265    5.888351    0.000000    1.000000
   290  Li    c    -5.904427    3.925265   -1.969478    0.000000    1.000000
   291  Li    c    -5.904427   -0.006392    5.888351    0.000000    1.000000
   292  Li    c    -5.904427   -0.006392   -1.969478    0.000000    1.000000
   293  O     c     5.880449    5.880449    9.800759    0.000000    0.183000
   294  O     c     5.880449    9.800759    5.880449    0.000000    0.183000
   295  O     c     5.880449    9.800759   -1.961576    0.000000    0.183000
   296  O     c     5.880449   -1.961576    9.800759    0.000000    0.183000
   297  O     c     9.800759    5.880449    5.880449    0.000000    0.183000
   298  O     c     9.800759    5.880449   -1.961576    0.000000    0.183000
   299  O     c     9.800759   -1.961576    5.880449    0.000000    0.183000
   300  O     c     9.800759   -1.961576   -1.961576    0.000000    0.183000
   301  O     c    -1.961576    5.880449    9.800759    0.000000    0.183000
   302  O     c    -1.961576    9.800759    5.880449    0.000000    0.183000
   303  O     c    -1.961576    9.800759   -1.961576    0.000000    0.183000
   304  O     c    -1.961576   -1.961576    9.800759    0.000000    0.183000
   305  O     c     5.880449    5.880449   -5.881886    0.000000    0.183000
   306  O     c     5.880449   -1.961576   -5.881886    0.000000    0.183000
   307  O     c     5.880449   -5.881886    5.880449    0.000000    0.183000
   308  O     c     5.880449   -5.881886   -1.961576    0.000000    0.183000
   309  O     c    -1.961576    5.880449   -5.881886    0.000000    0.183000
   310  O     c    -1.961576   -1.961576   -5.881886    0.000000    0.183000
   311  O     c    -1.961576   -5.881886    5.880449    0.000000    0.183000
   312  O     c    -1.961576   -5.881886   -1.961576    0.000000    0.183000
   313  O     c    -5.881886    5.880449    5.880449    0.000000    0.183000
   314  O     c    -5.881886    5.880449   -1.961576    0.000000    0.183000
   315  O     c    -5.881886   -1.961576    5.880449    0.000000    0.183000
   316  O     c    -5.881886   -1.961576   -1.961576    0.000000    0.183000
   317  Li    c     1.959436    1.959436   11.781862    0.000000    1.000000
   318  Li    c     1.959436    1.959436   -7.862989    0.000000    1.000000
   319  Li    c    11.781862    1.959436    1.959436    0.000000    1.000000
   320  Li    c    -7.862989    1.959436    1.959436    0.000000    1.000000
   321  Li    c     1.959436   11.781862    1.959436    0.000000    1.000000
   322  Li    c     1.959436   -7.862989    1.959436    0.000000    1.000000
   323  Li    c     1.959436    9.828838    7.853810    0.000000    1.000000
   324  Li    c     1.959436    9.828838   -3.934937    0.000000    1.000000
   325  Li    c     9.828838    1.959436    7.853810    0.000000    1.000000
   326  Li    c     9.828838    1.959436   -3.934937    0.000000    1.000000
   327  Li    c     7.853810    1.959436    9.828838    0.000000    1.000000
   328  Li    c     7.853810    9.828838    1.959436    0.000000    1.000000
   329  Li    c    -3.934937    1.959436    9.828838    0.000000    1.000000
   330  Li    c    -3.934937    9.828838    1.959436    0.000000    1.000000
   331  Li    c     1.959436    7.853810    9.828838    0.000000    1.000000
   332  Li    c     1.959436   -3.934937    9.828838    0.000000    1.000000
   333  Li    c     9.828838    7.853810    1.959436    0.000000    1.000000
   334  Li    c     9.828838   -3.934937    1.959436    0.000000    1.000000
   335  Li    c     1.959436   -5.909965    7.853810    0.000000    1.000000
   336  Li    c     1.959436   -5.909965   -3.934937    0.000000    1.000000
   337  Li    c    -5.909965    1.959436    7.853810    0.000000    1.000000
   338  Li    c    -5.909965    1.959436   -3.934937    0.000000    1.000000
   339  Li    c     7.853810    1.959436   -5.909965    0.000000    1.000000
   340  Li    c     7.853810   -5.909965    1.959436    0.000000    1.000000
   341  Li    c    -3.934937    1.959436   -5.909965    0.000000    1.000000
   342  Li    c    -3.934937   -5.909965    1.959436    0.000000    1.000000
   343  Li    c     1.959436    7.853810   -5.909965    0.000000    1.000000
   344  Li    c     1.959436   -3.934937   -5.909965    0.000000    1.000000
   345  Li    c    -5.909965    7.853810    1.959436    0.000000    1.000000
   346  Li    c    -5.909965   -3.934937    1.959436    0.000000    1.000000
   347  Cl    c     3.920503    3.920503   11.751019    0.000000    1.485000
   348  Cl    c     3.920503    3.920503   -7.832146    0.000000    1.485000
   349  Cl    c     3.920503   -0.001630   11.751019    0.000000    1.485000
   350  Cl    c     3.920503   -0.001630   -7.832146    0.000000    1.485000
   351  Cl    c    -0.001630    3.920503   11.751019    0.000000    1.485000
   352  Cl    c    -0.001630    3.920503   -7.832146    0.000000    1.485000
   353  Cl    c    -0.001630   -0.001630   11.751019    0.000000    1.485000
   354  Cl    c    -0.001630   -0.001630   -7.832146    0.000000    1.485000
   355  Cl    c     3.920503   11.751019    3.920503    0.000000    1.485000
   356  Cl    c     3.920503   11.751019   -0.001630    0.000000    1.485000
   357  Cl    c     3.920503   -7.832146    3.920503    0.000000    1.485000
   358  Cl    c     3.920503   -7.832146   -0.001630    0.000000    1.485000
   359  Cl    c    11.751019    3.920503    3.920503    0.000000    1.485000
   360  Cl    c    11.751019    3.920503   -0.001630    0.000000    1.485000
   361  Cl    c    11.751019   -0.001630    3.920503    0.000000    1.485000
   362  Cl    c    11.751019   -0.001630   -0.001630    0.000000    1.485000
   363  Cl    c    -0.001630   11.751019    3.920503    0.000000    1.485000
   364  Cl    c    -0.001630   11.751019   -0.001630    0.000000    1.485000
   365  Cl    c    -0.001630   -7.832146    3.920503    0.000000    1.485000
   366  Cl    c    -0.001630   -7.832146   -0.001630    0.000000    1.485000
   367  Cl    c    -7.832146    3.920503    3.920503    0.000000    1.485000
   368  Cl    c    -7.832146    3.920503   -0.001630    0.000000    1.485000
   369  Cl    c    -7.832146   -0.001630    3.920503    0.000000    1.485000
   370  Cl    c    -7.832146   -0.001630   -0.001630    0.000000    1.485000
   371  Cl    c     7.822361    7.822361    7.822361    0.000000    1.485000
   372  Cl    c     7.822361    7.822361   -3.903488    0.000000    1.485000
   373  Cl    c     7.822361   -3.903488    7.822361    0.000000    1.485000
   374  Cl    c     7.822361   -3.903488   -3.903488    0.000000    1.485000
   375  Cl    c    -3.903488    7.822361    7.822361    0.000000    1.485000
   376  Cl    c    -3.903488    7.822361   -3.903488    0.000000    1.485000
   377  Cl    c    -3.903488   -3.903488    7.822361    0.000000    1.485000
   378  Cl    c    -3.903488   -3.903488   -3.903488    0.000000    1.485000
   379  Li    c     1.959436    5.891287   11.775141    0.000000    1.000000
   380  Li    c     1.959436    5.891287   -7.856268    0.000000    1.000000
   381  Li    c     1.959436   -1.972414   11.775141    0.000000    1.000000
   382  Li    c     1.959436   -1.972414   -7.856268    0.000000    1.000000
   383  Li    c     5.891287    1.959436   11.775141    0.000000    1.000000
   384  Li    c     5.891287    1.959436   -7.856268    0.000000    1.000000
   385  Li    c    -1.972414    1.959436   11.775141    0.000000    1.000000
   386  Li    c    -1.972414    1.959436   -7.856268    0.000000    1.000000
   387  Li    c    11.775141    1.959436    5.891287    0.000000    1.000000
   388  Li    c    11.775141    1.959436   -1.972414    0.000000    1.000000
   389  Li    c    11.775141    5.891287    1.959436    0.000000    1.000000
   390  Li    c    11.775141   -1.972414    1.959436    0.000000    1.000000
   391  Li    c    -7.856268    1.959436    5.891287    0.000000    1.000000
   392  Li    c    -7.856268    1.959436   -1.972414    0.000000    1.000000
   393  Li    c    -7.856268    5.891287    1.959436    0.000000    1.000000
   394  Li    c    -7.856268   -1.972414    1.959436    0.000000    1.000000
   395  Li    c     1.959436   11.775141    5.891287    0.000000    1.000000
   396  Li    c     1.959436   11.775141   -1.972414    0.000000    1.000000
   397  Li    c     1.959436   -7.856268    5.891287    0.000000    1.000000
   398  Li    c     1.959436   -7.856268   -1.972414    0.000000    1.000000
   399  Li    c     5.891287   11.775141    1.959436    0.000000    1.000000
   400  Li    c     5.891287   -7.856268    1.959436    0.000000    1.000000
   401  Li    c    -1.972414   11.775141    1.959436    0.000000    1.000000
   402  Li    c    -1.972414   -7.856268    1.959436    0.000000    1.000000
   403  Li    c     5.886626    9.811828    7.845956    0.000000    1.000000
   404  Li    c     5.886626    9.811828   -3.927083    0.000000    1.000000
   405  Li    c     5.886626   -5.892955    7.845956    0.000000    1.000000
   406  Li    c     5.886626   -5.892955   -3.927083    0.000000    1.000000
   407  Li    c     9.811828    5.886626    7.845956    0.000000    1.000000
   408  Li    c     9.811828    5.886626   -3.927083    0.000000    1.000000
   409  Li    c     9.811828   -1.967753    7.845956    0.000000    1.000000
   410  Li    c     9.811828   -1.967753   -3.927083    0.000000    1.000000
   411  Li    c    -1.967753    9.811828    7.845956    0.000000    1.000000
   412  Li    c    -1.967753    9.811828   -3.927083    0.000000    1.000000
   413  Li    c    -1.967753   -5.892955    7.845956    0.000000    1.000000
   414  Li    c    -1.967753   -5.892955   -3.927083    0.000000    1.000000
   415  Li    c    -5.892955    5.886626    7.845956    0.000000    1.000000
   416  Li    c    -5.892955    5.886626   -3.927083    0.000000    1.000000
   417  Li    c    -5.892955   -1.967753    7.845956    0.000000    1.000000
   418  Li    c    -5.892955   -1.967753   -3.927083    0.000000    1.000000
   419  Li    c     7.845956    5.886626    9.811828    0.000000    1.000000
   420  Li    c     7.845956    9.811828    5.886626    0.000000    1.000000
   421  Li    c     7.845956    9.811828   -1.967753    0.000000    1.000000
   422  Li    c     7.845956   -1.967753    9.811828    0.000000    1.000000
   423  Li    c    -3.927083    5.886626    9.811828    0.000000    1.000000
   424  Li    c    -3.927083    9.811828    5.886626    0.000000    1.000000
   425  Li    c    -3.927083    9.811828   -1.967753    0.000000    1.000000
   426  Li    c    -3.927083   -1.967753    9.811828    0.000000    1.000000
   427  Li    c     5.886626    7.845956    9.811828    0.000000    1.000000
   428  Li    c     5.886626   -3.927083    9.811828    0.000000    1.000000
   429  Li    c     9.811828    7.845956    5.886626    0.000000    1.000000
   430  Li    c     9.811828    7.845956   -1.967753    0.000000    1.000000
   431  Li    c     9.811828   -3.927083    5.886626    0.000000    1.000000
   432  Li    c     9.811828   -3.927083   -1.967753    0.000000    1.000000
   433  Li    c    -1.967753    7.845956    9.811828    0.000000    1.000000
   434  Li    c    -1.967753   -3.927083    9.811828    0.000000    1.000000
   435  Li    c     7.845956    5.886626   -5.892955    0.000000    1.000000
   436  Li    c     7.845956   -1.967753   -5.892955    0.000000    1.000000
   437  Li    c     7.845956   -5.892955    5.886626    0.000000    1.000000
   438  Li    c     7.845956   -5.892955   -1.967753    0.000000    1.000000
   439  Li    c    -3.927083    5.886626   -5.892955    0.000000    1.000000
   440  Li    c    -3.927083   -1.967753   -5.892955    0.000000    1.000000
   441  Li    c    -3.927083   -5.892955    5.886626    0.000000    1.000000
   442  Li    c    -3.927083   -5.892955   -1.967753    0.000000    1.000000
   443  Li    c     5.886626    7.845956   -5.892955    0.000000    1.000000
   444  Li    c     5.886626   -3.927083   -5.892955    0.000000    1.000000
   445  Li    c    -1.967753    7.845956   -5.892955    0.000000    1.000000
   446  Li    c    -1.967753   -3.927083   -5.892955    0.000000    1.000000
   447  Li    c    -5.892955    7.845956    5.886626    0.000000    1.000000
   448  Li    c    -5.892955    7.845956   -1.967753    0.000000    1.000000
   449  Li    c    -5.892955   -3.927083    5.886626    0.000000    1.000000
   450  Li    c    -5.892955   -3.927083   -1.967753    0.000000    1.000000
   451  O     c     1.959436    9.800515    9.800515    0.000000    0.183000
   452  O     c     9.800515    1.959436    9.800515    0.000000    0.183000
   453  O     c     9.800515    9.800515    1.959436    0.000000    0.183000
   454  O     c     1.959436    9.800515   -5.881642    0.000000    0.183000
   455  O     c     1.959436   -5.881642    9.800515    0.000000    0.183000
   456  O     c     9.800515    1.959436   -5.881642    0.000000    0.183000
   457  O     c     9.800515   -5.881642    1.959436    0.000000    0.183000
   458  O     c    -5.881642    1.959436    9.800515    0.000000    0.183000
   459  O     c    -5.881642    9.800515    1.959436    0.000000    0.183000
   460  O     c     1.959436   -5.881642   -5.881642    0.000000    0.183000
   461  O     c    -5.881642    1.959436   -5.881642    0.000000    0.183000
   462  O     c    -5.881642   -5.881642    1.959436    0.000000    0.183000
   463  Li    c     9.811076    9.811076    3.922702    0.000000    1.000000
   464  Li    c     9.811076    9.811076   -0.003829    0.000000    1.000000
   465  Li    c     3.922702    9.811076    9.811076    0.000000    1.000000
   466  Li    c     3.922702    9.811076   -5.892203    0.000000    1.000000
   467  Li    c     3.922702   -5.892203    9.811076    0.000000    1.000000
   468  Li    c    -0.003829    9.811076    9.811076    0.000000    1.000000
   469  Li    c    -0.003829    9.811076   -5.892203    0.000000    1.000000
   470  Li    c    -0.003829   -5.892203    9.811076    0.000000    1.000000
   471  Li    c     9.811076    3.922702    9.811076    0.000000    1.000000
   472  Li    c     9.811076    3.922702   -5.892203    0.000000    1.000000
   473  Li    c     9.811076   -0.003829    9.811076    0.000000    1.000000
   474  Li    c     9.811076   -0.003829   -5.892203    0.000000    1.000000
   475  Li    c    -5.892203    3.922702    9.811076    0.000000    1.000000
   476  Li    c    -5.892203   -0.003829    9.811076    0.000000    1.000000
   477  Li    c     9.811076   -5.892203    3.922702    0.000000    1.000000
   478  Li    c     9.811076   -5.892203   -0.003829    0.000000    1.000000
   479  Li    c    -5.892203    9.811076    3.922702    0.000000    1.000000
   480  Li    c    -5.892203    9.811076   -0.003829    0.000000    1.000000
   481  Li    c    -5.892203   -5.892203    3.922702    0.000000    1.000000
   482  Li    c    -5.892203   -5.892203   -0.003829    0.000000    1.000000
   483  Li    c     3.922702   -5.892203   -5.892203    0.000000    1.000000
   484  Li    c    -0.003829   -5.892203   -5.892203    0.000000    1.000000
   485  Li    c    -5.892203    3.922702   -5.892203    0.000000    1.000000
   486  Li    c    -5.892203   -0.003829   -5.892203    0.000000    1.000000
   487  Li    c     5.886175    5.886175   11.768604    0.000000    1.000000
   488  Li    c     5.886175    5.886175   -7.849731    0.000000    1.000000
   489  Li    c     5.886175   -1.967302   11.768604    0.000000    1.000000
   490  Li    c     5.886175   -1.967302   -7.849731    0.000000    1.000000
   491  Li    c    -1.967302    5.886175   11.768604    0.000000    1.000000
   492  Li    c    -1.967302    5.886175   -7.849731    0.000000    1.000000
   493  Li    c    -1.967302   -1.967302   11.768604    0.000000    1.000000
   494  Li    c    -1.967302   -1.967302   -7.849731    0.000000    1.000000
   495  Li    c    11.768604    5.886175    5.886175    0.000000    1.000000
   496  Li    c    11.768604    5.886175   -1.967302    0.000000    1.000000
   497  Li    c    11.768604   -1.967302    5.886175    0.000000    1.000000
[...]
      3 y          1.959436      1.959436     0.000000    Cartesian    0.00
      3 z          5.878309      6.027033     0.148723    Cartesian    2.53
      4 x          1.959436      1.959436     0.000000    Cartesian    0.00
      4 y          5.878309      6.005613     0.127304    Cartesian    2.17
      4 z          3.918873      3.960734     0.041861    Cartesian    1.07
      5 x          1.959436      1.959436     0.000000    Cartesian    0.00
      5 y          5.878309      5.881595     0.003286    Cartesian    0.06
      5 z          5.878309      5.881595     0.003286    Cartesian    0.06
      6 x          1.959436      1.959436     0.000000    Cartesian    0.00
      6 y          1.959436      1.959436     0.000000    Cartesian    0.00
      6 z          7.837746      7.917869     0.080123    Cartesian    1.02
      7 x          5.878309      5.926362     0.048052    Cartesian    0.82
      7 y          5.878309      5.926362     0.048052    Cartesian    0.82
      7 z          3.918873      3.926805     0.007932    Cartesian    0.20
      8 x          3.918873      3.934293     0.015420    Cartesian    0.39
      8 y          7.837746      7.826509    -0.011237    Cartesian   -0.14
      8 z          3.918873      3.934293     0.015420    Cartesian    0.39
      9 x          5.878309      5.857903    -0.020406    Cartesian   -0.35
      9 y          5.878309      5.857903    -0.020406    Cartesian   -0.35
      9 z          5.878309      5.857903    -0.020406    Cartesian   -0.35
     10 x          1.959436      1.959436     0.000000    Cartesian    0.00
     10 y          5.878309      5.920790     0.042481    Cartesian    0.72
     10 z          7.837746      7.878095     0.040349    Cartesian    0.51
     11 x          1.959436      1.959436     0.000000    Cartesian    0.00
     11 y          1.959436      1.959436     0.000000    Cartesian    0.00
     11 z          9.797182      9.825107     0.027925    Cartesian    0.29
     12 x          1.959436      1.959436     0.000000    Cartesian    0.00
     12 y          9.797182      9.842487     0.045305    Cartesian    0.46
     12 z          3.918873      3.928716     0.009843    Cartesian    0.25
     13 x          5.878309      5.886417     0.008107    Cartesian    0.14
     13 y          5.878309      5.886417     0.008107    Cartesian    0.14
     13 z          7.837746      7.855088     0.017342    Cartesian    0.22
     14 x          3.918873      3.915184    -0.003689    Cartesian   -0.09
     14 y          7.837746      7.828590    -0.009156    Cartesian   -0.12
     14 z          7.837746      7.828590    -0.009156    Cartesian   -0.12
     15 x          1.959436      1.959436     0.000000    Cartesian    0.00
     15 y          5.878309      5.882189     0.003879    Cartesian    0.07
     15 z          9.797182      9.805073     0.007891    Cartesian    0.08
     16 x          5.878309      5.888351     0.010041    Cartesian    0.17
     16 y          9.797182      9.823300     0.026117    Cartesian    0.27
     16 z          3.918873      3.925265     0.006392    Cartesian    0.16
     17 x          5.878309      5.880449     0.002140    Cartesian    0.04
     17 y          5.878309      5.880449     0.002140    Cartesian    0.04
     17 z          9.797182      9.800759     0.003576    Cartesian    0.04
     18 x          1.959436      1.959436     0.000000    Cartesian    0.00
     18 y          1.959436      1.959436     0.000000    Cartesian    0.00
     18 z         11.756619     11.781862     0.025243    Cartesian    0.21
     19 x          1.959436      1.959436     0.000000    Cartesian    0.00
     19 y          9.797182      9.828838     0.031656    Cartesian    0.32
     19 z          7.837746      7.853810     0.016064    Cartesian    0.20
     20 x          3.918873      3.920503     0.001630    Cartesian    0.04
     20 y          3.918873      3.920503     0.001630    Cartesian    0.04
     20 z         11.756619     11.751019    -0.005600    Cartesian   -0.05
     21 x          7.837746      7.822361    -0.015385    Cartesian   -0.20
     21 y          7.837746      7.822361    -0.015385    Cartesian   -0.20
     21 z          7.837746      7.822361    -0.015385    Cartesian   -0.20
     22 x          1.959436      1.959436     0.000000    Cartesian    0.00
     22 y          5.878309      5.891287     0.012977    Cartesian    0.22
     22 z         11.756619     11.775141     0.018522    Cartesian    0.16
     23 x          5.878309      5.886626     0.008316    Cartesian    0.14
     23 y          9.797182      9.811828     0.014646    Cartesian    0.15
     23 z          7.837746      7.845956     0.008210    Cartesian    0.10
     24 x          1.959436      1.959436     0.000000    Cartesian    0.00
     24 y          9.797182      9.800515     0.003333    Cartesian    0.03
     24 z          9.797182      9.800515     0.003333    Cartesian    0.03
     25 x          9.797182      9.811076     0.013893    Cartesian    0.14
     25 y          9.797182      9.811076     0.013893    Cartesian    0.14
     25 z          3.918873      3.922702     0.003829    Cartesian    0.10
     26 x          5.878309      5.886175     0.007865    Cartesian    0.13
     26 y          5.878309      5.886175     0.007865    Cartesian    0.13
     26 z         11.756619     11.768604     0.011985    Cartesian    0.10
     27 x          3.918873      3.917266    -0.001607    Cartesian   -0.04
     27 y          7.837746      7.836974    -0.000772    Cartesian   -0.01
     27 z         11.756619     11.751339    -0.005280    Cartesian   -0.04
     28 x          1.959436      1.959436     0.000000    Cartesian    0.00
     28 y          1.959436      1.959436     0.000000    Cartesian    0.00
     28 z         -9.797182     -9.802424    -0.005241    Cartesian    0.05
     29 x          5.878309      5.878901     0.000591    Cartesian    0.01
     29 y          9.797182      9.797092    -0.000090    Cartesian   -0.00
     29 z          9.797182      9.797092    -0.000090    Cartesian   -0.00
     30 x          1.959436      1.959436     0.000000    Cartesian    0.00
     30 y         -9.797182     -9.814312    -0.017129    Cartesian    0.17
     30 z          3.918873      3.921268     0.002395    Cartesian    0.06
     31 x          1.959436      1.959436     0.000000    Cartesian    0.00
     31 y          5.878309      5.878720     0.000410    Cartesian    0.01
     31 z         -9.797182     -9.799561    -0.002378    Cartesian    0.02
     32 x          5.878309      5.882955     0.004646    Cartesian    0.08
     32 y         -9.797182     -9.810434    -0.013252    Cartesian    0.14
     32 z          3.918873      3.921364     0.002491    Cartesian    0.06
     33 x          1.959436      1.959436     0.000000    Cartesian    0.00
     33 y          9.797182      9.812366     0.015183    Cartesian    0.15
     33 z         11.756619     11.768408     0.011789    Cartesian    0.10
     34 x          9.797182      9.806434     0.009251    Cartesian    0.09
     34 y          9.797182      9.806434     0.009251    Cartesian    0.09
     34 z          7.837746      7.842192     0.004446    Cartesian    0.06
     35 x          7.837746      7.835868    -0.001878    Cartesian   -0.02
     35 y          7.837746      7.835868    -0.001878    Cartesian   -0.02
     35 z         11.756619     11.751880    -0.004739    Cartesian   -0.04
     36 x          5.878309      5.880536     0.002227    Cartesian    0.04
     36 y         -9.797182     -9.797524    -0.000342    Cartesian    0.00
     36 z          5.878309      5.880536     0.002227    Cartesian    0.04
     37 x          1.959436      1.959436     0.000000    Cartesian    0.00
     37 y         -9.797182     -9.813985    -0.016803    Cartesian    0.17
     37 z          7.837746      7.844422     0.006676    Cartesian    0.09
     38 x          5.878309      5.883818     0.005508    Cartesian    0.09
     38 y          9.797182      9.807021     0.009838    Cartesian    0.10
     38 z         11.756619     11.764826     0.008207    Cartesian    0.07
     39 x          9.797182      9.795767    -0.001416    Cartesian   -0.01
     39 y          9.797182      9.795767    -0.001416    Cartesian   -0.01
     39 z          9.797182      9.795767    -0.001416    Cartesian   -0.01
     40 x          1.959436      1.959436     0.000000    Cartesian    0.00
     40 y          1.959436      1.959436     0.000000    Cartesian    0.00
     40 z        -11.756619    -11.769189    -0.012570    Cartesian    0.11
     41 x          5.878309      5.880928     0.002619    Cartesian    0.04
     41 y         -9.797182     -9.804193    -0.007010    Cartesian    0.07
     41 z          7.837746      7.842024     0.004278    Cartesian    0.05
     42 x          3.918873      3.919545     0.000672    Cartesian    0.02
     42 y        -11.756619    -11.750811     0.005808    Cartesian   -0.05
     42 z          3.918873      3.919545     0.000672    Cartesian    0.02
     43 x          3.918873      3.918290    -0.000583    Cartesian   -0.01
     43 y         11.756619     11.753421    -0.003198    Cartesian   -0.03
     43 z         11.756619     11.753421    -0.003198    Cartesian   -0.03
     44 x          1.959436      1.959436     0.000000    Cartesian    0.00
     44 y          9.797182      9.801107     0.003925    Cartesian    0.04
     44 z         -9.797182     -9.799704    -0.002521    Cartesian    0.03
     45 x          1.959436      1.959436     0.000000    Cartesian    0.00
     45 y          5.878309      5.878855     0.000546    Cartesian    0.01
     45 z        -11.756619    -11.763641    -0.007022    Cartesian    0.06
     46 x          9.797182      9.803669     0.006486    Cartesian    0.07
     46 y         -9.797182     -9.804764    -0.007581    Cartesian    0.08
     46 z          3.918873      3.919634     0.000761    Cartesian    0.02
     47 x          5.878309      5.878538     0.000229    Cartesian    0.00
     47 y         -9.797182     -9.797116     0.000067    Cartesian   -0.00
     47 z          9.797182      9.797567     0.000384    Cartesian    0.00
     48 x        -11.756619    -11.763025    -0.006406    Cartesian    0.05
     48 y          5.878309      5.882784     0.004475    Cartesian    0.08
     48 z          5.878309      5.882784     0.004475    Cartesian    0.08
     49 x          9.797182      9.801091     0.003908    Cartesian    0.04
     49 y          9.797182      9.801091     0.003908    Cartesian    0.04
     49 z         11.756619     11.761528     0.004909    Cartesian    0.04
     50 x          3.918873      3.918047    -0.000826    Cartesian   -0.02
     50 y        -11.756619    -11.746828     0.009791    Cartesian   -0.08
     50 z          7.837746      7.834947    -0.002799    Cartesian   -0.04
     51 x         11.756619     11.751152    -0.005467    Cartesian   -0.05
     51 y         11.756619     11.751152    -0.005467    Cartesian   -0.05
     51 z          7.837746      7.835335    -0.002411    Cartesian   -0.03
     52 x          1.959436      1.959436     0.000000    Cartesian    0.00
     52 y         -9.797182     -9.808487    -0.011304    Cartesian    0.12
     52 z         11.756619     11.763509     0.006890    Cartesian    0.06
     53 x          9.797182      9.803156     0.005973    Cartesian    0.06
     53 y         -9.797182     -9.807241    -0.010058    Cartesian    0.10
     53 z          7.837746      7.841141     0.003395    Cartesian    0.04
     54 x          1.959436      1.959436     0.000000    Cartesian    0.00
     54 y          1.959436      1.959436     0.000000    Cartesian    0.00
     54 z         17.634928     17.634951     0.000023    Cartesian    0.00
     55 x          1.959436      1.959436     0.000000    Cartesian    0.00
     55 y          9.797182      9.807686     0.010504    Cartesian    0.11
     55 z        -11.756619    -11.765715    -0.009096    Cartesian    0.08
     56 x         11.756619     11.762996     0.006377    Cartesian    0.05
     56 y         -9.797182     -9.809078    -0.011896    Cartesian    0.12
     56 z          5.878309      5.881636     0.003327    Cartesian    0.06
     57 x          1.959436      1.959436     0.000000    Cartesian    0.00
     57 y         17.634928     17.650186     0.015258    Cartesian    0.09
     57 z          3.918873      3.920655     0.001782    Cartesian    0.05
     58 x          3.918873      3.671654    -0.247219    Cartesian   -6.31
     58 y          3.918873      3.671654    -0.247219    Cartesian   -6.31
     58 z          3.918873      3.671654    -0.247219    Cartesian   -6.31
     59 x          1.959436      1.959436     0.000000    Cartesian    0.00
     59 y          1.959436      1.959436     0.000000    Cartesian    0.00
     59 z          5.878309      6.026744     0.148435    Cartesian    2.53
     60 x          1.959436      1.959436     0.000000    Cartesian    0.00
     60 y          5.878309      5.881565     0.003255    Cartesian    0.06
     60 z          5.878309      5.881565     0.003255    Cartesian    0.06
     61 x          3.918873      3.933355     0.014482    Cartesian    0.37
     61 y          7.837746      7.815494    -0.022252    Cartesian   -0.28
     61 z          3.918873      3.933355     0.014482    Cartesian    0.37
     62 x          5.878309      5.857868    -0.020442    Cartesian   -0.35
     62 y          5.878309      5.857868    -0.020442    Cartesian   -0.35
     62 z          5.878309      5.857868    -0.020442    Cartesian   -0.35
     63 x          1.959436      1.959436     0.000000    Cartesian    0.00
     63 y          1.959436      1.959436     0.000000    Cartesian    0.00
     63 z          9.797182      9.825054     0.027872    Cartesian    0.28
     64 x          3.918873      3.912514    -0.006359    Cartesian   -0.16
     64 y          7.837746      7.821283    -0.016463    Cartesian   -0.21
     64 z          7.837746      7.821283    -0.016463    Cartesian   -0.21
     65 x          1.959436      1.959436     0.000000    Cartesian    0.00
     65 y          5.878309      5.882181     0.003871    Cartesian    0.07
     65 z          9.797182      9.805038     0.007856    Cartesian    0.08
     66 x          5.878309      5.880442     0.002133    Cartesian    0.04
     66 y          5.878309      5.880442     0.002133    Cartesian    0.04
     66 z          9.797182      9.800745     0.003563    Cartesian    0.04
     67 x          3.918873      3.919641     0.000768    Cartesian    0.02
     67 y          3.918873      3.919641     0.000768    Cartesian    0.02
     67 z         11.756619     11.745591    -0.011028    Cartesian   -0.09
     68 x          7.837746      7.818163    -0.019583    Cartesian   -0.25
     68 y          7.837746      7.818163    -0.019583    Cartesian   -0.25
     68 z          7.837746      7.818163    -0.019583    Cartesian   -0.25
     69 x          1.959436      1.959436     0.000000    Cartesian    0.00
     69 y          9.797182      9.800502     0.003320    Cartesian    0.03
     69 z          9.797182      9.800502     0.003320    Cartesian    0.03
     70 x          3.918873      3.916154    -0.002719    Cartesian   -0.07
     70 y          7.837746      7.834824    -0.002922    Cartesian   -0.04
     70 z         11.756619     11.747596    -0.009023    Cartesian   -0.08
     71 x          1.959436      1.959436     0.000000    Cartesian    0.00
     71 y          1.959436      1.959436     0.000000    Cartesian    0.00
     71 z         -9.797182     -9.802399    -0.005216    Cartesian    0.05
     72 x          5.878309      5.878898     0.000588    Cartesian    0.01
     72 y          9.797182      9.797082    -0.000100    Cartesian   -0.00
     72 z          9.797182      9.797082    -0.000100    Cartesian   -0.00
     73 x          1.959436      1.959436     0.000000    Cartesian    0.00
     73 y          5.878309      5.878714     0.000405    Cartesian    0.01
     73 z         -9.797182     -9.799545    -0.002363    Cartesian    0.02
     74 x          7.837746      7.834129    -0.003617    Cartesian   -0.05
     74 y          7.837746      7.834129    -0.003617    Cartesian   -0.05
     74 z         11.756619     11.748996    -0.007623    Cartesian   -0.06
     75 x          5.878309      5.880536     0.002226    Cartesian    0.04
     75 y         -9.797182     -9.797510    -0.000328    Cartesian    0.00
     75 z          5.878309      5.880536     0.002226    Cartesian    0.04
     76 x          9.797182      9.795759    -0.001424    Cartesian   -0.01
     76 y          9.797182      9.795759    -0.001424    Cartesian   -0.01
     76 z          9.797182      9.795759    -0.001424    Cartesian   -0.01
     77 x          3.918873      3.919693     0.000820    Cartesian    0.02
     77 y        -11.756619    -11.747919     0.008700    Cartesian   -0.07
     77 z          3.918873      3.919693     0.000820    Cartesian    0.02
     78 x          3.918873      3.917363    -0.001510    Cartesian   -0.04
     78 y         11.756619     11.751154    -0.005465    Cartesian   -0.05
     78 z         11.756619     11.751154    -0.005465    Cartesian   -0.05
     79 x          1.959436      1.959436     0.000000    Cartesian    0.00
     79 y          9.797182      9.801105     0.003923    Cartesian    0.04
     79 z         -9.797182     -9.799691    -0.002508    Cartesian    0.03
     80 x          5.878309      5.878536     0.000226    Cartesian    0.00
     80 y         -9.797182     -9.797113     0.000069    Cartesian   -0.00
     80 z          9.797182      9.797559     0.000376    Cartesian    0.00
     81 x          3.918873      3.917848    -0.001025    Cartesian   -0.03
     81 y        -11.756619    -11.744073     0.012546    Cartesian   -0.11
     81 z          7.837746      7.833731    -0.004015    Cartesian   -0.05
     82 x         11.756619     11.749187    -0.007432    Cartesian   -0.06
     82 y         11.756619     11.749187    -0.007432    Cartesian   -0.06
     82 z          7.837746      7.834641    -0.003105    Cartesian   -0.04
     83 x          1.959436      1.959436     0.000000    Cartesian    0.00
     83 y          1.959436      1.959436     0.000000    Cartesian    0.00
     83 z         17.634928     17.634949     0.000020    Cartesian    0.00
--------------------------------------------------------------------------------


  Time to end of optimisation  =       32.4698 seconds


  Peak dynamic memory used =     577.80 MB 


  Timing analysis for GULP :

--------------------------------------------------------------------------------
  Task / Subroutine                                          Time (Seconds)
--------------------------------------------------------------------------------
  Calculation of reciprocal space energy and derivatives          0.0006
  Calculation of reciprocal space energy using symmetry           0.0003
  Calculation of real space energy and derivatives                0.0044
  Calculation of real space energy using symmetry                 0.0032
  Calculation for region 1 energy and derivatives (2-b)          23.0311
  Calculation for region 2a energy                                7.5595
  Calculation for region 2b energy                                0.0003
  Calculation and manipulation of Hessian matrix                  0.5093
  Calculation of matrix inversion                                 0.0075
  Symmetry generation of equivalent positions                     0.0047
--------------------------------------------------------------------------------
  Total CPU time                                                 32.4701
--------------------------------------------------------------------------------


  Dump file written as Li3OCl.grs


  Job Finished at 12:30.43  1st December   2020                               

