********************************************************************************
*                       GENERAL UTILITY LATTICE PROGRAM                        *
*                                 Julian Gale                                  *
*                       Curtin Institute for Computation                       *
*                    School of Molecular and Life Sciences                     *
*                    Curtin University, Western Australia                      *
********************************************************************************
* Version = 5.2.0 * Last modified =  10th September 2020                       *
********************************************************************************
*  optimise     - perform optimisation run                                     *
*  conp         - constant pressure calculation                                *
*  property     - calculate properties for final geometry                      *
*  defect       - perform defect calculation after bulk run                    *
*  compare      - compare initial and final structures                         *
********************************************************************************

  Job Started  at 12:30.43  1st December   2020                               

  Number of CPUs =     1


  Total number of configurations input =      1

********************************************************************************
*  Input for Configuration =   1                                               *
********************************************************************************

  Formula = ClOLi3                                                      

  Number of irreducible atoms/shells =       5


  Total number atoms/shells =       7

  Dimensionality = 3               :  Bulk   


  Symmetry :

  Crystal family                   :  Cubic       
  Crystal class  (Groth - 1921)    :  Cubic Hexakisoctahedral              

  Space group (centrosymmetric)    :  P M 3 M         

  Patterson group                  :  P m -3 m 

  Cartesian lattice vectors (Angstroms) :

        3.918873    0.000000    0.000000
        0.000000    3.918873    0.000000
        0.000000    0.000000    3.918873

  Cell parameters (Angstroms/Degrees):

  a =       3.9189    alpha =  90.0000
  b =       3.9189    beta  =  90.0000
  c =       3.9189    gamma =  90.0000

  Initial cell volume =          60.184349 Angs**3

  Temperature of configuration =   0.00     K 

  Pressure of configuration =         0.000 GPa 

  Fractional coordinates of asymmetric unit :

--------------------------------------------------------------------------------
   No.  Atomic       x           y          z         Charge      Occupancy
        Label      (Frac)      (Frac)     (Frac)        (e)         (Frac)  
--------------------------------------------------------------------------------
      1 Cl    c    0.000000    0.000000    0.000000     1.48500    1.000000    
      2 O     c    0.500000    0.500000    0.500000     0.18300    1.000000    
      3 Li    c    0.500000    0.500000    0.000000     1.00000    1.000000    
      4 Cl    s    0.000000    0.000000    0.000000    -2.48500    1.000000    
      5 O     s    0.500000    0.500000    0.500000    -2.18300    1.000000    
--------------------------------------------------------------------------------


  Constraints : 

--------------------------------------------------------------------------------
  Constraint no.      Unconstrained     Constrained    Coefficient    Offset
                         Variable         Variable
--------------------------------------------------------------------------------
           1              Strain 1        Strain 2       1.00000      0.0000
           2              Strain 1        Strain 3       1.00000      0.0000
--------------------------------------------------------------------------------


********************************************************************************
*  General input information                                                   *
********************************************************************************

  Species output for all configurations : 

--------------------------------------------------------------------------------
  Species    Type    Atomic    Atomic    Charge       Radii (Angs)     Library
                     Number     Mass       (e)     Cova   Ionic  VDW   Symbol
--------------------------------------------------------------------------------
    Li       Core        3       6.94   1.000000   0.680  0.000  1.800          
    O        Core        8      16.00   0.183000   0.730  0.000  1.360          
    O        Shell       8       0.00  -2.183000   0.730  0.000  1.360          
    Cl       Core       17      35.45   1.485000   0.990  0.000  1.650          
    Cl       Shell      17       0.00  -2.485000   0.990  0.000  1.650          
    Mg       Core       12      24.31   0.415000   1.100  0.000  0.000          
    Mg       Shell      12       0.00   1.585000   1.100  0.000  0.000          
    Ca       Core       20      40.08  -1.135000   0.990  0.000  0.000          
    Ca       Shell      20       0.00   3.135000   0.990  0.000  0.000          
    Sr       Core       38      87.62  -1.251000   1.120  0.000  0.000          
    Sr       Shell      38       0.00   3.251000   1.120  0.000  0.000          
    Ba       Core       56     137.33  -7.203000   1.340  0.000  0.000          
    Ba       Shell      56       0.00   9.203000   1.340  0.000  0.000          
--------------------------------------------------------------------------------


  Lattice summation method               =    Ewald          (3-D)
                                         =    Parry          (2-D)
                                         =    Saunders et al (1-D)
  Accuracy factor for lattice sums       =   12.000


  Analytic derivatives to be used

  Time limit = Infinity

  Maximum range for interatomic potentials =    100000.000000 Angstroms

  General interatomic potentials :

--------------------------------------------------------------------------------
Atom  Types   Potential      Parameter       Value         Units   Cutoffs(Ang)
  1     2                                                            Min /  Max 
--------------------------------------------------------------------------------
O    c O    s Spring (c-s)  Spring k 2       593.71600    eV*Ang^-2 0.000  0.800
                            Spring k 4       0.0000000    eV*Ang^-4 
--------------------------------------------------------------------------------
Cl   c Cl   s Spring (c-s)  Spring k 2       29.380000    eV*Ang^-2 0.000  0.800
                            Spring k 4       0.0000000    eV*Ang^-4 
--------------------------------------------------------------------------------
Mg   c Mg   s Spring (c-s)  Spring k 2       361.60000    eV*Ang^-2 0.000  0.800
                            Spring k 4       0.0000000    eV*Ang^-4 
--------------------------------------------------------------------------------
Ca   c Ca   s Spring (c-s)  Spring k 2       110.20000    eV*Ang^-2 0.000  0.800
                            Spring k 4       0.0000000    eV*Ang^-4 
--------------------------------------------------------------------------------
Sr   c Sr   s Spring (c-s)  Spring k 2       71.700000    eV*Ang^-2 0.000  0.800
                            Spring k 4       0.0000000    eV*Ang^-4 
--------------------------------------------------------------------------------
Ba   c Ba   s Spring (c-s)  Spring k 2       495.20000    eV*Ang^-2 0.000  0.800
                            Spring k 4       0.0000000    eV*Ang^-4 
--------------------------------------------------------------------------------
Li   c Li   c Buckingham    Buckingham A     360.53000    eV        0.000 12.000
                            Buckingham rho  0.16100000    Ang       
                            Buckingham C     0.0000000    eV*Ang^6  
--------------------------------------------------------------------------------
Li   c O    s Buckingham    Buckingham A     292.30000    eV        0.000 12.000
                            Buckingham rho  0.34700000    Ang       
                            Buckingham C     0.0000000    eV*Ang^6  
--------------------------------------------------------------------------------
Li   c Cl   s Buckingham    Buckingham A     421.04000    eV        0.000 12.000
                            Buckingham rho  0.33400000    Ang       
                            Buckingham C     0.0000000    eV*Ang^6  
--------------------------------------------------------------------------------
O    s O    s Buckingham    Buckingham A     22764.300    eV        0.000 12.000
                            Buckingham rho  0.14900000    Ang       
                            Buckingham C     13.190000    eV*Ang^6  
--------------------------------------------------------------------------------
O    s Cl   s Buckingham    Buckingham A     8286.9100    eV        0.000 12.000
                            Buckingham rho  0.25900000    Ang       
                            Buckingham C     62.200000    eV*Ang^6  
--------------------------------------------------------------------------------
Cl   s Cl   s Buckingham    Buckingham A     1227.2000    eV        0.000 12.000
                            Buckingham rho  0.32100000    Ang       
                            Buckingham C     14.530000    eV*Ang^6  
--------------------------------------------------------------------------------
O    s Mg   s Buckingham    Buckingham A     1428.5000    eV        0.000 12.000
                            Buckingham rho  0.29450000    Ang       
                            Buckingham C     0.0000000    eV*Ang^6  
--------------------------------------------------------------------------------
Mg   s Cl   s Buckingham    Buckingham A     4914.5400    eV        0.000 12.000
                            Buckingham rho  0.25700000    Ang       
                            Buckingham C     0.0000000    eV*Ang^6  
--------------------------------------------------------------------------------
O    s Ca   s Buckingham    Buckingham A     1090.4000    eV        0.000 12.000
                            Buckingham rho  0.34370000    Ang       
                            Buckingham C     0.0000000    eV*Ang^6  
--------------------------------------------------------------------------------
Cl   s Ca   s Buckingham    Buckingham A     2302.0000    eV        0.000 12.000
                            Buckingham rho  0.34020000    Ang       
                            Buckingham C     0.0000000    eV*Ang^6  
--------------------------------------------------------------------------------
O    s Sr   s Buckingham    Buckingham A     959.10000    eV        0.000 12.000
                            Buckingham rho  0.37210000    Ang       
                            Buckingham C     0.0000000    eV*Ang^6  
--------------------------------------------------------------------------------
Cl   s Sr   s Buckingham    Buckingham A     2191.0900    eV        0.000 12.000
                            Buckingham rho  0.34570000    Ang       
                            Buckingham C     0.0000000    eV*Ang^6  
--------------------------------------------------------------------------------
O    s Ba   s Buckingham    Buckingham A     905.70000    eV        0.000 12.000
                            Buckingham rho  0.39760000    Ang       
                            Buckingham C     0.0000000    eV*Ang^6  
--------------------------------------------------------------------------------
Cl   s Ba   s Buckingham    Buckingham A     2704.5500    eV        0.000 12.000
                            Buckingham rho  0.35280000    Ang       
                            Buckingham C     0.0000000    eV*Ang^6  
--------------------------------------------------------------------------------

********************************************************************************
*  Output for configuration   1                                                *
********************************************************************************


  Components of energy : 

--------------------------------------------------------------------------------
  Interatomic potentials     =           7.24802695 eV    
  Monopole - monopole (real) =         -11.53475722 eV    
  Monopole - monopole (recip)=         -33.94580548 eV    
  Monopole - monopole (total)=         -45.48056271 eV    
--------------------------------------------------------------------------------
  Total lattice energy       =         -38.23253575 eV    
--------------------------------------------------------------------------------
  Total lattice energy       =           -3688.8553 kJ/(mole unit cells)
--------------------------------------------------------------------------------


  Number of variables =        1

  Maximum number of calculations  =          1000
  Maximum Hessian update interval =            10
  Maximum step size               =   1.000000000
  Maximum parameter tolerance     =   0.000010000
  Maximum function  tolerance     =   0.000010000
  Maximum gradient  tolerance     =   0.001000000
  Maximum gradient  component     =   0.010000000

  Symmetry constrained optimisation

  Symmetry used for second derivatives

  Cell parameters to be optimised using strains

  Newton-Raphson optimiser to be used

  BFGS hessian update to be used

  Lower half triangular hessian to be used

  Start of bulk optimisation :

  Cycle:      0 Energy:       -38.232536  Gnorm:      0.000019  CPU:    0.024


  **** Optimisation achieved ****


  Final energy =     -38.23253575 eV
  Final Gnorm  =       0.00001878

  Components of energy : 

--------------------------------------------------------------------------------
  Interatomic potentials     =           7.24802695 eV    
  Monopole - monopole (real) =         -11.53475722 eV    
  Monopole - monopole (recip)=         -33.94580548 eV    
  Monopole - monopole (total)=         -45.48056271 eV    
--------------------------------------------------------------------------------
  Total lattice energy       =         -38.23253575 eV    
--------------------------------------------------------------------------------
  Total lattice energy       =           -3688.8553 kJ/(mole unit cells)
--------------------------------------------------------------------------------

  Final asymmetric unit coordinates :

--------------------------------------------------------------------------------
   No.  Atomic        x           y           z         Radius
        Label       (Frac)      (Frac)      (Frac)       (Angs) 
--------------------------------------------------------------------------------
     1  Cl    c     0.000000    0.000000    0.000000    0.000000
     2  O     c     0.500000    0.500000    0.500000    0.000000
     3  Li    c     0.500000    0.500000    0.000000    0.000000
     4  Cl    s     0.000000    0.000000    0.000000    0.000000
     5  O     s     0.500000    0.500000    0.500000    0.000000
--------------------------------------------------------------------------------

  Final Cartesian lattice vectors (Angstroms) :

        3.918873    0.000000    0.000000
        0.000000    3.918873    0.000000
        0.000000    0.000000    3.918873


  Final cell parameters and derivatives :

--------------------------------------------------------------------------------
       a            3.918873 Angstrom     dE/de1(xx)    -0.000019 eV/strain
       b            3.918873 Angstrom     dE/de2(yy)     0.000000 eV/strain
       c            3.918873 Angstrom     dE/de3(zz)     0.000000 eV/strain
       alpha       90.000000 Degrees      dE/de4(yz)     0.000000 eV/strain
       beta        90.000000 Degrees      dE/de5(xz)     0.000000 eV/strain
       gamma       90.000000 Degrees      dE/de6(xy)     0.000000 eV/strain
--------------------------------------------------------------------------------

  Primitive cell volume =            60.184349 Angs**3

  Density of cell =      1.994024 g/cm**3

  Non-primitive cell volume =            60.184349 Angs**3


  Final internal derivatives :

--------------------------------------------------------------------------------
   No.  Atomic          a             b             c           Radius
        Label          (eV)          (eV)          (eV)        (eV/Angs)
--------------------------------------------------------------------------------
      1 Cl    c       0.000000      0.000000      0.000000      0.000000
      2 O     c       0.000000      0.000000      0.000000      0.000000
      3 Li    c       0.000000      0.000000      0.000000      0.000000
      4 Cl    s       0.000000      0.000000      0.000000      0.000000
      5 O     s       0.000000      0.000000      0.000000      0.000000
--------------------------------------------------------------------------------
  Maximum abs         0.000000      0.000000      0.000000      0.000000
--------------------------------------------------------------------------------

  Comparison of initial and final structures : 

--------------------------------------------------------------------------------
  Parameter   Initial value   Final value   Difference    Units      Percent
--------------------------------------------------------------------------------
    Volume        60.184349     60.184349     0.000000    Angs**3      0.00
    a              3.918873      3.918873     0.000000    Angstroms    0.00
    b              3.918873      3.918873     0.000000    Angstroms    0.00
    c              3.918873      3.918873     0.000000    Angstroms    0.00
    alpha         90.000000     90.000000     0.000000    Degrees      0.00
    beta          90.000000     90.000000     0.000000    Degrees      0.00
    gamma         90.000000     90.000000     0.000000    Degrees      0.00
      1 x          0.000000      0.000000     0.000000    Fractional   0.00
      1 y          0.000000      0.000000     0.000000    Fractional   0.00
      1 z          0.000000      0.000000     0.000000    Fractional   0.00
      2 x          0.500000      0.500000     0.000000    Fractional   0.00
      2 y          0.500000      0.500000     0.000000    Fractional   0.00
      2 z          0.500000      0.500000     0.000000    Fractional   0.00
      3 x          0.500000      0.500000     0.000000    Fractional   0.00
      3 y          0.500000      0.500000     0.000000    Fractional   0.00
      3 z          0.000000      0.000000     0.000000    Fractional   0.00
      4 x          0.000000      0.000000     0.000000    Fractional   0.00
      4 y          0.000000      0.000000     0.000000    Fractional   0.00
      4 z          0.000000      0.000000     0.000000    Fractional   0.00
      5 x          0.500000      0.500000     0.000000    Fractional   0.00
      5 y          0.500000      0.500000     0.000000    Fractional   0.00
      5 z          0.500000      0.500000     0.000000    Fractional   0.00
--------------------------------------------------------------------------------


  Born effective charge tensors : 

-------------------------------------------------------------------------------
  Atom             x           y             z
-------------------------------------------------------------------------------
    1 Cl    x      -0.9481      0.0000      0.0000
            y       0.0000     -0.9481      0.0000
            z       0.0000      0.0000     -0.9481
-------------------------------------------------------------------------------
    2 O     x      -2.4696     -0.0000     -0.0000
            y      -0.0000     -2.4696     -0.0000
            z      -0.0000     -0.0000     -2.4696
-------------------------------------------------------------------------------
    3 Li    x       1.3129     -0.0000     -0.0000
            y      -0.0000      1.3129      0.0000
            z      -0.0000     -0.0000      0.7918
-------------------------------------------------------------------------------




  Elastic Constant Matrix: (Units=GPa)

-------------------------------------------------------------------------------
  Indices      1         2         3         4         5         6    
-------------------------------------------------------------------------------
       1     94.4615   45.0779   45.0779    0.0000   -0.0000    0.0000
       2     45.0779   94.4615   45.0779   -0.0000    0.0000   -0.0000
       3     45.0779   45.0779   94.4615   -0.0000   -0.0000   -0.0000
       4      0.0000   -0.0000   -0.0000   45.0779   -0.0000   -0.0000
       5     -0.0000    0.0000   -0.0000   -0.0000   45.0779   -0.0000
       6      0.0000   -0.0000   -0.0000   -0.0000   -0.0000   45.0779
-------------------------------------------------------------------------------


  Elastic Compliance Matrix: (Units=1/GPa)

-------------------------------------------------------------------------------
  Indices      1         2         3         4         5         6    
-------------------------------------------------------------------------------
       1    0.015305 -0.004944 -0.004944 -0.000000  0.000000 -0.000000
       2   -0.004944  0.015305 -0.004944  0.000000 -0.000000  0.000000
       3   -0.004944 -0.004944  0.015305  0.000000  0.000000  0.000000
       4   -0.000000  0.000000  0.000000  0.022184  0.000000  0.000000
       5    0.000000 -0.000000  0.000000  0.000000  0.022184  0.000000
       6   -0.000000  0.000000  0.000000  0.000000  0.000000  0.022184
-------------------------------------------------------------------------------

  Mechanical properties :

-------------------------------------------------------------------------------
  Convention :                    Reuss         Voigt         Hill
-------------------------------------------------------------------------------
  Bulk  Modulus (GPa)     =      61.53912      61.53912      61.53912
  Shear Modulus (GPa)     =      33.88682      36.92346      35.40514
-------------------------------------------------------------------------------
  Velocity S-wave (km/s)  =       4.12240       4.30314       4.21374
  Velocity P-wave (km/s)  =       7.31578       7.45327       7.38484
-------------------------------------------------------------------------------
  Compressibility (1/GPa) =    0.01624983
-------------------------------------------------------------------------------
  Stress axis :                     x             y             z
-------------------------------------------------------------------------------
  Youngs Moduli (GPa)     =      65.33688      65.33688      65.33688
-------------------------------------------------------------------------------
  Poissons Ratio (x)      =                     0.32305       0.32305
  Poissons Ratio (y)      =       0.32305                     0.32305
  Poissons Ratio (z)      =       0.32305       0.32305
-------------------------------------------------------------------------------


  Piezoelectric Strain Matrix: (Units=C/m**2)

-------------------------------------------------------------------------------
  Indices      1         2         3         4         5         6    
-------------------------------------------------------------------------------
       x    -0.00000   0.00000   0.00000   0.00000   0.00000   0.00000
       y    -0.00000  -0.00000  -0.00000   0.00000   0.00000  -0.00000
       z    -0.00000  -0.00000   0.00000   0.00000  -0.00000   0.00000
-------------------------------------------------------------------------------


  Piezoelectric Stress Matrix: (Units=10**-11 C/N)

-------------------------------------------------------------------------------
  Indices      1         2         3         4         5         6    
-------------------------------------------------------------------------------
       x    -0.00000   0.00000   0.00000   0.00000   0.00000   0.00000
       y     0.00000   0.00000  -0.00000   0.00000   0.00000  -0.00000
       z    -0.00000  -0.00000   0.00000   0.00000  -0.00000   0.00000
-------------------------------------------------------------------------------


  Static dielectric constant tensor : 

-------------------------------------------------------------------------------
              x         y         z
-------------------------------------------------------------------------------
       x    12.07041   0.00000   0.00000
       y     0.00000  12.07041   0.00000
       z     0.00000   0.00000  12.07041
--------------------------------------------------------------------------------

  High frequency dielectric constant tensor : 

-------------------------------------------------------------------------------
              x         y         z
-------------------------------------------------------------------------------
       x     1.74197  -0.00000  -0.00000
       y    -0.00000   1.74197  -0.00000
       z    -0.00000  -0.00000   1.74197
-------------------------------------------------------------------------------

  Static refractive indices : 

-------------------------------------------------------------------------------
    1 =    3.47425      2 =    3.47425      3 =    3.47425
-------------------------------------------------------------------------------

  High frequency refractive indices : 

-------------------------------------------------------------------------------
    1 =    1.31984      2 =    1.31984      3 =    1.31984
-------------------------------------------------------------------------------


  Time to end of optimisation =       0.0325 seconds

********************************************************************************
*  Defect calculation for configuration   1 :                                  *
********************************************************************************

  Total number of defects =      2

  Total charge on defect  =   0.00

  Defect centre is at   0.5000   0.2500   0.2500  Frac

  Region 1 radius =  16.0000      Number of ions =   2014

  Number of symmetry inequivalent region 1 ions  =   1111

  Region 2 radius =  20.0000      Number of ions =   1886

  Number of symmetry inequivalent region 2a ions =   1005

  Region 2a mode = 4 : screened electrostatics due to region 1 
                       neglect correction to region 1 forces from 2a
                       region 2a displacements based on defects only

  Region 2a ions will only interact with defects in region 1

  Vacancies:

--------------------------------------------------------------------------------
    Specification type     Symbol/Number         x          y          z
--------------------------------------------------------------------------------
    Fractional                               0.500000   0.000000   0.500000
--------------------------------------------------------------------------------

  Impurities:

--------------------------------------------------------------------------------
    Specification type     Symbol/Number         x          y          z
--------------------------------------------------------------------------------
    Frac/Symbol             Sr               0.500000   0.500000   0.000000
--------------------------------------------------------------------------------


  Symmetry reduced region 1 (Relative to defect centre) :

--------------------------------------------------------------------------------
   No.   Atomic       x            y             z       Radius  Multiplicity   
         Label      (Angs)       (Angs)        (Angs)    (Angs)     
--------------------------------------------------------------------------------
     1  Sr    c      0.0000       0.9797      -0.9797    0.0000     1    Defect
     2  O     c      0.0000       0.9797 *     0.9797 *  0.0000     1          
     3  Cl    c      1.9594 *    -0.9797 *    -0.9797 *  0.0000     2          
     4  Li    c      1.9594 *     0.9797 *     0.9797 *  0.0000     2          
     5  O     c      0.0000       0.9797 *    -2.9392 *  0.0000     1          
     6  O     c      0.0000      -2.9392 *     0.9797 *  0.0000     1          
     7  Li    c      0.0000       0.9797 *     2.9392 *  0.0000     1          
     8  Li    c      0.0000      -2.9392 *    -0.9797 *  0.0000     1          
     9  Li    c      0.0000      -0.9797 *    -2.9392 *  0.0000     1          
    10  Li    c      0.0000       2.9392 *     0.9797 *  0.0000     1          
    11  Cl    c      1.9594 *    -0.9797 *     2.9392 *  0.0000     2          
    12  Cl    c      1.9594 *     2.9392 *    -0.9797 *  0.0000     2          
    13  Li    c      1.9594 *     0.9797 *    -2.9392 *  0.0000     2          
    14  Li    c      1.9594 *    -2.9392 *     0.9797 *  0.0000     2          
    15  O     c      0.0000      -2.9392 *    -2.9392 *  0.0000     1          
    16  O     c      3.9189 *     0.9797 *     0.9797 *  0.0000     2          
    17  Li    c      0.0000      -2.9392 *     2.9392 *  0.0000     1          
    18  Li    c      3.9189 *     0.9797 *    -0.9797 *  0.0000     2          
    19  Li    c      0.0000       2.9392 *    -2.9392 *  0.0000     1          
    20  Li    c      3.9189 *    -0.9797 *     0.9797 *  0.0000     2          
    21  Cl    c      1.9594 *     2.9392 *     2.9392 *  0.0000     2          
    22  Li    c      1.9594 *    -2.9392 *    -2.9392 *  0.0000     2          
    23  O     c      0.0000       0.9797 *     4.8986 *  0.0000     1          
    24  O     c      0.0000       4.8986 *     0.9797 *  0.0000     1          
    25  O     c      3.9189 *     0.9797 *    -2.9392 *  0.0000     2          
    26  Li    c      0.0000       0.9797 *    -4.8986 *  0.0000     1          
    27  Li    c      0.0000       4.8986 *    -0.9797 *  0.0000     1          
    28  Li    c      3.9189 *     0.9797 *     2.9392 *  0.0000     2          
    29  Li    c      0.0000      -0.9797 *     4.8986 *  0.0000     1          
    30  Li    c      0.0000      -4.8986 *     0.9797 *  0.0000     1          
    31  Li    c      3.9189 *    -0.9797 *    -2.9392 *  0.0000     2          
    32  O     c      3.9189 *    -2.9392 *     0.9797 *  0.0000     2          
    33  Li    c      3.9189 *    -2.9392 *    -0.9797 *  0.0000     2          
    34  Li    c      3.9189 *     2.9392 *     0.9797 *  0.0000     2          
    35  Cl    c      1.9594 *    -0.9797 *    -4.8986 *  0.0000     2          
    36  Li    c      1.9594 *     0.9797 *     4.8986 *  0.0000     2          
    37  Cl    c      1.9594 *    -4.8986 *    -0.9797 *  0.0000     2          
    38  Li    c      1.9594 *     4.8986 *     0.9797 *  0.0000     2          
    39  O     c      0.0000       4.8986 *    -2.9392 *  0.0000     1          
    40  O     c      0.0000      -2.9392 *     4.8986 *  0.0000     1          
    41  O     c      3.9189 *    -2.9392 *    -2.9392 *  0.0000     2          
    42  Li    c      0.0000       4.8986 *     2.9392 *  0.0000     1          
    43  Li    c      0.0000      -2.9392 *    -4.8986 *  0.0000     1          
    44  Li    c      3.9189 *    -2.9392 *     2.9392 *  0.0000     2          
    45  Li    c      0.0000       2.9392 *     4.8986 *  0.0000     1          
    46  Li    c      0.0000      -4.8986 *    -2.9392 *  0.0000     1          
    47  Li    c      3.9189 *     2.9392 *    -2.9392 *  0.0000     2          
    48  Cl    c      1.9594 *     2.9392 *    -4.8986 *  0.0000     2          
    49  Cl    c      1.9594 *    -4.8986 *     2.9392 *  0.0000     2          
    50  Cl    c      5.8783 *    -0.9797 *    -0.9797 *  0.0000     2          
    51  Li    c      1.9594 *     4.8986 *    -2.9392 *  0.0000     2          
    52  Li    c      1.9594 *    -2.9392 *     4.8986 *  0.0000     2          
    53  Li    c      5.8783 *     0.9797 *     0.9797 *  0.0000     2          
    54  O     c      3.9189 *     0.9797 *     4.8986 *  0.0000     2          
    55  O     c      3.9189 *     4.8986 *     0.9797 *  0.0000     2          
    56  Li    c      3.9189 *     0.9797 *    -4.8986 *  0.0000     2          
    57  Li    c      3.9189 *     4.8986 *    -0.9797 *  0.0000     2          
    58  Li    c      3.9189 *    -0.9797 *     4.8986 *  0.0000     2          
    59  Li    c      3.9189 *    -4.8986 *     0.9797 *  0.0000     2          
    60  Cl    c      5.8783 *    -0.9797 *     2.9392 *  0.0000     2          
    61  Cl    c      5.8783 *     2.9392 *    -0.9797 *  0.0000     2          
    62  Li    c      5.8783 *     0.9797 *    -2.9392 *  0.0000     2          
    63  Li    c      5.8783 *    -2.9392 *     0.9797 *  0.0000     2          
    64  O     c      0.0000       4.8986 *     4.8986 *  0.0000     1          
    65  O     c      3.9189 *     4.8986 *    -2.9392 *  0.0000     2          
    66  Li    c      0.0000       4.8986 *    -4.8986 *  0.0000     1          
    67  Li    c      3.9189 *     4.8986 *     2.9392 *  0.0000     2          
    68  Li    c      0.0000      -4.8986 *     4.8986 *  0.0000     1          
    69  Li    c      3.9189 *    -4.8986 *    -2.9392 *  0.0000     2          
    70  O     c      0.0000       0.9797 *    -6.8580 *  0.0000     1          
    71  O     c      0.0000      -6.8580 *     0.9797 *  0.0000     1          
    72  O     c      3.9189 *    -2.9392 *     4.8986 *  0.0000     2          
    73  Li    c      0.0000       0.9797 *     6.8580 *  0.0000     1          
    74  Li    c      0.0000      -6.8580 *    -0.9797 *  0.0000     1          
    75  Li    c      3.9189 *    -2.9392 *    -4.8986 *  0.0000     2          
    76  Li    c      0.0000      -0.9797 *    -6.8580 *  0.0000     1          
    77  Li    c      0.0000       6.8580 *     0.9797 *  0.0000     1          
    78  Li    c      3.9189 *     2.9392 *     4.8986 *  0.0000     2          
    79  Cl    c      1.9594 *    -4.8986 *    -4.8986 *  0.0000     2          
    80  Li    c      1.9594 *     4.8986 *     4.8986 *  0.0000     2          
    81  Cl    c      1.9594 *     6.8580 *    -0.9797 *  0.0000     2          
    82  Cl    c      5.8783 *     2.9392 *     2.9392 *  0.0000     2          
    83  Li    c      1.9594 *    -6.8580 *     0.9797 *  0.0000     2          
    84  Li    c      5.8783 *    -2.9392 *    -2.9392 *  0.0000     2          
    85  Cl    c      1.9594 *    -0.9797 *     6.8580 *  0.0000     2          
    86  Li    c      1.9594 *     0.9797 *    -6.8580 *  0.0000     2          
    87  O     c      0.0000      -2.9392 *    -6.8580 *  0.0000     1          
    88  O     c      0.0000      -6.8580 *    -2.9392 *  0.0000     1          
    89  Li    c      0.0000      -2.9392 *     6.8580 *  0.0000     1          
    90  Li    c      0.0000      -6.8580 *     2.9392 *  0.0000     1          
    91  Li    c      0.0000       2.9392 *    -6.8580 *  0.0000     1          
    92  Li    c      0.0000       6.8580 *    -2.9392 *  0.0000     1          
    93  Cl    c      5.8783 *    -4.8986 *    -0.9797 *  0.0000     2          
    94  Li    c      5.8783 *     4.8986 *     0.9797 *  0.0000     2          
    95  Cl    c      1.9594 *     6.8580 *     2.9392 *  0.0000     2          
    96  Cl    c      5.8783 *    -0.9797 *    -4.8986 *  0.0000     2          
    97  Li    c      1.9594 *    -6.8580 *    -2.9392 *  0.0000     2          
    98  Li    c      5.8783 *     0.9797 *     4.8986 *  0.0000     2          
    99  Cl    c      1.9594 *     2.9392 *     6.8580 *  0.0000     2          
   100  Li    c      1.9594 *    -2.9392 *    -6.8580 *  0.0000     2          
   101  O     c      7.8377 *     0.9797 *     0.9797 *  0.0000     2          
   102  Li    c      7.8377 *     0.9797 *    -0.9797 *  0.0000     2          
   103  Li    c      7.8377 *    -0.9797 *     0.9797 *  0.0000     2          
   104  O     c      3.9189 *     4.8986 *     4.8986 *  0.0000     2          
   105  Li    c      3.9189 *     4.8986 *    -4.8986 *  0.0000     2          
   106  Li    c      3.9189 *    -4.8986 *     4.8986 *  0.0000     2          
   107  O     c      3.9189 *     0.9797 *    -6.8580 *  0.0000     2          
   108  O     c      3.9189 *    -6.8580 *     0.9797 *  0.0000     2          
   109  Li    c      3.9189 *     0.9797 *     6.8580 *  0.0000     2          
   110  Li    c      3.9189 *    -6.8580 *    -0.9797 *  0.0000     2          
   111  Li    c      3.9189 *    -0.9797 *    -6.8580 *  0.0000     2          
   112  Li    c      3.9189 *     6.8580 *     0.9797 *  0.0000     2          
   113  Cl    c      5.8783 *     2.9392 *    -4.8986 *  0.0000     2          
   114  Cl    c      5.8783 *    -4.8986 *     2.9392 *  0.0000     2          
   115  Li    c      5.8783 *     4.8986 *    -2.9392 *  0.0000     2          
   116  Li    c      5.8783 *    -2.9392 *     4.8986 *  0.0000     2          
   117  O     c      7.8377 *     0.9797 *    -2.9392 *  0.0000     2          
   118  Li    c      7.8377 *     0.9797 *     2.9392 *  0.0000     2          
   119  Li    c      7.8377 *    -0.9797 *    -2.9392 *  0.0000     2          
   120  O     c      0.0000       4.8986 *    -6.8580 *  0.0000     1          
   121  O     c      0.0000      -6.8580 *     4.8986 *  0.0000     1          
   122  O     c      3.9189 *    -2.9392 *    -6.8580 *  0.0000     2          
   123  O     c      7.8377 *    -2.9392 *     0.9797 *  0.0000     2          
   124  Li    c      0.0000       4.8986 *     6.8580 *  0.0000     1          
   125  Li    c      0.0000      -6.8580 *    -4.8986 *  0.0000     1          
   126  Li    c      3.9189 *    -2.9392 *     6.8580 *  0.0000     2          
   127  Li    c      7.8377 *    -2.9392 *    -0.9797 *  0.0000     2          
   128  Li    c      0.0000       6.8580 *     4.8986 *  0.0000     1          
   129  Li    c      0.0000      -4.8986 *    -6.8580 *  0.0000     1          
   130  Li    c      3.9189 *     2.9392 *    -6.8580 *  0.0000     2          
   131  Li    c      7.8377 *     2.9392 *     0.9797 *  0.0000     2          
   132  O     c      3.9189 *    -6.8580 *    -2.9392 *  0.0000     2          
   133  Li    c      3.9189 *    -6.8580 *     2.9392 *  0.0000     2          
   134  Li    c      3.9189 *     6.8580 *    -2.9392 *  0.0000     2          
   135  Cl    c      1.9594 *     6.8580 *    -4.8986 *  0.0000     2          
   136  Cl    c      1.9594 *    -4.8986 *     6.8580 *  0.0000     2          
   137  Li    c      1.9594 *     4.8986 *    -6.8580 *  0.0000     2          
   138  Li    c      1.9594 *    -6.8580 *     4.8986 *  0.0000     2          
   139  O     c      0.0000       0.9797 *     8.8175 *  0.0000     1          
   140  O     c      0.0000       8.8175 *     0.9797 *  0.0000     1          
   141  O     c      7.8377 *    -2.9392 *    -2.9392 *  0.0000     2          
   142  Li    c      0.0000       0.9797 *    -8.8175 *  0.0000     1          
   143  Li    c      0.0000       8.8175 *    -0.9797 *  0.0000     1          
   144  Li    c      7.8377 *    -2.9392 *     2.9392 *  0.0000     2          
   145  Li    c      0.0000      -0.9797 *     8.8175 *  0.0000     1          
   146  Li    c      0.0000      -8.8175 *     0.9797 *  0.0000     1          
   147  Li    c      7.8377 *     2.9392 *    -2.9392 *  0.0000     2          
   148  Cl    c      1.9594 *    -0.9797 *    -8.8175 *  0.0000     2          
   149  Li    c      1.9594 *     0.9797 *     8.8175 *  0.0000     2          
   150  Cl    c      1.9594 *    -8.8175 *    -0.9797 *  0.0000     2          
   151  Cl    c      5.8783 *    -0.9797 *     6.8580 *  0.0000     2          
   152  Cl    c      5.8783 *    -4.8986 *    -4.8986 *  0.0000     2          
   153  Li    c      1.9594 *     8.8175 *     0.9797 *  0.0000     2          
   154  Li    c      5.8783 *     0.9797 *    -6.8580 *  0.0000     2          
   155  Li    c      5.8783 *     4.8986 *     4.8986 *  0.0000     2          
   156  Cl    c      5.8783 *     6.8580 *    -0.9797 *  0.0000     2          
   157  Li    c      5.8783 *    -6.8580 *     0.9797 *  0.0000     2          
   158  O     c      0.0000       8.8175 *    -2.9392 *  0.0000     1          
   159  O     c      0.0000      -2.9392 *     8.8175 *  0.0000     1          
   160  O     c      7.8377 *     0.9797 *     4.8986 *  0.0000     2          
   161  O     c      7.8377 *     4.8986 *     0.9797 *  0.0000     2          
   162  Li    c      0.0000       8.8175 *     2.9392 *  0.0000     1          
   163  Li    c      0.0000      -2.9392 *    -8.8175 *  0.0000     1          
   164  Li    c      7.8377 *     0.9797 *    -4.8986 *  0.0000     2          
   165  Li    c      7.8377 *     4.8986 *    -0.9797 *  0.0000     2          
   166  Li    c      0.0000       2.9392 *     8.8175 *  0.0000     1          
   167  Li    c      0.0000      -8.8175 *    -2.9392 *  0.0000     1          
   168  Li    c      7.8377 *    -0.9797 *     4.8986 *  0.0000     2          
   169  Li    c      7.8377 *    -4.8986 *     0.9797 *  0.0000     2          
   170  O     c      3.9189 *     4.8986 *    -6.8580 *  0.0000     2          
   171  O     c      3.9189 *    -6.8580 *     4.8986 *  0.0000     2          
   172  Li    c      3.9189 *     4.8986 *     6.8580 *  0.0000     2          
   173  Li    c      3.9189 *    -6.8580 *    -4.8986 *  0.0000     2          
   174  Li    c      3.9189 *     6.8580 *     4.8986 *  0.0000     2          
   175  Li    c      3.9189 *    -4.8986 *    -6.8580 *  0.0000     2          
   176  Cl    c      1.9594 *     2.9392 *    -8.8175 *  0.0000     2          
   177  Cl    c      1.9594 *    -8.8175 *     2.9392 *  0.0000     2          
   178  Li    c      1.9594 *     8.8175 *    -2.9392 *  0.0000     2          
   179  Li    c      1.9594 *    -2.9392 *     8.8175 *  0.0000     2          
   180  Cl    c      5.8783 *     2.9392 *     6.8580 *  0.0000     2          
   181  Cl    c      5.8783 *     6.8580 *     2.9392 *  0.0000     2          
   182  Li    c      5.8783 *    -2.9392 *    -6.8580 *  0.0000     2          
   183  Li    c      5.8783 *    -6.8580 *    -2.9392 *  0.0000     2          
   184  O     c      7.8377 *     4.8986 *    -2.9392 *  0.0000     2          
   185  Li    c      7.8377 *     4.8986 *     2.9392 *  0.0000     2          
   186  Li    c      7.8377 *    -4.8986 *    -2.9392 *  0.0000     2          
   187  O     c      3.9189 *     0.9797 *     8.8175 *  0.0000     2          
   188  O     c      3.9189 *     8.8175 *     0.9797 *  0.0000     2          
   189  O     c      7.8377 *    -2.9392 *     4.8986 *  0.0000     2          
   190  Li    c      3.9189 *     0.9797 *    -8.8175 *  0.0000     2          
   191  Li    c      3.9189 *     8.8175 *    -0.9797 *  0.0000     2          
   192  Li    c      7.8377 *    -2.9392 *    -4.8986 *  0.0000     2          
   193  Li    c      3.9189 *    -0.9797 *     8.8175 *  0.0000     2          
   194  Li    c      3.9189 *    -8.8175 *     0.9797 *  0.0000     2          
   195  Li    c      7.8377 *     2.9392 *     4.8986 *  0.0000     2          
   196  O     c      0.0000      -6.8580 *    -6.8580 *  0.0000     1          
   197  Li    c      0.0000      -6.8580 *     6.8580 *  0.0000     1          
   198  Li    c      0.0000       6.8580 *    -6.8580 *  0.0000     1          
   199  Cl    c      9.7972 *    -0.9797 *    -0.9797 *  0.0000     2          
   200  Li    c      9.7972 *     0.9797 *     0.9797 *  0.0000     2          
   201  Cl    c      1.9594 *     6.8580 *     6.8580 *  0.0000     2          
   202  Li    c      1.9594 *    -6.8580 *    -6.8580 *  0.0000     2          
   203  O     c      0.0000       4.8986 *     8.8175 *  0.0000     1          
   204  O     c      0.0000       8.8175 *     4.8986 *  0.0000     1          
   205  O     c      3.9189 *     8.8175 *    -2.9392 *  0.0000     2          
   206  O     c      3.9189 *    -2.9392 *     8.8175 *  0.0000     2          
   207  Li    c      0.0000       4.8986 *    -8.8175 *  0.0000     1          
   208  Li    c      0.0000       8.8175 *    -4.8986 *  0.0000     1          
   209  Li    c      3.9189 *     8.8175 *     2.9392 *  0.0000     2          
   210  Li    c      3.9189 *    -2.9392 *    -8.8175 *  0.0000     2          
   211  Li    c      0.0000      -4.8986 *     8.8175 *  0.0000     1          
   212  Li    c      0.0000      -8.8175 *     4.8986 *  0.0000     1          
   213  Li    c      3.9189 *     2.9392 *     8.8175 *  0.0000     2          
   214  Li    c      3.9189 *    -8.8175 *    -2.9392 *  0.0000     2          
   215  Cl    c      1.9594 *    -4.8986 *    -8.8175 *  0.0000     2          
   216  Cl    c      1.9594 *    -8.8175 *    -4.8986 *  0.0000     2          
   217  Cl    c      5.8783 *    -4.8986 *     6.8580 *  0.0000     2          
   218  Cl    c      9.7972 *    -0.9797 *     2.9392 *  0.0000     2          
   219  Cl    c      9.7972 *     2.9392 *    -0.9797 *  0.0000     2          
   220  Li    c      1.9594 *     4.8986 *     8.8175 *  0.0000     2          
   221  Li    c      1.9594 *     8.8175 *     4.8986 *  0.0000     2          
   222  Li    c      5.8783 *     4.8986 *    -6.8580 *  0.0000     2          
   223  Li    c      9.7972 *     0.9797 *    -2.9392 *  0.0000     2          
   224  Li    c      9.7972 *    -2.9392 *     0.9797 *  0.0000     2          
   225  Cl    c      5.8783 *     6.8580 *    -4.8986 *  0.0000     2          
   226  Li    c      5.8783 *    -6.8580 *     4.8986 *  0.0000     2          
   227  O     c      7.8377 *     0.9797 *    -6.8580 *  0.0000     2          
   228  O     c      7.8377 *     4.8986 *     4.8986 *  0.0000     2          
   229  Li    c      7.8377 *     0.9797 *     6.8580 *  0.0000     2          
   230  Li    c      7.8377 *     4.8986 *    -4.8986 *  0.0000     2          
   231  Li    c      7.8377 *    -0.9797 *    -6.8580 *  0.0000     2          
   232  Li    c      7.8377 *    -4.8986 *     4.8986 *  0.0000     2          
   233  O     c      7.8377 *    -6.8580 *     0.9797 *  0.0000     2          
   234  Li    c      7.8377 *    -6.8580 *    -0.9797 *  0.0000     2          
   235  Li    c      7.8377 *     6.8580 *     0.9797 *  0.0000     2          
   236  O     c      3.9189 *    -6.8580 *    -6.8580 *  0.0000     2          
   237  Li    c      3.9189 *    -6.8580 *     6.8580 *  0.0000     2          
   238  Li    c      3.9189 *     6.8580 *    -6.8580 *  0.0000     2          
   239  Cl    c      5.8783 *    -0.9797 *    -8.8175 *  0.0000     2          
   240  Cl    c      9.7972 *     2.9392 *     2.9392 *  0.0000     2          
   241  Li    c      5.8783 *     0.9797 *     8.8175 *  0.0000     2          
   242  Li    c      9.7972 *    -2.9392 *    -2.9392 *  0.0000     2          
   243  Cl    c      5.8783 *    -8.8175 *    -0.9797 *  0.0000     2          
   244  Li    c      5.8783 *     8.8175 *     0.9797 *  0.0000     2          
   245  O     c      3.9189 *     4.8986 *     8.8175 *  0.0000     2          
   246  O     c      3.9189 *     8.8175 *     4.8986 *  0.0000     2          
   247  O     c      7.8377 *    -2.9392 *    -6.8580 *  0.0000     2          
   248  O     c      7.8377 *    -6.8580 *    -2.9392 *  0.0000     2          
   249  Li    c      3.9189 *     4.8986 *    -8.8175 *  0.0000     2          
   250  Li    c      3.9189 *     8.8175 *    -4.8986 *  0.0000     2          
   251  Li    c      7.8377 *    -2.9392 *     6.8580 *  0.0000     2          
   252  Li    c      7.8377 *    -6.8580 *     2.9392 *  0.0000     2          
   253  Li    c      3.9189 *    -4.8986 *     8.8175 *  0.0000     2          
   254  Li    c      3.9189 *    -8.8175 *     4.8986 *  0.0000     2          
   255  Li    c      7.8377 *     2.9392 *    -6.8580 *  0.0000     2          
   256  Li    c      7.8377 *     6.8580 *    -2.9392 *  0.0000     2          
   257  O     c      0.0000       0.9797 *   -10.7769 *  0.0000     1          
   258  O     c      0.0000     -10.7769 *     0.9797 *  0.0000     1          
   259  Li    c      0.0000       0.9797 *    10.7769 *  0.0000     1          
   260  Li    c      0.0000     -10.7769 *    -0.9797 *  0.0000     1          
   261  Li    c      0.0000      -0.9797 *   -10.7769 *  0.0000     1          
   262  Li    c      0.0000      10.7769 *     0.9797 *  0.0000     1          
   263  Cl    c      5.8783 *     2.9392 *    -8.8175 *  0.0000     2          
   264  Li    c      5.8783 *    -2.9392 *     8.8175 *  0.0000     2          
   265  Cl    c      5.8783 *    -8.8175 *     2.9392 *  0.0000     2          
   266  Cl    c      9.7972 *    -0.9797 *    -4.8986 *  0.0000     2          
   267  Cl    c      9.7972 *    -4.8986 *    -0.9797 *  0.0000     2          
   268  Li    c      5.8783 *     8.8175 *    -2.9392 *  0.0000     2          
   269  Li    c      9.7972 *     0.9797 *     4.8986 *  0.0000     2          
   270  Li    c      9.7972 *     4.8986 *     0.9797 *  0.0000     2          
   271  Cl    c      1.9594 *    -0.9797 *    10.7769 *  0.0000     2          
   272  Li    c      1.9594 *     0.9797 *   -10.7769 *  0.0000     2          
   273  Cl    c      1.9594 *    10.7769 *    -0.9797 *  0.0000     2          
   274  Li    c      1.9594 *   -10.7769 *     0.9797 *  0.0000     2          
   275  O     c      0.0000       8.8175 *    -6.8580 *  0.0000     1          
   276  O     c      0.0000      -6.8580 *     8.8175 *  0.0000     1          
   277  Li    c      0.0000       8.8175 *     6.8580 *  0.0000     1          
   278  Li    c      0.0000      -6.8580 *    -8.8175 *  0.0000     1          
   279  Li    c      0.0000       6.8580 *     8.8175 *  0.0000     1          
   280  Li    c      0.0000      -8.8175 *    -6.8580 *  0.0000     1          
   281  O     c      0.0000      -2.9392 *   -10.7769 *  0.0000     1          
   282  O     c      0.0000     -10.7769 *    -2.9392 *  0.0000     1          
   283  Li    c      0.0000      -2.9392 *    10.7769 *  0.0000     1          
   284  Li    c      0.0000     -10.7769 *     2.9392 *  0.0000     1          
   285  Li    c      0.0000       2.9392 *   -10.7769 *  0.0000     1          
   286  Li    c      0.0000      10.7769 *    -2.9392 *  0.0000     1          
   287  Cl    c      1.9594 *     6.8580 *    -8.8175 *  0.0000     2          
   288  Cl    c      1.9594 *    -8.8175 *     6.8580 *  0.0000     2          
   289  Cl    c      9.7972 *     2.9392 *    -4.8986 *  0.0000     2          
   290  Cl    c      9.7972 *    -4.8986 *     2.9392 *  0.0000     2          
   291  Li    c      1.9594 *     8.8175 *    -6.8580 *  0.0000     2          
   292  Li    c      1.9594 *    -6.8580 *     8.8175 *  0.0000     2          
   293  Li    c      9.7972 *     4.8986 *    -2.9392 *  0.0000     2          
   294  Li    c      9.7972 *    -2.9392 *     4.8986 *  0.0000     2          
   295  Cl    c      1.9594 *     2.9392 *    10.7769 *  0.0000     2          
   296  Cl    c      1.9594 *    10.7769 *     2.9392 *  0.0000     2          
   297  Cl    c      5.8783 *     6.8580 *     6.8580 *  0.0000     2          
   298  Li    c      1.9594 *    -2.9392 *   -10.7769 *  0.0000     2          
   299  Li    c      1.9594 *   -10.7769 *    -2.9392 *  0.0000     2          
   300  Li    c      5.8783 *    -6.8580 *    -6.8580 *  0.0000     2          
   301  O     c      7.8377 *     4.8986 *    -6.8580 *  0.0000     2          
   302  O     c      7.8377 *    -6.8580 *     4.8986 *  0.0000     2          
   303  Li    c      7.8377 *     4.8986 *     6.8580 *  0.0000     2          
   304  Li    c      7.8377 *    -6.8580 *    -4.8986 *  0.0000     2          
   305  Li    c      7.8377 *     6.8580 *     4.8986 *  0.0000     2          
   306  Li    c      7.8377 *    -4.8986 *    -6.8580 *  0.0000     2          
   307  O     c      3.9189 *     0.9797 *   -10.7769 *  0.0000     2          
   308  O     c      3.9189 *   -10.7769 *     0.9797 *  0.0000     2          
   309  Li    c      3.9189 *     0.9797 *    10.7769 *  0.0000     2          
   310  Li    c      3.9189 *   -10.7769 *    -0.9797 *  0.0000     2          
   311  Li    c      3.9189 *    -0.9797 *   -10.7769 *  0.0000     2          
   312  Li    c      3.9189 *    10.7769 *     0.9797 *  0.0000     2          
   313  Cl    c      5.8783 *    -4.8986 *    -8.8175 *  0.0000     2          
   314  Li    c      5.8783 *     4.8986 *     8.8175 *  0.0000     2          
   315  Cl    c      5.8783 *    -8.8175 *    -4.8986 *  0.0000     2          
   316  Li    c      5.8783 *     8.8175 *     4.8986 *  0.0000     2          
   317  O     c    -11.7566 *     0.9797 *     0.9797 *  0.0000     2          
   318  Li    c    -11.7566 *     0.9797 *    -0.9797 *  0.0000     2          
   319  Li    c    -11.7566 *    -0.9797 *     0.9797 *  0.0000     2          
   320  O     c      3.9189 *     8.8175 *    -6.8580 *  0.0000     2          
   321  O     c      3.9189 *    -6.8580 *     8.8175 *  0.0000     2          
   322  O     c      7.8377 *     0.9797 *     8.8175 *  0.0000     2          
   323  O     c      7.8377 *     8.8175 *     0.9797 *  0.0000     2          
   324  Li    c      3.9189 *     8.8175 *     6.8580 *  0.0000     2          
   325  Li    c      3.9189 *    -6.8580 *    -8.8175 *  0.0000     2          
   326  Li    c      7.8377 *     0.9797 *    -8.8175 *  0.0000     2          
   327  Li    c      7.8377 *     8.8175 *    -0.9797 *  0.0000     2          
   328  Li    c      3.9189 *     6.8580 *     8.8175 *  0.0000     2          
   329  Li    c      3.9189 *    -8.8175 *    -6.8580 *  0.0000     2          
   330  Li    c      7.8377 *    -0.9797 *     8.8175 *  0.0000     2          
   331  Li    c      7.8377 *    -8.8175 *     0.9797 *  0.0000     2          
   332  O     c      0.0000       4.8986 *   -10.7769 *  0.0000     1          
   333  O     c      0.0000     -10.7769 *     4.8986 *  0.0000     1          
   334  O     c      3.9189 *    -2.9392 *   -10.7769 *  0.0000     2          
   335  O     c      3.9189 *   -10.7769 *    -2.9392 *  0.0000     2          
   336  Li    c      0.0000       4.8986 *    10.7769 *  0.0000     1          
   337  Li    c      0.0000     -10.7769 *    -4.8986 *  0.0000     1          
   338  Li    c      3.9189 *    -2.9392 *    10.7769 *  0.0000     2          
   339  Li    c      3.9189 *   -10.7769 *     2.9392 *  0.0000     2          
   340  Li    c      0.0000      10.7769 *     4.8986 *  0.0000     1          
   341  Li    c      0.0000      -4.8986 *   -10.7769 *  0.0000     1          
   342  Li    c      3.9189 *     2.9392 *   -10.7769 *  0.0000     2          
   343  Li    c      3.9189 *    10.7769 *    -2.9392 *  0.0000     2          
   344  Cl    c      9.7972 *    -4.8986 *    -4.8986 *  0.0000     2          
   345  Li    c      9.7972 *     4.8986 *     4.8986 *  0.0000     2          
   346  Cl    c      1.9594 *    10.7769 *    -4.8986 *  0.0000     2          
   347  Cl    c      1.9594 *    -4.8986 *    10.7769 *  0.0000     2          
   348  Cl    c      9.7972 *    -0.9797 *     6.8580 *  0.0000     2          
   349  Cl    c      9.7972 *     6.8580 *    -0.9797 *  0.0000     2          
   350  Li    c      1.9594 *     4.8986 *   -10.7769 *  0.0000     2          
   351  Li    c      1.9594 *   -10.7769 *     4.8986 *  0.0000     2          
   352  Li    c      9.7972 *     0.9797 *    -6.8580 *  0.0000     2          
   353  Li    c      9.7972 *    -6.8580 *     0.9797 *  0.0000     2          
   354  O     c      7.8377 *    -2.9392 *     8.8175 *  0.0000     2          
   355  O     c    -11.7566 *     0.9797 *    -2.9392 *  0.0000     2          
   356  O     c    -11.7566 *    -2.9392 *     0.9797 *  0.0000     2          
   357  Li    c      7.8377 *    -2.9392 *    -8.8175 *  0.0000     2          
   358  Li    c    -11.7566 *     0.9797 *     2.9392 *  0.0000     2          
   359  Li    c    -11.7566 *    -2.9392 *    -0.9797 *  0.0000     2          
   360  Li    c      7.8377 *     2.9392 *     8.8175 *  0.0000     2          
   361  Li    c    -11.7566 *    -0.9797 *    -2.9392 *  0.0000     2          
   362  Li    c    -11.7566 *     2.9392 *     0.9797 *  0.0000     2          
   363  O     c      7.8377 *     8.8175 *    -2.9392 *  0.0000     2          
   364  Li    c      7.8377 *     8.8175 *     2.9392 *  0.0000     2          
   365  Li    c      7.8377 *    -8.8175 *    -2.9392 *  0.0000     2          
   366  Cl    c      9.7972 *     2.9392 *     6.8580 *  0.0000     2          
   367  Li    c      9.7972 *    -2.9392 *    -6.8580 *  0.0000     2          
   368  Cl    c      5.8783 *    -0.9797 *    10.7769 *  0.0000     2          
   369  Cl    c      5.8783 *    10.7769 *    -0.9797 *  0.0000     2          
   370  Cl    c      9.7972 *     6.8580 *     2.9392 *  0.0000     2          
   371  Li    c      5.8783 *     0.9797 *   -10.7769 *  0.0000     2          
   372  Li    c      5.8783 *   -10.7769 *     0.9797 *  0.0000     2          
   373  Li    c      9.7972 *    -6.8580 *    -2.9392 *  0.0000     2          
   374  O     c      0.0000       8.8175 *     8.8175 *  0.0000     1          
   375  O     c    -11.7566 *    -2.9392 *    -2.9392 *  0.0000     2          
   376  Li    c      0.0000       8.8175 *    -8.8175 *  0.0000     1          
   377  Li    c    -11.7566 *    -2.9392 *     2.9392 *  0.0000     2          
   378  Li    c      0.0000      -8.8175 *     8.8175 *  0.0000     1          
   379  Li    c    -11.7566 *     2.9392 *    -2.9392 *  0.0000     2          
   380  O     c      3.9189 *     4.8986 *   -10.7769 *  0.0000     2          
   381  O     c      3.9189 *   -10.7769 *     4.8986 *  0.0000     2          
   382  O     c      7.8377 *    -6.8580 *    -6.8580 *  0.0000     2          
   383  Li    c      3.9189 *     4.8986 *    10.7769 *  0.0000     2          
   384  Li    c      3.9189 *   -10.7769 *    -4.8986 *  0.0000     2          
   385  Li    c      7.8377 *    -6.8580 *     6.8580 *  0.0000     2          
   386  Li    c      3.9189 *    10.7769 *     4.8986 *  0.0000     2          
   387  Li    c      3.9189 *    -4.8986 *   -10.7769 *  0.0000     2          
   388  Li    c      7.8377 *     6.8580 *    -6.8580 *  0.0000     2          
   389  Cl    c      1.9594 *    -8.8175 *    -8.8175 *  0.0000     2          
   390  Li    c      1.9594 *     8.8175 *     8.8175 *  0.0000     2          
   391  Cl    c      5.8783 *     6.8580 *    -8.8175 *  0.0000     2          
   392  Cl    c      5.8783 *    -8.8175 *     6.8580 *  0.0000     2          
   393  Li    c      5.8783 *     8.8175 *    -6.8580 *  0.0000     2          
   394  Li    c      5.8783 *    -6.8580 *     8.8175 *  0.0000     2          
   395  Cl    c      5.8783 *     2.9392 *    10.7769 *  0.0000     2          
   396  Cl    c      5.8783 *    10.7769 *     2.9392 *  0.0000     2          
   397  Li    c      5.8783 *    -2.9392 *   -10.7769 *  0.0000     2          
   398  Li    c      5.8783 *   -10.7769 *    -2.9392 *  0.0000     2          
   399  O     c    -11.7566 *     0.9797 *     4.8986 *  0.0000     2          
   400  O     c    -11.7566 *     4.8986 *     0.9797 *  0.0000     2          
   401  Li    c    -11.7566 *     0.9797 *    -4.8986 *  0.0000     2          
   402  Li    c    -11.7566 *     4.8986 *    -0.9797 *  0.0000     2          
   403  Li    c    -11.7566 *    -0.9797 *     4.8986 *  0.0000     2          
   404  Li    c    -11.7566 *    -4.8986 *     0.9797 *  0.0000     2          
   405  O     c      0.0000       0.9797 *    12.7363 *  0.0000     1          
   406  O     c      0.0000      12.7363 *     0.9797 *  0.0000     1          
   407  O     c      7.8377 *     4.8986 *     8.8175 *  0.0000     2          
   408  O     c      7.8377 *     8.8175 *     4.8986 *  0.0000     2          
   409  Li    c      0.0000       0.9797 *   -12.7363 *  0.0000     1          
   410  Li    c      0.0000      12.7363 *    -0.9797 *  0.0000     1          
   411  Li    c      7.8377 *     4.8986 *    -8.8175 *  0.0000     2          
   412  Li    c      7.8377 *     8.8175 *    -4.8986 *  0.0000     2          
   413  Li    c      0.0000      -0.9797 *    12.7363 *  0.0000     1          
   414  Li    c      0.0000     -12.7363 *     0.9797 *  0.0000     1          
   415  Li    c      7.8377 *    -4.8986 *     8.8175 *  0.0000     2          
   416  Li    c      7.8377 *    -8.8175 *     4.8986 *  0.0000     2          
   417  O     c      0.0000      -6.8580 *   -10.7769 *  0.0000     1          
   418  O     c      0.0000     -10.7769 *    -6.8580 *  0.0000     1          
   419  Li    c      0.0000      -6.8580 *    10.7769 *  0.0000     1          
   420  Li    c      0.0000     -10.7769 *     6.8580 *  0.0000     1          
   421  Li    c      0.0000       6.8580 *   -10.7769 *  0.0000     1          
   422  Li    c      0.0000      10.7769 *    -6.8580 *  0.0000     1          
   423  Cl    c      1.9594 *    -0.9797 *   -12.7363 *  0.0000     2          
   424  Cl    c      1.9594 *   -12.7363 *    -0.9797 *  0.0000     2          
   425  Li    c      1.9594 *     0.9797 *    12.7363 *  0.0000     2          
   426  Li    c      1.9594 *    12.7363 *     0.9797 *  0.0000     2          
   427  Cl    c      1.9594 *     6.8580 *    10.7769 *  0.0000     2          
   428  Cl    c      9.7972 *     6.8580 *    -4.8986 *  0.0000     2          
   429  Cl    c      9.7972 *    -4.8986 *     6.8580 *  0.0000     2          
   430  Li    c      1.9594 *    -6.8580 *   -10.7769 *  0.0000     2          
   431  Li    c      9.7972 *     4.8986 *    -6.8580 *  0.0000     2          
   432  Li    c      9.7972 *    -6.8580 *     4.8986 *  0.0000     2          
   433  Cl    c      1.9594 *    10.7769 *     6.8580 *  0.0000     2          
   434  Li    c      1.9594 *   -10.7769 *    -6.8580 *  0.0000     2          
   435  O     c      3.9189 *     8.8175 *     8.8175 *  0.0000     2          
   436  O     c    -11.7566 *     4.8986 *    -2.9392 *  0.0000     2          
   437  O     c    -11.7566 *    -2.9392 *     4.8986 *  0.0000     2          
   438  Li    c      3.9189 *     8.8175 *    -8.8175 *  0.0000     2          
   439  Li    c    -11.7566 *     4.8986 *     2.9392 *  0.0000     2          
   440  Li    c    -11.7566 *    -2.9392 *    -4.8986 *  0.0000     2          
   441  Li    c      3.9189 *    -8.8175 *     8.8175 *  0.0000     2          
   442  Li    c    -11.7566 *     2.9392 *     4.8986 *  0.0000     2          
   443  Li    c    -11.7566 *    -4.8986 *    -2.9392 *  0.0000     2          
   444  O     c      0.0000      12.7363 *    -2.9392 *  0.0000     1          
   445  O     c      0.0000      -2.9392 *    12.7363 *  0.0000     1          
   446  Li    c      0.0000      12.7363 *     2.9392 *  0.0000     1          
   447  Li    c      0.0000      -2.9392 *   -12.7363 *  0.0000     1          
   448  Li    c      0.0000       2.9392 *    12.7363 *  0.0000     1          
   449  Li    c      0.0000     -12.7363 *    -2.9392 *  0.0000     1          
   450  Cl    c      1.9594 *     2.9392 *   -12.7363 *  0.0000     2          
   451  Cl    c      1.9594 *   -12.7363 *     2.9392 *  0.0000     2          
   452  Cl    c      9.7972 *    -0.9797 *    -8.8175 *  0.0000     2          
   453  Cl    c      9.7972 *    -8.8175 *    -0.9797 *  0.0000     2          
   454  Li    c      1.9594 *    12.7363 *    -2.9392 *  0.0000     2          
   455  Li    c      1.9594 *    -2.9392 *    12.7363 *  0.0000     2          
   456  Li    c      9.7972 *     0.9797 *     8.8175 *  0.0000     2          
   457  Li    c      9.7972 *     8.8175 *     0.9797 *  0.0000     2          
   458  Cl    c      5.8783 *    10.7769 *    -4.8986 *  0.0000     2          
   459  Cl    c      5.8783 *    -4.8986 *    10.7769 *  0.0000     2          
   460  Li    c      5.8783 *     4.8986 *   -10.7769 *  0.0000     2          
   461  Li    c      5.8783 *   -10.7769 *     4.8986 *  0.0000     2          
   462  O     c      3.9189 *     0.9797 *    12.7363 *  0.0000     2          
   463  O     c      3.9189 *    12.7363 *     0.9797 *  0.0000     2          
   464  Li    c      3.9189 *     0.9797 *   -12.7363 *  0.0000     2          
   465  Li    c      3.9189 *    12.7363 *    -0.9797 *  0.0000     2          
   466  Li    c      3.9189 *    -0.9797 *    12.7363 *  0.0000     2          
   467  Li    c      3.9189 *   -12.7363 *     0.9797 *  0.0000     2          
   468  O     c      3.9189 *   -10.7769 *    -6.8580 *  0.0000     2          
   469  O     c      7.8377 *     0.9797 *   -10.7769 *  0.0000     2          
   470  O     c      7.8377 *   -10.7769 *     0.9797 *  0.0000     2          
   471  Li    c      3.9189 *   -10.7769 *     6.8580 *  0.0000     2          
   472  Li    c      7.8377 *     0.9797 *    10.7769 *  0.0000     2          
   473  Li    c      7.8377 *   -10.7769 *    -0.9797 *  0.0000     2          
   474  Li    c      3.9189 *    10.7769 *    -6.8580 *  0.0000     2          
   475  Li    c      7.8377 *    -0.9797 *   -10.7769 *  0.0000     2          
   476  Li    c      7.8377 *    10.7769 *     0.9797 *  0.0000     2          
   477  O     c      3.9189 *    -6.8580 *   -10.7769 *  0.0000     2          
   478  Li    c      3.9189 *    -6.8580 *    10.7769 *  0.0000     2          
   479  Li    c      3.9189 *     6.8580 *   -10.7769 *  0.0000     2          
   480  Cl    c      9.7972 *     2.9392 *    -8.8175 *  0.0000     2          
   481  Li    c      9.7972 *    -2.9392 *     8.8175 *  0.0000     2          
   482  Cl    c      9.7972 *    -8.8175 *     2.9392 *  0.0000     2          
   483  Li    c      9.7972 *     8.8175 *    -2.9392 *  0.0000     2          
   484  O     c    -11.7566 *     0.9797 *    -6.8580 *  0.0000     2          
   485  O     c    -11.7566 *     4.8986 *     4.8986 *  0.0000     2          
   486  O     c    -11.7566 *    -6.8580 *     0.9797 *  0.0000     2          
   487  Li    c    -11.7566 *     0.9797 *     6.8580 *  0.0000     2          
   488  Li    c    -11.7566 *     4.8986 *    -4.8986 *  0.0000     2          
   489  Li    c    -11.7566 *    -6.8580 *    -0.9797 *  0.0000     2          
   490  Li    c    -11.7566 *    -0.9797 *    -6.8580 *  0.0000     2          
   491  Li    c    -11.7566 *     6.8580 *     0.9797 *  0.0000     2          
   492  Li    c    -11.7566 *    -4.8986 *     4.8986 *  0.0000     2          
   493  O     c      0.0000       4.8986 *    12.7363 *  0.0000     1          
   494  O     c      0.0000      12.7363 *     4.8986 *  0.0000     1          
   495  O     c      3.9189 *    12.7363 *    -2.9392 *  0.0000     2          
   496  O     c      3.9189 *    -2.9392 *    12.7363 *  0.0000     2          
   497  O     c      7.8377 *     8.8175 *    -6.8580 *  0.0000     2          
   498  O     c      7.8377 *    -6.8580 *     8.8175 *  0.0000     2          
   499  Li    c      0.0000       4.8986 *   -12.7363 *  0.0000     1          
   500  Li    c      0.0000      12.7363 *    -4.8986 *  0.0000     1          
   501  Li    c      3.9189 *    12.7363 *     2.9392 *  0.0000     2          
   502  Li    c      3.9189 *    -2.9392 *   -12.7363 *  0.0000     2          
   503  Li    c      7.8377 *     8.8175 *     6.8580 *  0.0000     2          
   504  Li    c      7.8377 *    -6.8580 *    -8.8175 *  0.0000     2          
   505  Li    c      0.0000      -4.8986 *    12.7363 *  0.0000     1          
   506  Li    c      0.0000     -12.7363 *     4.8986 *  0.0000     1          
   507  Li    c      3.9189 *     2.9392 *    12.7363 *  0.0000     2          
   508  Li    c      3.9189 *   -12.7363 *    -2.9392 *  0.0000     2          
   509  Li    c      7.8377 *     6.8580 *     8.8175 *  0.0000     2          
   510  Li    c      7.8377 *    -8.8175 *    -6.8580 *  0.0000     2          
   511  O     c      7.8377 *    -2.9392 *   -10.7769 *  0.0000     2          
   512  O     c      7.8377 *   -10.7769 *    -2.9392 *  0.0000     2          
   513  Li    c      7.8377 *    -2.9392 *    10.7769 *  0.0000     2          
   514  Li    c      7.8377 *   -10.7769 *     2.9392 *  0.0000     2          
   515  Li    c      7.8377 *     2.9392 *   -10.7769 *  0.0000     2          
   516  Li    c      7.8377 *    10.7769 *    -2.9392 *  0.0000     2          
   517  Cl    c    -13.7161 *    -0.9797 *    -0.9797 *  0.0000     2          
   518  Li    c    -13.7161 *     0.9797 *     0.9797 *  0.0000     2          
   519  Cl    c      1.9594 *    -4.8986 *   -12.7363 *  0.0000     2          
   520  Cl    c      1.9594 *   -12.7363 *    -4.8986 *  0.0000     2          
   521  Li    c      1.9594 *     4.8986 *    12.7363 *  0.0000     2          
   522  Li    c      1.9594 *    12.7363 *     4.8986 *  0.0000     2          
   523  Cl    c      5.8783 *    -8.8175 *    -8.8175 *  0.0000     2          
   524  Cl    c      9.7972 *     6.8580 *     6.8580 *  0.0000     2          
   525  Li    c      5.8783 *     8.8175 *     8.8175 *  0.0000     2          
   526  Li    c      9.7972 *    -6.8580 *    -6.8580 *  0.0000     2          
   527  O     c    -11.7566 *    -2.9392 *    -6.8580 *  0.0000     2          
   528  O     c    -11.7566 *    -6.8580 *    -2.9392 *  0.0000     2          
   529  Li    c    -11.7566 *    -2.9392 *     6.8580 *  0.0000     2          
   530  Li    c    -11.7566 *    -6.8580 *     2.9392 *  0.0000     2          
   531  Li    c    -11.7566 *     2.9392 *    -6.8580 *  0.0000     2          
   532  Li    c    -11.7566 *     6.8580 *    -2.9392 *  0.0000     2          
   533  O     c      0.0000       8.8175 *   -10.7769 *  0.0000     1          
   534  O     c      0.0000     -10.7769 *     8.8175 *  0.0000     1          
   535  Li    c      0.0000       8.8175 *    10.7769 *  0.0000     1          
   536  Li    c      0.0000     -10.7769 *    -8.8175 *  0.0000     1          
   537  Li    c      0.0000      10.7769 *     8.8175 *  0.0000     1          
   538  Li    c      0.0000      -8.8175 *   -10.7769 *  0.0000     1          
   539  Cl    c    -13.7161 *    -0.9797 *     2.9392 *  0.0000     2          
   540  Cl    c    -13.7161 *     2.9392 *    -0.9797 *  0.0000     2          
   541  Li    c    -13.7161 *     0.9797 *    -2.9392 *  0.0000     2          
   542  Li    c    -13.7161 *    -2.9392 *     0.9797 *  0.0000     2          
   543  Cl    c      5.8783 *    -0.9797 *   -12.7363 *  0.0000     2          
   544  Cl    c      5.8783 *   -12.7363 *    -0.9797 *  0.0000     2          
   545  Cl    c      9.7972 *    -4.8986 *    -8.8175 *  0.0000     2          
   546  Cl    c      9.7972 *    -8.8175 *    -4.8986 *  0.0000     2          
   547  Li    c      5.8783 *     0.9797 *    12.7363 *  0.0000     2          
   548  Li    c      5.8783 *    12.7363 *     0.9797 *  0.0000     2          
   549  Li    c      9.7972 *     4.8986 *     8.8175 *  0.0000     2          
   550  Li    c      9.7972 *     8.8175 *     4.8986 *  0.0000     2          
   551  Cl    c      1.9594 *    10.7769 *    -8.8175 *  0.0000     2          
   552  Cl    c      1.9594 *    -8.8175 *    10.7769 *  0.0000     2          
   553  Cl    c      5.8783 *    10.7769 *     6.8580 *  0.0000     2          
   554  Li    c      1.9594 *     8.8175 *   -10.7769 *  0.0000     2          
   555  Li    c      1.9594 *   -10.7769 *     8.8175 *  0.0000     2          
   556  Li    c      5.8783 *   -10.7769 *    -6.8580 *  0.0000     2          
   557  Cl    c      5.8783 *     6.8580 *    10.7769 *  0.0000     2          
   558  Li    c      5.8783 *    -6.8580 *   -10.7769 *  0.0000     2          
   559  O     c      3.9189 *     4.8986 *    12.7363 *  0.0000     2          
   560  O     c      3.9189 *    12.7363 *     4.8986 *  0.0000     2          
   561  Li    c      3.9189 *     4.8986 *   -12.7363 *  0.0000     2          
   562  Li    c      3.9189 *    12.7363 *    -4.8986 *  0.0000     2          
   563  Li    c      3.9189 *    -4.8986 *    12.7363 *  0.0000     2          
   564  Li    c      3.9189 *   -12.7363 *     4.8986 *  0.0000     2          
   565  O     c      7.8377 *     4.8986 *   -10.7769 *  0.0000     2          
   566  O     c      7.8377 *   -10.7769 *     4.8986 *  0.0000     2          
   567  Li    c      7.8377 *     4.8986 *    10.7769 *  0.0000     2          
   568  Li    c      7.8377 *   -10.7769 *    -4.8986 *  0.0000     2          
   569  Li    c      7.8377 *    10.7769 *     4.8986 *  0.0000     2          
   570  Li    c      7.8377 *    -4.8986 *   -10.7769 *  0.0000     2          
   571  Cl    c    -13.7161 *     2.9392 *     2.9392 *  0.0000     2          
   572  Li    c    -13.7161 *    -2.9392 *    -2.9392 *  0.0000     2          
   573  Cl    c      5.8783 *     2.9392 *   -12.7363 *  0.0000     2          
   574  Cl    c      5.8783 *   -12.7363 *     2.9392 *  0.0000     2          
   575  Li    c      5.8783 *    12.7363 *    -2.9392 *  0.0000     2          
   576  Li    c      5.8783 *    -2.9392 *    12.7363 *  0.0000     2          
   577  O     c    -11.7566 *     4.8986 *    -6.8580 *  0.0000     2          
   578  O     c    -11.7566 *    -6.8580 *     4.8986 *  0.0000     2          
   579  Li    c    -11.7566 *     4.8986 *     6.8580 *  0.0000     2          
   580  Li    c    -11.7566 *    -6.8580 *    -4.8986 *  0.0000     2          
   581  Li    c    -11.7566 *     6.8580 *     4.8986 *  0.0000     2          
   582  Li    c    -11.7566 *    -4.8986 *    -6.8580 *  0.0000     2          
   583  O     c      0.0000      12.7363 *    -6.8580 *  0.0000     1          
   584  O     c      0.0000      -6.8580 *    12.7363 *  0.0000     1          
   585  O     c      3.9189 *   -10.7769 *     8.8175 *  0.0000     2          
   586  Li    c      0.0000      12.7363 *     6.8580 *  0.0000     1          
   587  Li    c      0.0000      -6.8580 *   -12.7363 *  0.0000     1          
   588  Li    c      3.9189 *   -10.7769 *    -8.8175 *  0.0000     2          
   589  Li    c      0.0000       6.8580 *    12.7363 *  0.0000     1          
   590  Li    c      0.0000     -12.7363 *    -6.8580 *  0.0000     1          
   591  Li    c      3.9189 *    10.7769 *     8.8175 *  0.0000     2          
   592  O     c      3.9189 *     8.8175 *   -10.7769 *  0.0000     2          
   593  Li    c      3.9189 *     8.8175 *    10.7769 *  0.0000     2          
   594  Li    c      3.9189 *    -8.8175 *   -10.7769 *  0.0000     2          
   595  Cl    c    -13.7161 *    -0.9797 *    -4.8986 *  0.0000     2          
   596  Cl    c    -13.7161 *    -4.8986 *    -0.9797 *  0.0000     2          
   597  Li    c    -13.7161 *     0.9797 *     4.8986 *  0.0000     2          
   598  Li    c    -13.7161 *     4.8986 *     0.9797 *  0.0000     2          
   599  Cl    c      1.9594 *   -12.7363 *     6.8580 *  0.0000     2          
   600  Li    c      1.9594 *    12.7363 *    -6.8580 *  0.0000     2          
   601  Cl    c      1.9594 *     6.8580 *   -12.7363 *  0.0000     2          
   602  Cl    c      9.7972 *    -0.9797 *    10.7769 *  0.0000     2          
   603  Li    c      1.9594 *    -6.8580 *    12.7363 *  0.0000     2          
   604  Li    c      9.7972 *     0.9797 *   -10.7769 *  0.0000     2          
   605  Cl    c      9.7972 *    10.7769 *    -0.9797 *  0.0000     2          
   606  Li    c      9.7972 *   -10.7769 *     0.9797 *  0.0000     2          
   607  O     c    -11.7566 *     8.8175 *     0.9797 *  0.0000     2          
   608  Li    c    -11.7566 *     8.8175 *    -0.9797 *  0.0000     2          
   609  Li    c    -11.7566 *    -8.8175 *     0.9797 *  0.0000     2          
   610  O     c      7.8377 *     8.8175 *     8.8175 *  0.0000     2          
   611  O     c    -11.7566 *     0.9797 *     8.8175 *  0.0000     2          
   612  Li    c      7.8377 *     8.8175 *    -8.8175 *  0.0000     2          
   613  Li    c    -11.7566 *     0.9797 *    -8.8175 *  0.0000     2          
   614  Li    c      7.8377 *    -8.8175 *     8.8175 *  0.0000     2          
   615  Li    c    -11.7566 *    -0.9797 *     8.8175 *  0.0000     2          
   616  O     c      0.0000       0.9797 *   -14.6958 *  0.0000     1          
   617  O     c      0.0000     -14.6958 *     0.9797 *  0.0000     1          
   618  Li    c      0.0000       0.9797 *    14.6958 *  0.0000     1          
   619  Li    c      0.0000     -14.6958 *    -0.9797 *  0.0000     1          
   620  Li    c      0.0000      -0.9797 *   -14.6958 *  0.0000     1          
   621  Li    c      0.0000      14.6958 *     0.9797 *  0.0000     1          
   622  Cl    c    -13.7161 *     2.9392 *    -4.8986 *  0.0000     2          
   623  Cl    c    -13.7161 *    -4.8986 *     2.9392 *  0.0000     2          
   624  Li    c    -13.7161 *     4.8986 *    -2.9392 *  0.0000     2          
   625  Li    c    -13.7161 *    -2.9392 *     4.8986 *  0.0000     2          
   626  Cl    c      5.8783 *    -4.8986 *   -12.7363 *  0.0000     2          
   627  Cl    c      5.8783 *   -12.7363 *    -4.8986 *  0.0000     2          
   628  Cl    c      9.7972 *     6.8580 *    -8.8175 *  0.0000     2          
   629  Cl    c      9.7972 *    -8.8175 *     6.8580 *  0.0000     2          
   630  Li    c      5.8783 *     4.8986 *    12.7363 *  0.0000     2          
   631  Li    c      5.8783 *    12.7363 *     4.8986 *  0.0000     2          
   632  Li    c      9.7972 *     8.8175 *    -6.8580 *  0.0000     2          
   633  Li    c      9.7972 *    -6.8580 *     8.8175 *  0.0000     2          
   634  Cl    c      1.9594 *    -0.9797 *    14.6958 *  0.0000     2          
   635  Cl    c      1.9594 *    14.6958 *    -0.9797 *  0.0000     2          
   636  Cl    c      9.7972 *     2.9392 *    10.7769 *  0.0000     2          
   637  Li    c      1.9594 *     0.9797 *   -14.6958 *  0.0000     2          
   638  Li    c      1.9594 *   -14.6958 *     0.9797 *  0.0000     2          
   639  Li    c      9.7972 *    -2.9392 *   -10.7769 *  0.0000     2          
   640  Cl    c      9.7972 *    10.7769 *     2.9392 *  0.0000     2          
   641  Li    c      9.7972 *   -10.7769 *    -2.9392 *  0.0000     2          
   642  O     c    -11.7566 *     8.8175 *    -2.9392 *  0.0000     2          
   643  O     c    -11.7566 *    -2.9392 *     8.8175 *  0.0000     2          
   644  Li    c    -11.7566 *     8.8175 *     2.9392 *  0.0000     2          
   645  Li    c    -11.7566 *    -2.9392 *    -8.8175 *  0.0000     2          
   646  Li    c    -11.7566 *     2.9392 *     8.8175 *  0.0000     2          
   647  Li    c    -11.7566 *    -8.8175 *    -2.9392 *  0.0000     2          
   648  O     c      3.9189 *    12.7363 *    -6.8580 *  0.0000     2          
   649  O     c      7.8377 *     0.9797 *    12.7363 *  0.0000     2          
   650  O     c      7.8377 *    12.7363 *     0.9797 *  0.0000     2          
   651  Li    c      3.9189 *    12.7363 *     6.8580 *  0.0000     2          
   652  Li    c      7.8377 *     0.9797 *   -12.7363 *  0.0000     2          
[...]
   1031 x          5.878309      5.881230     0.002920    Cartesian    0.05
   1031 y          9.797182      9.801649     0.004467    Cartesian    0.05
   1031 z         -9.797182     -9.803095    -0.005913    Cartesian    0.06
   1032 x        -11.756619    -11.755787     0.000832    Cartesian   -0.01
   1032 y          0.000000      0.001385     0.001385    Cartesian    0.00
   1032 z         -3.918873     -3.920042    -0.001169    Cartesian    0.03
   1033 x        -11.756619    -11.756232     0.000387    Cartesian   -0.00
   1033 y         -3.918873     -3.916599     0.002274    Cartesian   -0.06
   1033 z          0.000000     -0.001341    -0.001341    Cartesian    0.00
   1034 x          3.918873      3.919576     0.000703    Cartesian    0.02
   1034 y        -11.756619    -11.758330    -0.001711    Cartesian    0.01
   1034 z          7.837746      7.837286    -0.000460    Cartesian   -0.01
   1035 x          3.918873      3.919306     0.000433    Cartesian    0.01
   1035 y          7.837746      7.841239     0.003493    Cartesian    0.04
   1035 z        -11.756619    -11.761148    -0.004529    Cartesian    0.04
   1036 x         11.756619     11.759494     0.002875    Cartesian    0.02
   1036 y          0.000000      0.000966     0.000966    Cartesian    0.00
   1036 z         11.756619     11.757735     0.001116    Cartesian    0.01
   1037 x         11.756619     11.756558    -0.000061    Cartesian   -0.00
   1037 y         11.756619     11.758356     0.001737    Cartesian    0.01
   1037 z          0.000000     -0.002311    -0.002311    Cartesian    0.00
   1038 x         -9.797182     -9.797132     0.000051    Cartesian   -0.00
   1038 y          9.797182      9.797462     0.000279    Cartesian    0.00
   1038 z          1.959436      1.958468    -0.000968    Cartesian   -0.05
   1039 x          9.797182      9.800486     0.003303    Cartesian    0.03
   1039 y          9.797182      9.800372     0.003190    Cartesian    0.03
   1039 z          9.797182      9.799935     0.002753    Cartesian    0.03
   1040 x         -9.797182     -9.798424    -0.001241    Cartesian    0.01
   1040 y          1.959436      1.959643     0.000206    Cartesian    0.01
   1040 z          9.797182      9.798237     0.001055    Cartesian    0.01
   1041 x          1.959436      1.959436     0.000000    Cartesian    0.00
   1041 y          1.959436      1.959657     0.000220    Cartesian    0.01
   1041 z        -13.716055    -13.720340    -0.004284    Cartesian    0.03
   1042 x          1.959436      1.959436     0.000000    Cartesian    0.00
   1042 y        -13.716055    -13.716970    -0.000914    Cartesian    0.01
   1042 z          1.959436      1.958703    -0.000733    Cartesian   -0.04
   1043 x        -11.756619    -11.755371     0.001248    Cartesian   -0.01
   1043 y          3.918873      3.920270     0.001397    Cartesian    0.04
   1043 z         -3.918873     -3.920279    -0.001406    Cartesian    0.04
   1044 x        -11.756619    -11.756908    -0.000289    Cartesian    0.00
   1044 y         -3.918873     -3.916610     0.002263    Cartesian   -0.06
   1044 z          3.918873      3.916671    -0.002202    Cartesian   -0.06
   1045 x          7.837746      7.839562     0.001816    Cartesian    0.02
   1045 y         -3.918873     -3.919416    -0.000543    Cartesian    0.01
   1045 z        -11.756619    -11.761458    -0.004839    Cartesian    0.04
   1046 x          7.837746      7.839677     0.001931    Cartesian    0.02
   1046 y        -11.756619    -11.756966    -0.000347    Cartesian    0.00
   1046 z         -3.918873     -3.921787    -0.002914    Cartesian    0.07
   1047 x         11.756619     11.758370     0.001751    Cartesian    0.01
   1047 y          7.837746      7.840395     0.002649    Cartesian    0.03
   1047 z         -7.837746     -7.841188    -0.003442    Cartesian    0.04
   1048 x         11.756619     11.758291     0.001672    Cartesian    0.01
   1048 y         -7.837746     -7.836116     0.001630    Cartesian   -0.02
   1048 z          7.837746      7.835818    -0.001928    Cartesian   -0.02
   1049 x          3.918873      3.919277     0.000404    Cartesian    0.01
   1049 y          0.000000      0.001038     0.001038    Cartesian    0.00
   1049 z         15.675492     15.676284     0.000792    Cartesian    0.01
   1050 x          3.918873      3.918556    -0.000317    Cartesian   -0.01
   1050 y         15.675492     15.675626     0.000134    Cartesian    0.00
   1050 z          0.000000     -0.002077    -0.002077    Cartesian    0.00
   1051 x         11.756619     11.759692     0.003073    Cartesian    0.03
   1051 y          3.918873      3.920663     0.001790    Cartesian    0.05
   1051 z         11.756619     11.758117     0.001498    Cartesian    0.01
   1052 x         11.756619     11.757045     0.000426    Cartesian    0.00
   1052 y         11.756619     11.758674     0.002055    Cartesian    0.02
   1052 z          3.918873      3.916771    -0.002102    Cartesian   -0.05
   1053 x         -9.797182     -9.797284    -0.000102    Cartesian    0.00
   1053 y          9.797182      9.797701     0.000519    Cartesian    0.01
   1053 z         -1.959436     -1.960158    -0.000721    Cartesian    0.04
   1054 x         -9.797182     -9.797793    -0.000611    Cartesian    0.01
   1054 y         -1.959436     -1.959209     0.000227    Cartesian   -0.01
   1054 z          9.797182      9.796581    -0.000601    Cartesian   -0.01
   1055 x          5.878309      5.879357     0.001048    Cartesian    0.02
   1055 y         13.716055     13.718134     0.002079    Cartesian    0.02
   1055 z         -5.878310     -5.880167    -0.001857    Cartesian    0.03
   1056 x          9.797182      9.798116     0.000933    Cartesian    0.01
   1056 y          1.959436      1.959697     0.000261    Cartesian    0.01
   1056 z         13.716055     13.717100     0.001045    Cartesian    0.01
   1057 x          9.797182      9.797507     0.000325    Cartesian    0.00
   1057 y         13.716055     13.717091     0.001036    Cartesian    0.01
   1057 z          1.959436      1.958432    -0.001005    Cartesian   -0.05
   1058 x          5.878309      5.878106    -0.000204    Cartesian   -0.00
   1058 y         -5.878310     -5.878460    -0.000151    Cartesian    0.00
   1058 z         13.716055     13.716175     0.000119    Cartesian    0.00
   1059 x          9.797182      9.798963     0.001781    Cartesian    0.02
   1059 y         -5.878310     -5.879546    -0.001237    Cartesian    0.02
   1059 z         -9.797182     -9.799243    -0.002060    Cartesian    0.02
   1060 x          9.797182      9.799195     0.002012    Cartesian    0.02
   1060 y         -9.797182     -9.798276    -0.001094    Cartesian    0.01
   1060 z         -5.878310     -5.880103    -0.001794    Cartesian    0.03
   1061 x          1.959436      1.959436     0.000000    Cartesian    0.00
   1061 y         -1.959436     -1.960576    -0.001140    Cartesian    0.06
   1061 z        -13.716055    -13.719527    -0.003472    Cartesian    0.03
   1062 x          1.959436      1.959436     0.000000    Cartesian    0.00
   1062 y        -13.716055    -13.716869    -0.000814    Cartesian    0.01
   1062 z         -1.959436     -1.960619    -0.001182    Cartesian    0.06
   1063 x          3.918873      3.918953     0.000080    Cartesian    0.00
   1063 y          3.918873      3.920325     0.001452    Cartesian    0.04
   1063 z         15.675492     15.676123     0.000631    Cartesian    0.00
   1064 x          3.918873      3.919201     0.000328    Cartesian    0.01
   1064 y         15.675492     15.676153     0.000661    Cartesian    0.00
   1064 z          3.918873      3.917191    -0.001682    Cartesian   -0.04
   1065 x          7.837746      7.839143     0.001397    Cartesian    0.02
   1065 y         11.756619     11.759345     0.002726    Cartesian    0.02
   1065 z         -7.837746     -7.841033    -0.003287    Cartesian    0.04
   1066 x          7.837746      7.838470     0.000724    Cartesian    0.01
   1066 y         -7.837746     -7.837386     0.000360    Cartesian   -0.00
   1066 z         11.756619     11.757155     0.000536    Cartesian    0.00
   1067 x         -9.797182     -9.797813    -0.000630    Cartesian    0.01
   1067 y         -5.878310     -5.878052     0.000258    Cartesian   -0.00
   1067 z         -5.878310     -5.878464    -0.000154    Cartesian    0.00
   1068 x          9.797182      9.797579     0.000397    Cartesian    0.00
   1068 y         13.716055     13.716876     0.000820    Cartesian    0.01
   1068 z         -1.959436     -1.960325    -0.000889    Cartesian    0.05
   1069 x          9.797182      9.797561     0.000378    Cartesian    0.00
   1069 y         -1.959436     -1.959506    -0.000069    Cartesian    0.00
   1069 z         13.716055     13.716533     0.000477    Cartesian    0.00
   1070 x          5.878309      5.879443     0.001134    Cartesian    0.02
   1070 y          1.959436      1.959694     0.000258    Cartesian    0.01
   1070 z        -13.716055    -13.719624    -0.003569    Cartesian    0.03
   1071 x          5.878309      5.878823     0.000513    Cartesian    0.01
   1071 y        -13.716055    -13.716415    -0.000360    Cartesian    0.00
   1071 z          1.959436      1.958849    -0.000587    Cartesian   -0.03
   1072 x          1.959436      1.959436     0.000000    Cartesian    0.00
   1072 y         -9.797182     -9.798419    -0.001237    Cartesian    0.01
   1072 z         -9.797182     -9.800117    -0.002935    Cartesian    0.03
   1073 x        -11.756619    -11.756928    -0.000309    Cartesian    0.00
   1073 y          0.000000      0.001207     0.001207    Cartesian    0.00
   1073 z          7.837746      7.836068    -0.001678    Cartesian   -0.02
   1074 x        -11.756619    -11.755548     0.001071    Cartesian   -0.01
   1074 y          7.837746      7.838311     0.000565    Cartesian    0.01
   1074 z          0.000000     -0.001404    -0.001404    Cartesian    0.00
   1075 x        -11.756619    -11.756332     0.000287    Cartesian   -0.00
   1075 y         -3.918873     -3.917310     0.001563    Cartesian   -0.04
   1075 z         -3.918873     -3.919750    -0.000877    Cartesian    0.02
   1076 x         11.756619     11.758343     0.001724    Cartesian    0.01
   1076 y         -3.918873     -3.918374     0.000499    Cartesian   -0.01
   1076 z         11.756619     11.756716     0.000097    Cartesian    0.00
   1077 x         11.756619     11.757276     0.000657    Cartesian    0.01
   1077 y         11.756619     11.758209     0.001590    Cartesian    0.01
   1077 z         -3.918873     -3.920118    -0.001245    Cartesian    0.03
   1078 x          3.918873      3.919444     0.000571    Cartesian    0.01
   1078 y         11.756619     11.760861     0.004242    Cartesian    0.04
   1078 z         11.756619     11.758125     0.001506    Cartesian    0.01
   1079 x         -9.797182     -9.797601    -0.000419    Cartesian    0.00
   1079 y          9.797182      9.797916     0.000733    Cartesian    0.01
   1079 z          5.878309      5.877386    -0.000924    Cartesian   -0.02
   1080 x          1.959436      1.959436     0.000000    Cartesian    0.00
   1080 y          9.797182      9.797908     0.000726    Cartesian    0.01
   1080 z         13.716055     13.717763     0.001708    Cartesian    0.01
   1081 x          1.959436      1.959436     0.000000    Cartesian    0.00
   1081 y         13.716055     13.717886     0.001830    Cartesian    0.01
   1081 z          9.797182      9.799333     0.002150    Cartesian    0.02
   1082 x         -9.797182     -9.798158    -0.000975    Cartesian    0.01
   1082 y          5.878309      5.879025     0.000716    Cartesian    0.01
   1082 z          9.797182      9.797437     0.000254    Cartesian    0.00
   1083 x          1.959436      1.959436     0.000000    Cartesian    0.00
   1083 y          5.878309      5.879031     0.000721    Cartesian    0.01
   1083 z        -13.716055    -13.718914    -0.002859    Cartesian    0.02
   1084 x          1.959436      1.959436     0.000000    Cartesian    0.00
   1084 y        -13.716055    -13.716386    -0.000330    Cartesian    0.00
   1084 z          5.878309      5.878135    -0.000175    Cartesian   -0.00
   1085 x          5.878309      5.878840     0.000530    Cartesian    0.01
   1085 y         -1.959436     -1.960064    -0.000628    Cartesian    0.03
   1085 z        -13.716055    -13.718552    -0.002497    Cartesian    0.02
   1086 x          5.878309      5.878750     0.000441    Cartesian    0.01
   1086 y        -13.716055    -13.716702    -0.000647    Cartesian    0.00
   1086 z         -1.959436     -1.960496    -0.001060    Cartesian    0.05
   1087 x        -11.756619    -11.756752    -0.000133    Cartesian    0.00
   1087 y          3.918873      3.919926     0.001053    Cartesian    0.03
   1087 z          7.837746      7.836410    -0.001336    Cartesian   -0.02
   1088 x        -11.756619    -11.755991     0.000628    Cartesian   -0.01
   1088 y          7.837746      7.838540     0.000794    Cartesian    0.01
   1088 z          3.918873      3.917279    -0.001594    Cartesian   -0.04
   1089 x          3.918873      3.919216     0.000343    Cartesian    0.01
   1089 y         -7.837746     -7.838912    -0.001166    Cartesian    0.01
   1089 z        -11.756619    -11.760989    -0.004370    Cartesian    0.04
   1090 x          3.918873      3.919211     0.000338    Cartesian    0.01
   1090 y        -11.756619    -11.756920    -0.000301    Cartesian    0.00
   1090 z         -7.837746     -7.841089    -0.003343    Cartesian    0.04
   1091 x          7.837746      7.839317     0.001571    Cartesian    0.02
   1091 y          7.837746      7.840242     0.002496    Cartesian    0.03
   1091 z        -11.756619    -11.760648    -0.004029    Cartesian    0.03
   1092 x          7.837746      7.838969     0.001223    Cartesian    0.02
   1092 y        -11.756619    -11.757189    -0.000570    Cartesian    0.00
   1092 z          7.837746      7.837480    -0.000266    Cartesian   -0.00
   1093 x          3.918873      3.918933     0.000060    Cartesian    0.00
   1093 y         15.675492     15.675579     0.000087    Cartesian    0.00
   1093 z         -3.918873     -3.920499    -0.001626    Cartesian    0.04
   1094 x          3.918873      3.918927     0.000054    Cartesian    0.00
   1094 y         -3.918873     -3.918327     0.000546    Cartesian   -0.01
   1094 z         15.675492     15.676642     0.001150    Cartesian    0.01
   1095 x          9.797182      9.798147     0.000964    Cartesian    0.01
   1095 y          5.878309      5.878974     0.000664    Cartesian    0.01
   1095 z         13.716055     13.717152     0.001097    Cartesian    0.01
   1096 x          9.797182      9.797990     0.000808    Cartesian    0.01
   1096 y         13.716055     13.716980     0.000924    Cartesian    0.01
   1096 z          5.878309      5.877657    -0.000652    Cartesian   -0.01
   1097 x          5.878309      5.878960     0.000650    Cartesian    0.01
   1097 y         -9.797182     -9.798495    -0.001312    Cartesian    0.01
   1097 z         -9.797182     -9.798728    -0.001546    Cartesian    0.02
   1098 x         17.634928     17.634330    -0.000598    Cartesian   -0.00
   1098 y          1.959436      1.959950     0.000514    Cartesian    0.03
   1098 z          1.959436      1.958621    -0.000815    Cartesian   -0.04
   1099 x         11.756619     11.758505     0.001886    Cartesian    0.02
   1099 y         -7.837746     -7.837506     0.000240    Cartesian   -0.00
   1099 z         -7.837746     -7.839773    -0.002027    Cartesian    0.03
   1100 x          7.837746      7.838477     0.000731    Cartesian    0.01
   1100 y          0.000000      0.000697     0.000697    Cartesian    0.00
   1100 z         15.675492     15.676206     0.000714    Cartesian    0.00
   1101 x          7.837746      7.837590    -0.000156    Cartesian   -0.00
   1101 y         15.675492     15.675841     0.000349    Cartesian    0.00
   1101 z          0.000000     -0.001170    -0.001170    Cartesian    0.00
   1102 x          5.878309      5.878477     0.000167    Cartesian    0.00
   1102 y          9.797182      9.798467     0.001285    Cartesian    0.01
   1102 z         13.716055     13.717179     0.001123    Cartesian    0.01
   1103 x          5.878309      5.879020     0.000710    Cartesian    0.01
   1103 y         13.716055     13.717670     0.001615    Cartesian    0.01
   1103 z          9.797182      9.797853     0.000670    Cartesian    0.01
   1104 x          9.797182      9.798113     0.000930    Cartesian    0.01
   1104 y         -9.797182     -9.797452    -0.000270    Cartesian    0.00
   1104 z          9.797182      9.797448     0.000266    Cartesian    0.00
   1105 x         -9.797182     -9.798325    -0.001142    Cartesian    0.01
   1105 y          1.959436      1.959539     0.000103    Cartesian    0.01
   1105 z         -9.797182     -9.799477    -0.002294    Cartesian    0.02
   1106 x         -9.797182     -9.796991     0.000191    Cartesian   -0.00
   1106 y         -9.797182     -9.796425     0.000758    Cartesian   -0.01
   1106 z          1.959436      1.959254    -0.000182    Cartesian   -0.01
   1107 x          5.878309      5.878706     0.000396    Cartesian    0.01
   1107 y          5.878309      5.878964     0.000654    Cartesian    0.01
   1107 z        -13.716055    -13.718007    -0.001951    Cartesian    0.01
   1108 x          5.878309      5.878762     0.000452    Cartesian    0.01
   1108 y        -13.716055    -13.716453    -0.000398    Cartesian    0.00
   1108 z          5.878309      5.878140    -0.000170    Cartesian   -0.00
   1109 x          9.797182      9.798547     0.001365    Cartesian    0.01
   1109 y          9.797182      9.798788     0.001606    Cartesian    0.02
   1109 z         -9.797182     -9.799022    -0.001839    Cartesian    0.02
   1110 x         17.634928     17.634600    -0.000329    Cartesian   -0.00
   1110 y          1.959436      1.959918     0.000481    Cartesian    0.02
   1110 z         -1.959436     -1.959694    -0.000258    Cartesian    0.01
   1111 x         17.634928     17.634617    -0.000311    Cartesian   -0.00
   1111 y         -1.959436     -1.958854     0.000583    Cartesian   -0.03
   1111 z          1.959436      1.958905    -0.000532    Cartesian   -0.03
--------------------------------------------------------------------------------


  Time to end of optimisation  =      199.3531 seconds


  Peak dynamic memory used =    1202.76 MB 


  Timing analysis for GULP :

--------------------------------------------------------------------------------
  Task / Subroutine                                          Time (Seconds)
--------------------------------------------------------------------------------
  Calculation of reciprocal space energy and derivatives          0.0007
  Calculation of reciprocal space energy using symmetry           0.0005
  Calculation of real space energy and derivatives                0.0052
  Calculation of real space energy using symmetry                 0.0040
  Calculation for region 1 energy and derivatives (2-b)         106.4267
  Calculation for region 2a energy                               54.1954
  Calculation and manipulation of Hessian matrix                  1.0085
  Calculation of matrix inversion                                36.3192
  Symmetry generation of equivalent positions                     0.0057
--------------------------------------------------------------------------------
  Total CPU time                                                199.3531
--------------------------------------------------------------------------------


  Dump file written as Li3OCl.grs


  Job Finished at 12:34.06  1st December   2020                               

