********************************************************************************
*                       GENERAL UTILITY LATTICE PROGRAM                        *
*                                 Julian Gale                                  *
*                       Curtin Institute for Computation                       *
*                    School of Molecular and Life Sciences                     *
*                    Curtin University, Western Australia                      *
********************************************************************************
* Version = 5.2.0 * Last modified =  10th September 2020                       *
********************************************************************************
*  optimise     - perform optimisation run                                     *
*  conp         - constant pressure calculation                                *
*  property     - calculate properties for final geometry                      *
*  defect       - perform defect calculation after bulk run                    *
*  compare      - compare initial and final structures                         *
********************************************************************************

  Job Started  at 12:29.25  1st December   2020                               

  Number of CPUs =     1


  Total number of configurations input =      1

********************************************************************************
*  Input for Configuration =   1                                               *
********************************************************************************

  Formula = ClOLi3                                                      

  Number of irreducible atoms/shells =       5


  Total number atoms/shells =       7

  Dimensionality = 3               :  Bulk   


  Symmetry :

  Crystal family                   :  Cubic       
  Crystal class  (Groth - 1921)    :  Cubic Hexakisoctahedral              

  Space group (centrosymmetric)    :  P M 3 M         

  Patterson group                  :  P m -3 m 

  Cartesian lattice vectors (Angstroms) :

        3.918873    0.000000    0.000000
        0.000000    3.918873    0.000000
        0.000000    0.000000    3.918873

  Cell parameters (Angstroms/Degrees):

  a =       3.9189    alpha =  90.0000
  b =       3.9189    beta  =  90.0000
  c =       3.9189    gamma =  90.0000

  Initial cell volume =          60.184349 Angs**3

  Temperature of configuration =   0.00     K 

  Pressure of configuration =         0.000 GPa 

  Fractional coordinates of asymmetric unit :

--------------------------------------------------------------------------------
   No.  Atomic       x           y          z         Charge      Occupancy
        Label      (Frac)      (Frac)     (Frac)        (e)         (Frac)  
--------------------------------------------------------------------------------
      1 Cl    c    0.000000    0.000000    0.000000     1.48500    1.000000    
      2 O     c    0.500000    0.500000    0.500000     0.18300    1.000000    
      3 Li    c    0.500000    0.500000    0.000000     1.00000    1.000000    
      4 Cl    s    0.000000    0.000000    0.000000    -2.48500    1.000000    
      5 O     s    0.500000    0.500000    0.500000    -2.18300    1.000000    
--------------------------------------------------------------------------------


  Constraints : 

--------------------------------------------------------------------------------
  Constraint no.      Unconstrained     Constrained    Coefficient    Offset
                         Variable         Variable
--------------------------------------------------------------------------------
           1              Strain 1        Strain 2       1.00000      0.0000
           2              Strain 1        Strain 3       1.00000      0.0000
--------------------------------------------------------------------------------


********************************************************************************
*  General input information                                                   *
********************************************************************************

  Species output for all configurations : 

--------------------------------------------------------------------------------
  Species    Type    Atomic    Atomic    Charge       Radii (Angs)     Library
                     Number     Mass       (e)     Cova   Ionic  VDW   Symbol
--------------------------------------------------------------------------------
    Li       Core        3       6.94   1.000000   0.680  0.000  1.800          
    O        Core        8      16.00   0.183000   0.730  0.000  1.360          
    O        Shell       8       0.00  -2.183000   0.730  0.000  1.360          
    Cl       Core       17      35.45   1.485000   0.990  0.000  1.650          
    Cl       Shell      17       0.00  -2.485000   0.990  0.000  1.650          
    Mg       Core       12      24.31   0.415000   1.100  0.000  0.000          
    Mg       Shell      12       0.00   1.585000   1.100  0.000  0.000          
    Ca       Core       20      40.08  -1.135000   0.990  0.000  0.000          
    Ca       Shell      20       0.00   3.135000   0.990  0.000  0.000          
    Sr       Core       38      87.62  -1.251000   1.120  0.000  0.000          
    Sr       Shell      38       0.00   3.251000   1.120  0.000  0.000          
    Ba       Core       56     137.33  -7.203000   1.340  0.000  0.000          
    Ba       Shell      56       0.00   9.203000   1.340  0.000  0.000          
--------------------------------------------------------------------------------


  Lattice summation method               =    Ewald          (3-D)
                                         =    Parry          (2-D)
                                         =    Saunders et al (1-D)
  Accuracy factor for lattice sums       =   12.000


  Analytic derivatives to be used

  Time limit = Infinity

  Maximum range for interatomic potentials =    100000.000000 Angstroms

  General interatomic potentials :

--------------------------------------------------------------------------------
Atom  Types   Potential      Parameter       Value         Units   Cutoffs(Ang)
  1     2                                                            Min /  Max 
--------------------------------------------------------------------------------
O    c O    s Spring (c-s)  Spring k 2       593.71600    eV*Ang^-2 0.000  0.800
                            Spring k 4       0.0000000    eV*Ang^-4 
--------------------------------------------------------------------------------
Cl   c Cl   s Spring (c-s)  Spring k 2       29.380000    eV*Ang^-2 0.000  0.800
                            Spring k 4       0.0000000    eV*Ang^-4 
--------------------------------------------------------------------------------
Mg   c Mg   s Spring (c-s)  Spring k 2       361.60000    eV*Ang^-2 0.000  0.800
                            Spring k 4       0.0000000    eV*Ang^-4 
--------------------------------------------------------------------------------
Ca   c Ca   s Spring (c-s)  Spring k 2       110.20000    eV*Ang^-2 0.000  0.800
                            Spring k 4       0.0000000    eV*Ang^-4 
--------------------------------------------------------------------------------
Sr   c Sr   s Spring (c-s)  Spring k 2       71.700000    eV*Ang^-2 0.000  0.800
                            Spring k 4       0.0000000    eV*Ang^-4 
--------------------------------------------------------------------------------
Ba   c Ba   s Spring (c-s)  Spring k 2       495.20000    eV*Ang^-2 0.000  0.800
                            Spring k 4       0.0000000    eV*Ang^-4 
--------------------------------------------------------------------------------
Li   c Li   c Buckingham    Buckingham A     360.53000    eV        0.000 12.000
                            Buckingham rho  0.16100000    Ang       
                            Buckingham C     0.0000000    eV*Ang^6  
--------------------------------------------------------------------------------
Li   c O    s Buckingham    Buckingham A     292.30000    eV        0.000 12.000
                            Buckingham rho  0.34700000    Ang       
                            Buckingham C     0.0000000    eV*Ang^6  
--------------------------------------------------------------------------------
Li   c Cl   s Buckingham    Buckingham A     421.04000    eV        0.000 12.000
                            Buckingham rho  0.33400000    Ang       
                            Buckingham C     0.0000000    eV*Ang^6  
--------------------------------------------------------------------------------
O    s O    s Buckingham    Buckingham A     22764.300    eV        0.000 12.000
                            Buckingham rho  0.14900000    Ang       
                            Buckingham C     13.190000    eV*Ang^6  
--------------------------------------------------------------------------------
O    s Cl   s Buckingham    Buckingham A     8286.9100    eV        0.000 12.000
                            Buckingham rho  0.25900000    Ang       
                            Buckingham C     62.200000    eV*Ang^6  
--------------------------------------------------------------------------------
Cl   s Cl   s Buckingham    Buckingham A     1227.2000    eV        0.000 12.000
                            Buckingham rho  0.32100000    Ang       
                            Buckingham C     14.530000    eV*Ang^6  
--------------------------------------------------------------------------------
O    s Mg   s Buckingham    Buckingham A     1428.5000    eV        0.000 12.000
                            Buckingham rho  0.29450000    Ang       
                            Buckingham C     0.0000000    eV*Ang^6  
--------------------------------------------------------------------------------
Mg   s Cl   s Buckingham    Buckingham A     4914.5400    eV        0.000 12.000
                            Buckingham rho  0.25700000    Ang       
                            Buckingham C     0.0000000    eV*Ang^6  
--------------------------------------------------------------------------------
O    s Ca   s Buckingham    Buckingham A     1090.4000    eV        0.000 12.000
                            Buckingham rho  0.34370000    Ang       
                            Buckingham C     0.0000000    eV*Ang^6  
--------------------------------------------------------------------------------
Cl   s Ca   s Buckingham    Buckingham A     2302.0000    eV        0.000 12.000
                            Buckingham rho  0.34020000    Ang       
                            Buckingham C     0.0000000    eV*Ang^6  
--------------------------------------------------------------------------------
O    s Sr   s Buckingham    Buckingham A     959.10000    eV        0.000 12.000
                            Buckingham rho  0.37210000    Ang       
                            Buckingham C     0.0000000    eV*Ang^6  
--------------------------------------------------------------------------------
Cl   s Sr   s Buckingham    Buckingham A     2191.0900    eV        0.000 12.000
                            Buckingham rho  0.34570000    Ang       
                            Buckingham C     0.0000000    eV*Ang^6  
--------------------------------------------------------------------------------
O    s Ba   s Buckingham    Buckingham A     905.70000    eV        0.000 12.000
                            Buckingham rho  0.39760000    Ang       
                            Buckingham C     0.0000000    eV*Ang^6  
--------------------------------------------------------------------------------
Cl   s Ba   s Buckingham    Buckingham A     2704.5500    eV        0.000 12.000
                            Buckingham rho  0.35280000    Ang       
                            Buckingham C     0.0000000    eV*Ang^6  
--------------------------------------------------------------------------------

********************************************************************************
*  Output for configuration   1                                                *
********************************************************************************


  Components of energy : 

--------------------------------------------------------------------------------
  Interatomic potentials     =           7.24802695 eV    
  Monopole - monopole (real) =         -11.53475722 eV    
  Monopole - monopole (recip)=         -33.94580548 eV    
  Monopole - monopole (total)=         -45.48056271 eV    
--------------------------------------------------------------------------------
  Total lattice energy       =         -38.23253575 eV    
--------------------------------------------------------------------------------
  Total lattice energy       =           -3688.8553 kJ/(mole unit cells)
--------------------------------------------------------------------------------


  Number of variables =        1

  Maximum number of calculations  =          1000
  Maximum Hessian update interval =            10
  Maximum step size               =   1.000000000
  Maximum parameter tolerance     =   0.000010000
  Maximum function  tolerance     =   0.000010000
  Maximum gradient  tolerance     =   0.001000000
  Maximum gradient  component     =   0.010000000

  Symmetry constrained optimisation

  Symmetry used for second derivatives

  Cell parameters to be optimised using strains

  Newton-Raphson optimiser to be used

  BFGS hessian update to be used

  Lower half triangular hessian to be used

  Start of bulk optimisation :

  Cycle:      0 Energy:       -38.232536  Gnorm:      0.000019  CPU:    0.017


  **** Optimisation achieved ****


  Final energy =     -38.23253575 eV
  Final Gnorm  =       0.00001878

  Components of energy : 

--------------------------------------------------------------------------------
  Interatomic potentials     =           7.24802695 eV    
  Monopole - monopole (real) =         -11.53475722 eV    
  Monopole - monopole (recip)=         -33.94580548 eV    
  Monopole - monopole (total)=         -45.48056271 eV    
--------------------------------------------------------------------------------
  Total lattice energy       =         -38.23253575 eV    
--------------------------------------------------------------------------------
  Total lattice energy       =           -3688.8553 kJ/(mole unit cells)
--------------------------------------------------------------------------------

  Final asymmetric unit coordinates :

--------------------------------------------------------------------------------
   No.  Atomic        x           y           z         Radius
        Label       (Frac)      (Frac)      (Frac)       (Angs) 
--------------------------------------------------------------------------------
     1  Cl    c     0.000000    0.000000    0.000000    0.000000
     2  O     c     0.500000    0.500000    0.500000    0.000000
     3  Li    c     0.500000    0.500000    0.000000    0.000000
     4  Cl    s     0.000000    0.000000    0.000000    0.000000
     5  O     s     0.500000    0.500000    0.500000    0.000000
--------------------------------------------------------------------------------

  Final Cartesian lattice vectors (Angstroms) :

        3.918873    0.000000    0.000000
        0.000000    3.918873    0.000000
        0.000000    0.000000    3.918873


  Final cell parameters and derivatives :

--------------------------------------------------------------------------------
       a            3.918873 Angstrom     dE/de1(xx)    -0.000019 eV/strain
       b            3.918873 Angstrom     dE/de2(yy)     0.000000 eV/strain
       c            3.918873 Angstrom     dE/de3(zz)     0.000000 eV/strain
       alpha       90.000000 Degrees      dE/de4(yz)     0.000000 eV/strain
       beta        90.000000 Degrees      dE/de5(xz)     0.000000 eV/strain
       gamma       90.000000 Degrees      dE/de6(xy)     0.000000 eV/strain
--------------------------------------------------------------------------------

  Primitive cell volume =            60.184349 Angs**3

  Density of cell =      1.994024 g/cm**3

  Non-primitive cell volume =            60.184349 Angs**3


  Final internal derivatives :

--------------------------------------------------------------------------------
   No.  Atomic          a             b             c           Radius
        Label          (eV)          (eV)          (eV)        (eV/Angs)
--------------------------------------------------------------------------------
      1 Cl    c       0.000000      0.000000      0.000000      0.000000
      2 O     c       0.000000      0.000000      0.000000      0.000000
      3 Li    c       0.000000      0.000000      0.000000      0.000000
      4 Cl    s       0.000000      0.000000      0.000000      0.000000
      5 O     s       0.000000      0.000000      0.000000      0.000000
--------------------------------------------------------------------------------
  Maximum abs         0.000000      0.000000      0.000000      0.000000
--------------------------------------------------------------------------------

  Comparison of initial and final structures : 

--------------------------------------------------------------------------------
  Parameter   Initial value   Final value   Difference    Units      Percent
--------------------------------------------------------------------------------
    Volume        60.184349     60.184349     0.000000    Angs**3      0.00
    a              3.918873      3.918873     0.000000    Angstroms    0.00
    b              3.918873      3.918873     0.000000    Angstroms    0.00
    c              3.918873      3.918873     0.000000    Angstroms    0.00
    alpha         90.000000     90.000000     0.000000    Degrees      0.00
    beta          90.000000     90.000000     0.000000    Degrees      0.00
    gamma         90.000000     90.000000     0.000000    Degrees      0.00
      1 x          0.000000      0.000000     0.000000    Fractional   0.00
      1 y          0.000000      0.000000     0.000000    Fractional   0.00
      1 z          0.000000      0.000000     0.000000    Fractional   0.00
      2 x          0.500000      0.500000     0.000000    Fractional   0.00
      2 y          0.500000      0.500000     0.000000    Fractional   0.00
      2 z          0.500000      0.500000     0.000000    Fractional   0.00
      3 x          0.500000      0.500000     0.000000    Fractional   0.00
      3 y          0.500000      0.500000     0.000000    Fractional   0.00
      3 z          0.000000      0.000000     0.000000    Fractional   0.00
      4 x          0.000000      0.000000     0.000000    Fractional   0.00
      4 y          0.000000      0.000000     0.000000    Fractional   0.00
      4 z          0.000000      0.000000     0.000000    Fractional   0.00
      5 x          0.500000      0.500000     0.000000    Fractional   0.00
      5 y          0.500000      0.500000     0.000000    Fractional   0.00
      5 z          0.500000      0.500000     0.000000    Fractional   0.00
--------------------------------------------------------------------------------


  Born effective charge tensors : 

-------------------------------------------------------------------------------
  Atom             x           y             z
-------------------------------------------------------------------------------
    1 Cl    x      -0.9481      0.0000      0.0000
            y       0.0000     -0.9481      0.0000
            z       0.0000      0.0000     -0.9481
-------------------------------------------------------------------------------
    2 O     x      -2.4696     -0.0000     -0.0000
            y      -0.0000     -2.4696     -0.0000
            z      -0.0000     -0.0000     -2.4696
-------------------------------------------------------------------------------
    3 Li    x       1.3129     -0.0000     -0.0000
            y      -0.0000      1.3129      0.0000
            z      -0.0000     -0.0000      0.7918
-------------------------------------------------------------------------------




  Elastic Constant Matrix: (Units=GPa)

-------------------------------------------------------------------------------
  Indices      1         2         3         4         5         6    
-------------------------------------------------------------------------------
       1     94.4615   45.0779   45.0779    0.0000   -0.0000    0.0000
       2     45.0779   94.4615   45.0779   -0.0000    0.0000   -0.0000
       3     45.0779   45.0779   94.4615   -0.0000   -0.0000   -0.0000
       4      0.0000   -0.0000   -0.0000   45.0779   -0.0000   -0.0000
       5     -0.0000    0.0000   -0.0000   -0.0000   45.0779   -0.0000
       6      0.0000   -0.0000   -0.0000   -0.0000   -0.0000   45.0779
-------------------------------------------------------------------------------


  Elastic Compliance Matrix: (Units=1/GPa)

-------------------------------------------------------------------------------
  Indices      1         2         3         4         5         6    
-------------------------------------------------------------------------------
       1    0.015305 -0.004944 -0.004944 -0.000000  0.000000 -0.000000
       2   -0.004944  0.015305 -0.004944  0.000000 -0.000000  0.000000
       3   -0.004944 -0.004944  0.015305  0.000000  0.000000  0.000000
       4   -0.000000  0.000000  0.000000  0.022184  0.000000  0.000000
       5    0.000000 -0.000000  0.000000  0.000000  0.022184  0.000000
       6   -0.000000  0.000000  0.000000  0.000000  0.000000  0.022184
-------------------------------------------------------------------------------

  Mechanical properties :

-------------------------------------------------------------------------------
  Convention :                    Reuss         Voigt         Hill
-------------------------------------------------------------------------------
  Bulk  Modulus (GPa)     =      61.53912      61.53912      61.53912
  Shear Modulus (GPa)     =      33.88682      36.92346      35.40514
-------------------------------------------------------------------------------
  Velocity S-wave (km/s)  =       4.12240       4.30314       4.21374
  Velocity P-wave (km/s)  =       7.31578       7.45327       7.38484
-------------------------------------------------------------------------------
  Compressibility (1/GPa) =    0.01624983
-------------------------------------------------------------------------------
  Stress axis :                     x             y             z
-------------------------------------------------------------------------------
  Youngs Moduli (GPa)     =      65.33688      65.33688      65.33688
-------------------------------------------------------------------------------
  Poissons Ratio (x)      =                     0.32305       0.32305
  Poissons Ratio (y)      =       0.32305                     0.32305
  Poissons Ratio (z)      =       0.32305       0.32305
-------------------------------------------------------------------------------


  Piezoelectric Strain Matrix: (Units=C/m**2)

-------------------------------------------------------------------------------
  Indices      1         2         3         4         5         6    
-------------------------------------------------------------------------------
       x    -0.00000   0.00000   0.00000   0.00000   0.00000   0.00000
       y    -0.00000  -0.00000  -0.00000   0.00000   0.00000  -0.00000
       z    -0.00000  -0.00000   0.00000   0.00000  -0.00000   0.00000
-------------------------------------------------------------------------------


  Piezoelectric Stress Matrix: (Units=10**-11 C/N)

-------------------------------------------------------------------------------
  Indices      1         2         3         4         5         6    
-------------------------------------------------------------------------------
       x    -0.00000   0.00000   0.00000   0.00000   0.00000   0.00000
       y     0.00000   0.00000  -0.00000   0.00000   0.00000  -0.00000
       z    -0.00000  -0.00000   0.00000   0.00000  -0.00000   0.00000
-------------------------------------------------------------------------------


  Static dielectric constant tensor : 

-------------------------------------------------------------------------------
              x         y         z
-------------------------------------------------------------------------------
       x    12.07041   0.00000   0.00000
       y     0.00000  12.07041   0.00000
       z     0.00000   0.00000  12.07041
--------------------------------------------------------------------------------

  High frequency dielectric constant tensor : 

-------------------------------------------------------------------------------
              x         y         z
-------------------------------------------------------------------------------
       x     1.74197  -0.00000  -0.00000
       y    -0.00000   1.74197  -0.00000
       z    -0.00000  -0.00000   1.74197
-------------------------------------------------------------------------------

  Static refractive indices : 

-------------------------------------------------------------------------------
    1 =    3.47425      2 =    3.47425      3 =    3.47425
-------------------------------------------------------------------------------

  High frequency refractive indices : 

-------------------------------------------------------------------------------
    1 =    1.31984      2 =    1.31984      3 =    1.31984
-------------------------------------------------------------------------------


  Time to end of optimisation =       0.0245 seconds

********************************************************************************
*  Defect calculation for configuration   1 :                                  *
********************************************************************************

  Total number of defects =      1

  Total charge on defect  =  -1.00

  Defect centre is at   0.5000   0.5000   0.0000  Frac

  Region 1 radius =  16.0000      Number of ions =   2032

  Number of symmetry inequivalent region 1 ions  =    194

  Region 2 radius =  20.0000      Number of ions =   1870

  Number of symmetry inequivalent region 2a ions =    153

  Region 2a mode = 4 : screened electrostatics due to region 1 
                       neglect correction to region 1 forces from 2a
                       region 2a displacements based on defects only

  Region 2a ions will only interact with defects in region 1

  Vacancies:

--------------------------------------------------------------------------------
    Specification type     Symbol/Number         x          y          z
--------------------------------------------------------------------------------
    Fractional                               0.500000   0.500000   0.000000
--------------------------------------------------------------------------------


  Symmetry reduced region 1 (Relative to defect centre) :

--------------------------------------------------------------------------------
   No.   Atomic       x            y             z       Radius  Multiplicity   
         Label      (Angs)       (Angs)        (Angs)    (Angs)     
--------------------------------------------------------------------------------
     1  O     c      0.0000       0.0000      -1.9594 *  0.0000     2          
     2  Cl    c      1.9594 *     1.9594       0.0000    0.0000     4          
     3  Li    c      1.9594 *     0.0000      -1.9594 *  0.0000     8          
     4  Li    c      0.0000       0.0000       3.9189 *  0.0000     2          
     5  Li    c      0.0000       3.9189 *     0.0000    0.0000     4          
     6  O     c      0.0000       3.9189 *    -1.9594 *  0.0000     8          
     7  Cl    c      1.9594 *     1.9594       3.9189 *  0.0000     8          
     8  Li    c      1.9594 *     3.9189 *    -1.9594 *  0.0000    16          
     9  Li    c      0.0000       3.9189 *     3.9189 *  0.0000     8          
    10  Li    c      3.9189 *     3.9189       0.0000    0.0000     4          
    11  O     c      0.0000       0.0000       5.8783 *  0.0000     2          
    12  O     c      3.9189 *     3.9189      -1.9594 *  0.0000     8          
    13  Cl    c      1.9594 *     5.8783 *     0.0000    0.0000     8          
    14  Li    c      1.9594 *     0.0000       5.8783 *  0.0000     8          
    15  Li    c      5.8783 *     0.0000      -1.9594 *  0.0000     8          
    16  Li    c      3.9189 *     3.9189       3.9189 *  0.0000     8          
    17  O     c      0.0000       3.9189 *     5.8783 *  0.0000     8          
    18  Cl    c      1.9594 *     5.8783 *     3.9189 *  0.0000    16          
    19  Li    c      1.9594 *     3.9189 *     5.8783 *  0.0000    16          
    20  Li    c      5.8783 *     3.9189 *    -1.9594 *  0.0000    16          
    21  Li    c      0.0000       7.8377 *     0.0000    0.0000     4          
    22  Li    c      0.0000       0.0000       7.8377 *  0.0000     2          
    23  O     c      0.0000       7.8377 *    -1.9594 *  0.0000     8          
    24  O     c      3.9189 *     3.9189       5.8783 *  0.0000     8          
    25  Li    c      1.9594 *     7.8377 *    -1.9594 *  0.0000    16          
    26  Cl    c      1.9594 *     1.9594       7.8377 *  0.0000     8          
    27  Cl    c      5.8783 *     5.8783       0.0000    0.0000     4          
    28  Li    c      5.8783 *     0.0000       5.8783 *  0.0000     8          
    29  Li    c      0.0000       7.8377 *     3.9189 *  0.0000     8          
    30  Li    c      3.9189 *     7.8377 *     0.0000    0.0000     8          
    31  Li    c      0.0000       3.9189 *     7.8377 *  0.0000     8          
    32  O     c      3.9189 *     7.8377 *    -1.9594 *  0.0000    16          
    33  Cl    c      5.8783 *     5.8783       3.9189 *  0.0000     8          
    34  Li    c      5.8783 *     3.9189 *     5.8783 *  0.0000    16          
    35  Li    c      3.9189 *     7.8377 *     3.9189 *  0.0000    16          
    36  Li    c      3.9189 *     3.9189       7.8377 *  0.0000     8          
    37  O     c      0.0000       0.0000       9.7972 *  0.0000     2          
    38  O     c      0.0000       7.8377 *     5.8783 *  0.0000     8          
    39  Cl    c      1.9594 *     5.8783 *     7.8377 *  0.0000    16          
    40  Cl    c      1.9594 *     9.7972 *     0.0000    0.0000     8          
    41  Li    c      1.9594 *     0.0000       9.7972 *  0.0000     8          
    42  Li    c      1.9594 *     7.8377 *     5.8783 *  0.0000    16          
    43  Li    c      5.8783 *     7.8377 *    -1.9594 *  0.0000    16          
    44  Li    c      9.7972 *     0.0000      -1.9594 *  0.0000     8          
    45  O     c      0.0000       3.9189 *     9.7972 *  0.0000     8          
    46  O     c      3.9189 *     7.8377 *     5.8783 *  0.0000    16          
    47  Li    c      1.9594 *     3.9189 *     9.7972 *  0.0000    16          
    48  Cl    c      1.9594 *     9.7972 *     3.9189 *  0.0000    16          
    49  Li    c      9.7972 *     3.9189 *    -1.9594 *  0.0000    16          
    50  Li    c      7.8377 *     7.8377       0.0000    0.0000     4          
    51  Li    c      0.0000       7.8377 *     7.8377 *  0.0000     8          
    52  O     c      7.8377 *     7.8377      -1.9594 *  0.0000     8          
    53  O     c      3.9189 *     3.9189       9.7972 *  0.0000     8          
    54  Cl    c      5.8783 *     5.8783       7.8377 *  0.0000     8          
    55  Cl    c      5.8783 *     9.7972 *     0.0000    0.0000     8          
    56  Li    c      5.8783 *     0.0000       9.7972 *  0.0000     8          
    57  Li    c      5.8783 *     7.8377 *     5.8783 *  0.0000    16          
    58  Li    c      9.7972 *     0.0000       5.8783 *  0.0000     8          
    59  Li    c      0.0000     -11.7566 *     0.0000    0.0000     4          
    60  Li    c      3.9189 *     7.8377 *     7.8377 *  0.0000    16          
    61  Li    c      7.8377 *     7.8377       3.9189 *  0.0000     8          
    62  Li    c      0.0000       0.0000      11.7566 *  0.0000     2          
    63  O     c      0.0000     -11.7566 *    -1.9594 *  0.0000     8          
    64  Li    c      1.9594 *   -11.7566 *    -1.9594 *  0.0000    16          
    65  Cl    c      5.8783 *     9.7972 *     3.9189 *  0.0000    16          
    66  Li    c      5.8783 *     3.9189 *     9.7972 *  0.0000    16          
    67  Li    c      9.7972 *     3.9189 *     5.8783 *  0.0000    16          
    68  Cl    c      1.9594 *     1.9594      11.7566 *  0.0000     8          
    69  Li    c      0.0000     -11.7566 *     3.9189 *  0.0000     8          
    70  Li    c      3.9189 *   -11.7566 *     0.0000    0.0000     8          
    71  Li    c      0.0000       3.9189 *    11.7566 *  0.0000     8          
    72  O     c      3.9189 *   -11.7566 *    -1.9594 *  0.0000    16          
    73  O     c      0.0000       7.8377 *     9.7972 *  0.0000     8          
    74  O     c      7.8377 *     7.8377       5.8783 *  0.0000     8          
    75  Li    c      1.9594 *     7.8377 *     9.7972 *  0.0000    16          
    76  Li    c      9.7972 *     7.8377 *    -1.9594 *  0.0000    16          
    77  Cl    c      1.9594 *     9.7972 *     7.8377 *  0.0000    16          
    78  Li    c      3.9189 *   -11.7566 *     3.9189 *  0.0000    16          
    79  Li    c      3.9189 *     3.9189      11.7566 *  0.0000     8          
    80  O     c      0.0000     -11.7566 *     5.8783 *  0.0000     8          
    81  O     c      3.9189 *     7.8377 *     9.7972 *  0.0000    16          
    82  Li    c      1.9594 *   -11.7566 *     5.8783 *  0.0000    16          
    83  Li    c      5.8783 *   -11.7566 *    -1.9594 *  0.0000    16          
    84  Cl    c      1.9594 *     5.8783 *    11.7566 *  0.0000    16          
    85  Li    c      7.8377 *     7.8377       7.8377 *  0.0000     8          
    86  O     c      3.9189 *   -11.7566 *     5.8783 *  0.0000    16          
    87  O     c      0.0000       0.0000      13.7161 *  0.0000     2          
    88  Cl    c      1.9594 *   -13.7161 *     0.0000    0.0000     8          
    89  Li    c    -13.7161 *     0.0000      -1.9594 *  0.0000     8          
    90  Cl    c      9.7972 *     9.7972       0.0000    0.0000     4          
    91  Li    c      1.9594 *     0.0000      13.7161 *  0.0000     8          
    92  Li    c      5.8783 *     7.8377 *     9.7972 *  0.0000    16          
    93  Li    c      9.7972 *     0.0000       9.7972 *  0.0000     8          
    94  Li    c      9.7972 *     7.8377 *     5.8783 *  0.0000    16          
    95  Cl    c      5.8783 *     9.7972 *     7.8377 *  0.0000    16          
    96  Li    c      7.8377 *   -11.7566 *     0.0000    0.0000     8          
    97  Li    c      0.0000     -11.7566 *     7.8377 *  0.0000     8          
    98  Li    c      0.0000       7.8377 *    11.7566 *  0.0000     8          
    99  O     c      7.8377 *   -11.7566 *    -1.9594 *  0.0000    16          
   100  O     c      0.0000       3.9189 *    13.7161 *  0.0000     8          
   101  Cl    c      1.9594 *   -13.7161 *     3.9189 *  0.0000    16          
   102  Li    c    -13.7161 *     3.9189 *    -1.9594 *  0.0000    16          
   103  Li    c      5.8783 *   -11.7566 *     5.8783 *  0.0000    16          
   104  Cl    c      9.7972 *     9.7972       3.9189 *  0.0000     8          
   105  Li    c      9.7972 *     3.9189 *     9.7972 *  0.0000    16          
   106  Li    c      1.9594 *     3.9189 *    13.7161 *  0.0000    16          
   107  Cl    c      5.8783 *     5.8783      11.7566 *  0.0000     8          
   108  Li    c      7.8377 *   -11.7566 *     3.9189 *  0.0000    16          
   109  Li    c      3.9189 *   -11.7566 *     7.8377 *  0.0000    16          
   110  Li    c      3.9189 *     7.8377 *    11.7566 *  0.0000    16          
   111  O     c      7.8377 *     7.8377       9.7972 *  0.0000     8          
   112  O     c      3.9189 *     3.9189      13.7161 *  0.0000     8          
   113  Cl    c      5.8783 *   -13.7161 *     0.0000    0.0000     8          
   114  Li    c    -13.7161 *     0.0000       5.8783 *  0.0000     8          
   115  Li    c      5.8783 *     0.0000      13.7161 *  0.0000     8          
   116  O     c      0.0000     -11.7566 *     9.7972 *  0.0000     8          
   117  O     c      7.8377 *   -11.7566 *     5.8783 *  0.0000    16          
   118  Cl    c      5.8783 *   -13.7161 *     3.9189 *  0.0000    16          
   119  Li    c      9.7972 *   -11.7566 *    -1.9594 *  0.0000    16          
   120  Li    c    -13.7161 *     3.9189 *     5.8783 *  0.0000    16          
   121  Li    c      1.9594 *   -11.7566 *     9.7972 *  0.0000    16          
   122  Cl    c      1.9594 *     9.7972 *    11.7566 *  0.0000    16          
   123  Li    c      5.8783 *     3.9189 *    13.7161 *  0.0000    16          
   124  Li    c      0.0000       0.0000      15.6755 *  0.0000     2          
   125  Li    c      0.0000      15.6755 *     0.0000    0.0000     4          
   126  O     c      3.9189 *   -11.7566 *     9.7972 *  0.0000    16          
   127  O     c      0.0000       7.8377 *    13.7161 *  0.0000     8          
   128  O     c      0.0000      15.6755 *    -1.9594 *  0.0000     8          
   129  Li    c    -13.7161 *     7.8377 *    -1.9594 *  0.0000    16          
   130  Cl    c      1.9594 *   -13.7161 *     7.8377 *  0.0000    16          
   131  Li    c      1.9594 *     7.8377 *    13.7161 *  0.0000    16          
   132  Li    c      9.7972 *     7.8377 *     9.7972 *  0.0000    16          
   133  Cl    c      9.7972 *     9.7972       7.8377 *  0.0000     8          
   134  Li    c      1.9594 *    15.6755 *    -1.9594 *  0.0000    16          
   135  Cl    c      1.9594 *     1.9594      15.6755 *  0.0000     8          
   136  O     s      0.0000       0.0000      -1.9594 *  0.0000     2          
   137  Cl    s      1.9594 *     1.9594       0.0000    0.0000     4          
   138  O     s      0.0000       3.9189 *    -1.9594 *  0.0000     8          
   139  Cl    s      1.9594 *     1.9594       3.9189 *  0.0000     8          
   140  O     s      0.0000       0.0000       5.8783 *  0.0000     2          
   141  O     s      3.9189 *     3.9189      -1.9594 *  0.0000     8          
   142  Cl    s      1.9594 *     5.8783 *     0.0000    0.0000     8          
   143  O     s      0.0000       3.9189 *     5.8783 *  0.0000     8          
   144  Cl    s      1.9594 *     5.8783 *     3.9189 *  0.0000    16          
   145  O     s      0.0000       7.8377 *    -1.9594 *  0.0000     8          
   146  O     s      3.9189 *     3.9189       5.8783 *  0.0000     8          
   147  Cl    s      1.9594 *     1.9594       7.8377 *  0.0000     8          
   148  Cl    s      5.8783 *     5.8783       0.0000    0.0000     4          
   149  O     s      3.9189 *     7.8377 *    -1.9594 *  0.0000    16          
   150  Cl    s      5.8783 *     5.8783       3.9189 *  0.0000     8          
   151  O     s      0.0000       0.0000       9.7972 *  0.0000     2          
   152  O     s      0.0000       7.8377 *     5.8783 *  0.0000     8          
   153  Cl    s      1.9594 *     5.8783 *     7.8377 *  0.0000    16          
   154  Cl    s      1.9594 *     9.7972 *     0.0000    0.0000     8          
   155  O     s      0.0000       3.9189 *     9.7972 *  0.0000     8          
   156  O     s      3.9189 *     7.8377 *     5.8783 *  0.0000    16          
   157  Cl    s      1.9594 *     9.7972 *     3.9189 *  0.0000    16          
   158  O     s      7.8377 *     7.8377      -1.9594 *  0.0000     8          
   159  O     s      3.9189 *     3.9189       9.7972 *  0.0000     8          
   160  Cl    s      5.8783 *     5.8783       7.8377 *  0.0000     8          
   161  Cl    s      5.8783 *     9.7972 *     0.0000    0.0000     8          
   162  O     s      0.0000     -11.7566 *    -1.9594 *  0.0000     8          
   163  Cl    s      5.8783 *     9.7972 *     3.9189 *  0.0000    16          
   164  Cl    s      1.9594 *     1.9594      11.7566 *  0.0000     8          
   165  O     s      3.9189 *   -11.7566 *    -1.9594 *  0.0000    16          
   166  O     s      0.0000       7.8377 *     9.7972 *  0.0000     8          
   167  O     s      7.8377 *     7.8377       5.8783 *  0.0000     8          
   168  Cl    s      1.9594 *     9.7972 *     7.8377 *  0.0000    16          
   169  O     s      0.0000     -11.7566 *     5.8783 *  0.0000     8          
   170  O     s      3.9189 *     7.8377 *     9.7972 *  0.0000    16          
   171  Cl    s      1.9594 *     5.8783 *    11.7566 *  0.0000    16          
   172  O     s      3.9189 *   -11.7566 *     5.8783 *  0.0000    16          
   173  O     s      0.0000       0.0000      13.7161 *  0.0000     2          
   174  Cl    s      1.9594 *   -13.7161 *     0.0000    0.0000     8          
   175  Cl    s      9.7972 *     9.7972       0.0000    0.0000     4          
   176  Cl    s      5.8783 *     9.7972 *     7.8377 *  0.0000    16          
   177  O     s      7.8377 *   -11.7566 *    -1.9594 *  0.0000    16          
   178  O     s      0.0000       3.9189 *    13.7161 *  0.0000     8          
   179  Cl    s      1.9594 *   -13.7161 *     3.9189 *  0.0000    16          
   180  Cl    s      9.7972 *     9.7972       3.9189 *  0.0000     8          
   181  Cl    s      5.8783 *     5.8783      11.7566 *  0.0000     8          
   182  O     s      7.8377 *     7.8377       9.7972 *  0.0000     8          
   183  O     s      3.9189 *     3.9189      13.7161 *  0.0000     8          
   184  Cl    s      5.8783 *   -13.7161 *     0.0000    0.0000     8          
   185  O     s      0.0000     -11.7566 *     9.7972 *  0.0000     8          
   186  O     s      7.8377 *   -11.7566 *     5.8783 *  0.0000    16          
   187  Cl    s      5.8783 *   -13.7161 *     3.9189 *  0.0000    16          
   188  Cl    s      1.9594 *     9.7972 *    11.7566 *  0.0000    16          
   189  O     s      3.9189 *   -11.7566 *     9.7972 *  0.0000    16          
   190  O     s      0.0000       7.8377 *    13.7161 *  0.0000     8          
   191  O     s      0.0000      15.6755 *    -1.9594 *  0.0000     8          
   192  Cl    s      1.9594 *   -13.7161 *     7.8377 *  0.0000    16          
   193  Cl    s      9.7972 *     9.7972       7.8377 *  0.0000     8          
   194  Cl    s      1.9594 *     1.9594      15.6755 *  0.0000     8          
--------------------------------------------------------------------------------


  Constraints on symmetry reduced coordinates :

--------------------------------------------------------------------------------
  Constraint no.      Unconstrained     Constrained    Coefficient    
                         Variable         Variable
--------------------------------------------------------------------------------
           1                 2 x             2 y         1.00000
           2                 7 x             7 y         1.00000
           3                10 x            10 y         1.00000
           4                12 x            12 y         1.00000
           5                16 x            16 y         1.00000
           6                24 x            24 y         1.00000
           7                26 x            26 y         1.00000
           8                27 x            27 y         1.00000
           9                33 x            33 y         1.00000
          10                36 x            36 y         1.00000
          11                50 x            50 y         1.00000
          12                52 x            52 y         1.00000
          13                53 x            53 y         1.00000
          14                54 x            54 y         1.00000
          15                61 x            61 y         1.00000
          16                68 x            68 y         1.00000
          17                74 x            74 y         1.00000
          18                79 x            79 y         1.00000
          19                85 x            85 y         1.00000
          20                90 x            90 y         1.00000
          21               104 x           104 y         1.00000
          22               107 x           107 y         1.00000
          23               111 x           111 y         1.00000
          24               112 x           112 y         1.00000
          25               133 x           133 y         1.00000
          26               135 x           135 y         1.00000
          27               137 x           137 y         1.00000
          28               139 x           139 y         1.00000
          29               141 x           141 y         1.00000
          30               146 x           146 y         1.00000
          31               147 x           147 y         1.00000
          32               148 x           148 y         1.00000
          33               150 x           150 y         1.00000
          34               158 x           158 y         1.00000
          35               159 x           159 y         1.00000
          36               160 x           160 y         1.00000
          37               164 x           164 y         1.00000
          38               167 x           167 y         1.00000
          39               175 x           175 y         1.00000
          40               180 x           180 y         1.00000
          41               181 x           181 y         1.00000
          42               182 x           182 y         1.00000
          43               183 x           183 y         1.00000
          44               193 x           193 y         1.00000
          45               194 x           194 y         1.00000
--------------------------------------------------------------------------------


  Components of defect energy : 

--------------------------------------------------------------------------------
  Region 1 - region 1                   =     26.40928197 eV
  Region 1 - region 2a (unrelaxed)      =    -17.04107155 eV
  Region 1 - 2a (relaxed - correction)  =     -0.15916300 eV
  Region 1 (Total)                      =      9.20904741 eV
  Region 2a                             =      0.07957586 eV
  Region 2b                             =     -0.33005010 eV
--------------------------------------------------------------------------------
  Total defect energy                   =      8.95857317 eV
--------------------------------------------------------------------------------

  Largest displacement in region 2 =   0.0049 Angstroms


  Number of variables =      439

  Maximum number of calculations  =        1000
  Maximum Hessian update interval =          10
  Maximum step size               =   1.0000000
  Maximum parameter tolerance     =   0.0000100
  Maximum function  tolerance     =   0.0000100
  Maximum gradient  tolerance     =   0.0010000

  Symmetry adapted optimisation

  Symmetry to be used for second derivatives

  Newton-Raphson optimiser to be used

  BFGS hessian update to be used

  Lower half triangular hessian to be used

  Start of defect optimisation :

  Cycle:      0 Defect Energy:   8.958573  Gnorm:     0.120335  CPU:   10.953
  ** Hessian calculated **
  Cycle:      1 Defect Energy:   5.075178  Gnorm:     0.004435  CPU:   20.322
  Cycle:      2 Defect Energy:   5.051828  Gnorm:     0.002942  CPU:   22.028
  Cycle:      3 Defect Energy:   5.043715  Gnorm:     0.002009  CPU:   23.826
  Cycle:      4 Defect Energy:   5.039867  Gnorm:     0.001330  CPU:   25.077
  Cycle:      5 Defect Energy:   5.038163  Gnorm:     0.000916  CPU:   26.748
  Cycle:      6 Defect Energy:   5.037391  Gnorm:     0.000632  CPU:   28.446
  Cycle:      7 Defect Energy:   5.037026  Gnorm:     0.000442  CPU:   30.257
  Cycle:      8 Defect Energy:   5.036861  Gnorm:     0.000309  CPU:   31.403
  Cycle:      9 Defect Energy:   5.036778  Gnorm:     0.000216  CPU:   33.022
  Cycle:     10 Defect Energy:   5.036739  Gnorm:     0.000152  CPU:   34.653
  ** Hessian calculated **
  Cycle:     11 Defect Energy:   5.036721  Gnorm:     0.000106  CPU:   38.657
  Cycle:     12 Defect Energy:   5.036714  Gnorm:     0.000074  CPU:   40.204
  Cycle:     13 Defect Energy:   5.036711  Gnorm:     0.000052  CPU:   41.611
  Cycle:     14 Defect Energy:   5.036709  Gnorm:     0.000036  CPU:   43.043


  **** Optimisation achieved ****


  Final defect energy  =        5.03670922
  Final defect Gnorm   =        0.00002547

  Components of defect energy : 

--------------------------------------------------------------------------------
  Region 1 - region 1                   =     22.67580568 eV
  Region 1 - region 2a (unrelaxed)      =    -17.24509056 eV
  Region 1 - 2a (relaxed - correction)  =     -0.12791191 eV
  Region 1 (Total)                      =      5.30280321 eV
  Region 2a                             =      0.06395611 eV
  Region 2b                             =     -0.33005010 eV
--------------------------------------------------------------------------------
  Total defect energy                   =      5.03670922 eV
--------------------------------------------------------------------------------

  Largest displacement in region 2 =   0.0049 Angstroms

  Final coordinates of region 1 :

--------------------------------------------------------------------------------
   No.  Atomic        x           y           z          Radius      Charge
        Label       (Angs)      (Angs)      (Angs)       (Angs)       (e) 
--------------------------------------------------------------------------------
     1  O     c     1.959436    1.959436   -2.191257    0.000000    0.183000
     2  O     c     1.959436    1.959436    2.191257    0.000000    0.183000
     3  Cl    c     3.964413    3.964413    0.000000    0.000000    1.485000
     4  Cl    c     3.964413   -0.045540    0.000000    0.000000    1.485000
     5  Cl    c    -0.045540    3.964413    0.000000    0.000000    1.485000
     6  Cl    c    -0.045540   -0.045540    0.000000    0.000000    1.485000
     7  Li    c     3.800495    1.959436   -1.832136    0.000000    1.000000
     8  Li    c     3.800495    1.959436    1.832136    0.000000    1.000000
     9  Li    c     0.118378    1.959436   -1.832136    0.000000    1.000000
    10  Li    c     0.118378    1.959436    1.832136    0.000000    1.000000
    11  Li    c     1.959436    3.800495   -1.832136    0.000000    1.000000
    12  Li    c     1.959436    3.800495    1.832136    0.000000    1.000000
    13  Li    c     1.959436    0.118378   -1.832136    0.000000    1.000000
    14  Li    c     1.959436    0.118378    1.832136    0.000000    1.000000
    15  Li    c     1.959436    1.959436    3.983467    0.000000    1.000000
    16  Li    c     1.959436    1.959436   -3.983467    0.000000    1.000000
    17  Li    c     1.959436    5.866574    0.000000    0.000000    1.000000
    18  Li    c     1.959436   -1.947701    0.000000    0.000000    1.000000
    19  Li    c     5.866574    1.959436    0.000000    0.000000    1.000000
    20  Li    c    -1.947701    1.959436    0.000000    0.000000    1.000000
    21  O     c     1.959436    5.860842   -1.948559    0.000000    0.183000
    22  O     c     1.959436    5.860842    1.948559    0.000000    0.183000
    23  O     c     1.959436   -1.941969   -1.948559    0.000000    0.183000
    24  O     c     1.959436   -1.941969    1.948559    0.000000    0.183000
    25  O     c     5.860842    1.959436   -1.948559    0.000000    0.183000
    26  O     c     5.860842    1.959436    1.948559    0.000000    0.183000
    27  O     c    -1.941969    1.959436   -1.948559    0.000000    0.183000
    28  O     c    -1.941969    1.959436    1.948559    0.000000    0.183000
    29  Cl    c     3.961199    3.961199    3.971134    0.000000    1.485000
    30  Cl    c     3.961199    3.961199   -3.971134    0.000000    1.485000
    31  Cl    c     3.961199   -0.042326    3.971134    0.000000    1.485000
    32  Cl    c     3.961199   -0.042326   -3.971134    0.000000    1.485000
    33  Cl    c    -0.042326    3.961199    3.971134    0.000000    1.485000
    34  Cl    c    -0.042326    3.961199   -3.971134    0.000000    1.485000
    35  Cl    c    -0.042326   -0.042326    3.971134    0.000000    1.485000
    36  Cl    c    -0.042326   -0.042326   -3.971134    0.000000    1.485000
    37  Li    c     3.906026    5.845633   -1.957528    0.000000    1.000000
    38  Li    c     3.906026    5.845633    1.957528    0.000000    1.000000
    39  Li    c     3.906026   -1.926760   -1.957528    0.000000    1.000000
    40  Li    c     3.906026   -1.926760    1.957528    0.000000    1.000000
    41  Li    c     0.012847    5.845633   -1.957528    0.000000    1.000000
    42  Li    c     0.012847    5.845633    1.957528    0.000000    1.000000
    43  Li    c     0.012847   -1.926760   -1.957528    0.000000    1.000000
    44  Li    c     0.012847   -1.926760    1.957528    0.000000    1.000000
    45  Li    c     5.845633    3.906026   -1.957528    0.000000    1.000000
    46  Li    c     5.845633    3.906026    1.957528    0.000000    1.000000
    47  Li    c     5.845633    0.012847   -1.957528    0.000000    1.000000
    48  Li    c     5.845633    0.012847    1.957528    0.000000    1.000000
    49  Li    c    -1.926760    3.906026   -1.957528    0.000000    1.000000
    50  Li    c    -1.926760    3.906026    1.957528    0.000000    1.000000
    51  Li    c    -1.926760    0.012847   -1.957528    0.000000    1.000000
    52  Li    c    -1.926760    0.012847    1.957528    0.000000    1.000000
    53  Li    c     1.959436    5.791465    3.895031    0.000000    1.000000
    54  Li    c     1.959436    5.791465   -3.895031    0.000000    1.000000
    55  Li    c     1.959436   -1.872592    3.895031    0.000000    1.000000
    56  Li    c     1.959436   -1.872592   -3.895031    0.000000    1.000000
    57  Li    c     5.791465    1.959436    3.895031    0.000000    1.000000
    58  Li    c     5.791465    1.959436   -3.895031    0.000000    1.000000
    59  Li    c    -1.872592    1.959436    3.895031    0.000000    1.000000
    60  Li    c    -1.872592    1.959436   -3.895031    0.000000    1.000000
    61  Li    c     5.860063    5.860063    0.000000    0.000000    1.000000
    62  Li    c     5.860063   -1.941190    0.000000    0.000000    1.000000
    63  Li    c    -1.941190    5.860063    0.000000    0.000000    1.000000
    64  Li    c    -1.941190   -1.941190    0.000000    0.000000    1.000000
    65  O     c     1.959436    1.959436    5.933782    0.000000    0.183000
    66  O     c     1.959436    1.959436   -5.933782    0.000000    0.183000
    67  O     c     5.881407    5.881407   -1.964341    0.000000    0.183000
    68  O     c     5.881407    5.881407    1.964341    0.000000    0.183000
    69  O     c     5.881407   -1.962534   -1.964341    0.000000    0.183000
    70  O     c     5.881407   -1.962534    1.964341    0.000000    0.183000
    71  O     c    -1.962534    5.881407   -1.964341    0.000000    0.183000
    72  O     c    -1.962534    5.881407    1.964341    0.000000    0.183000
    73  O     c    -1.962534   -1.962534   -1.964341    0.000000    0.183000
    74  O     c    -1.962534   -1.962534    1.964341    0.000000    0.183000
    75  Cl    c     3.919398    7.850253    0.000000    0.000000    1.485000
    76  Cl    c     3.919398   -3.931380    0.000000    0.000000    1.485000
    77  Cl    c     7.850253    3.919398    0.000000    0.000000    1.485000
    78  Cl    c     7.850253   -0.000525    0.000000    0.000000    1.485000
    79  Cl    c    -0.000525    7.850253    0.000000    0.000000    1.485000
    80  Cl    c    -0.000525   -3.931380    0.000000    0.000000    1.485000
    81  Cl    c    -3.931380    3.919398    0.000000    0.000000    1.485000
    82  Cl    c    -3.931380   -0.000525    0.000000    0.000000    1.485000
    83  Li    c     3.918816    1.959436    5.905640    0.000000    1.000000
    84  Li    c     3.918816    1.959436   -5.905640    0.000000    1.000000
    85  Li    c     0.000057    1.959436    5.905640    0.000000    1.000000
    86  Li    c     0.000057    1.959436   -5.905640    0.000000    1.000000
    87  Li    c     1.959436    3.918816    5.905640    0.000000    1.000000
    88  Li    c     1.959436    3.918816   -5.905640    0.000000    1.000000
    89  Li    c     1.959436    0.000057    5.905640    0.000000    1.000000
    90  Li    c     1.959436    0.000057   -5.905640    0.000000    1.000000
    91  Li    c     7.816651    1.959436   -1.970914    0.000000    1.000000
    92  Li    c     7.816651    1.959436    1.970914    0.000000    1.000000
    93  Li    c    -3.897778    1.959436   -1.970914    0.000000    1.000000
    94  Li    c    -3.897778    1.959436    1.970914    0.000000    1.000000
    95  Li    c     1.959436    7.816651   -1.970914    0.000000    1.000000
    96  Li    c     1.959436    7.816651    1.970914    0.000000    1.000000
    97  Li    c     1.959436   -3.897778   -1.970914    0.000000    1.000000
    98  Li    c     1.959436   -3.897778    1.970914    0.000000    1.000000
    99  Li    c     5.866867    5.866867    3.918503    0.000000    1.000000
   100  Li    c     5.866867    5.866867   -3.918503    0.000000    1.000000
   101  Li    c     5.866867   -1.947994    3.918503    0.000000    1.000000
   102  Li    c     5.866867   -1.947994   -3.918503    0.000000    1.000000
   103  Li    c    -1.947994    5.866867    3.918503    0.000000    1.000000
   104  Li    c    -1.947994    5.866867   -3.918503    0.000000    1.000000
   105  Li    c    -1.947994   -1.947994    3.918503    0.000000    1.000000
   106  Li    c    -1.947994   -1.947994   -3.918503    0.000000    1.000000
   107  O     c     1.959436    5.872568    5.886955    0.000000    0.183000
   108  O     c     1.959436    5.872568   -5.886955    0.000000    0.183000
   109  O     c     1.959436   -1.953695    5.886955    0.000000    0.183000
   110  O     c     1.959436   -1.953695   -5.886955    0.000000    0.183000
   111  O     c     5.872568    1.959436    5.886955    0.000000    0.183000
   112  O     c     5.872568    1.959436   -5.886955    0.000000    0.183000
   113  O     c    -1.953695    1.959436    5.886955    0.000000    0.183000
   114  O     c    -1.953695    1.959436   -5.886955    0.000000    0.183000
   115  Cl    c     3.918733    7.845023    3.922244    0.000000    1.485000
   116  Cl    c     3.918733    7.845023   -3.922244    0.000000    1.485000
   117  Cl    c     3.918733   -3.926150    3.922244    0.000000    1.485000
   118  Cl    c     3.918733   -3.926150   -3.922244    0.000000    1.485000
   119  Cl    c     7.845023    3.918733    3.922244    0.000000    1.485000
   120  Cl    c     7.845023    3.918733   -3.922244    0.000000    1.485000
   121  Cl    c     7.845023    0.000140    3.922244    0.000000    1.485000
   122  Cl    c     7.845023    0.000140   -3.922244    0.000000    1.485000
   123  Cl    c     0.000140    7.845023    3.922244    0.000000    1.485000
   124  Cl    c     0.000140    7.845023   -3.922244    0.000000    1.485000
   125  Cl    c     0.000140   -3.926150    3.922244    0.000000    1.485000
   126  Cl    c     0.000140   -3.926150   -3.922244    0.000000    1.485000
   127  Cl    c    -3.926150    3.918733    3.922244    0.000000    1.485000
   128  Cl    c    -3.926150    3.918733   -3.922244    0.000000    1.485000
   129  Cl    c    -3.926150    0.000140    3.922244    0.000000    1.485000
   130  Cl    c    -3.926150    0.000140   -3.922244    0.000000    1.485000
   131  Li    c     3.919228    5.868830    5.863901    0.000000    1.000000
   132  Li    c     3.919228    5.868830   -5.863901    0.000000    1.000000
   133  Li    c     3.919228   -1.949957    5.863901    0.000000    1.000000
   134  Li    c     3.919228   -1.949957   -5.863901    0.000000    1.000000
   135  Li    c    -0.000355    5.868830    5.863901    0.000000    1.000000
   136  Li    c    -0.000355    5.868830   -5.863901    0.000000    1.000000
   137  Li    c    -0.000355   -1.949957    5.863901    0.000000    1.000000
   138  Li    c    -0.000355   -1.949957   -5.863901    0.000000    1.000000
   139  Li    c     5.868830    3.919228    5.863901    0.000000    1.000000
   140  Li    c     5.868830    3.919228   -5.863901    0.000000    1.000000
   141  Li    c     5.868830   -0.000355    5.863901    0.000000    1.000000
   142  Li    c     5.868830   -0.000355   -5.863901    0.000000    1.000000
   143  Li    c    -1.949957    3.919228    5.863901    0.000000    1.000000
   144  Li    c    -1.949957    3.919228   -5.863901    0.000000    1.000000
   145  Li    c    -1.949957   -0.000355    5.863901    0.000000    1.000000
   146  Li    c    -1.949957   -0.000355   -5.863901    0.000000    1.000000
   147  Li    c     7.825855    5.867380   -1.958545    0.000000    1.000000
   148  Li    c     7.825855    5.867380    1.958545    0.000000    1.000000
   149  Li    c     7.825855   -1.948507   -1.958545    0.000000    1.000000
   150  Li    c     7.825855   -1.948507    1.958545    0.000000    1.000000
   151  Li    c    -3.906982    5.867380   -1.958545    0.000000    1.000000
   152  Li    c    -3.906982    5.867380    1.958545    0.000000    1.000000
   153  Li    c    -3.906982   -1.948507   -1.958545    0.000000    1.000000
   154  Li    c    -3.906982   -1.948507    1.958545    0.000000    1.000000
   155  Li    c     5.867380    7.825855   -1.958545    0.000000    1.000000
   156  Li    c     5.867380    7.825855    1.958545    0.000000    1.000000
   157  Li    c     5.867380   -3.906982   -1.958545    0.000000    1.000000
   158  Li    c     5.867380   -3.906982    1.958545    0.000000    1.000000
   159  Li    c    -1.948507    7.825855   -1.958545    0.000000    1.000000
   160  Li    c    -1.948507    7.825855    1.958545    0.000000    1.000000
   161  Li    c    -1.948507   -3.906982   -1.958545    0.000000    1.000000
   162  Li    c    -1.948507   -3.906982    1.958545    0.000000    1.000000
   163  Li    c     1.959436    9.771863    0.000000    0.000000    1.000000
   164  Li    c     9.771863    1.959436    0.000000    0.000000    1.000000
   165  Li    c     1.959436   -5.852990    0.000000    0.000000    1.000000
   166  Li    c    -5.852990    1.959436    0.000000    0.000000    1.000000
   167  Li    c     1.959436    1.959436    7.860620    0.000000    1.000000
   168  Li    c     1.959436    1.959436   -7.860620    0.000000    1.000000
   169  O     c     1.959436    9.794002   -1.961265    0.000000    0.183000
   170  O     c     1.959436    9.794002    1.961265    0.000000    0.183000
   171  O     c     9.794002    1.959436   -1.961265    0.000000    0.183000
   172  O     c     9.794002    1.959436    1.961265    0.000000    0.183000
   173  O     c     1.959436   -5.875129   -1.961265    0.000000    0.183000
   174  O     c     1.959436   -5.875129    1.961265    0.000000    0.183000
   175  O     c    -5.875129    1.959436   -1.961265    0.000000    0.183000
   176  O     c    -5.875129    1.959436    1.961265    0.000000    0.183000
   177  O     c     5.889834    5.889834    5.890865    0.000000    0.183000
   178  O     c     5.889834    5.889834   -5.890865    0.000000    0.183000
   179  O     c     5.889834   -1.970961    5.890865    0.000000    0.183000
   180  O     c     5.889834   -1.970961   -5.890865    0.000000    0.183000
   181  O     c    -1.970961    5.889834    5.890865    0.000000    0.183000
   182  O     c    -1.970961    5.889834   -5.890865    0.000000    0.183000
   183  O     c    -1.970961   -1.970961    5.890865    0.000000    0.183000
   184  O     c    -1.970961   -1.970961   -5.890865    0.000000    0.183000
   185  Li    c     3.915943    9.783869   -1.957184    0.000000    1.000000
   186  Li    c     3.915943    9.783869    1.957184    0.000000    1.000000
   187  Li    c     0.002930    9.783869   -1.957184    0.000000    1.000000
   188  Li    c     0.002930    9.783869    1.957184    0.000000    1.000000
   189  Li    c     9.783869    3.915943   -1.957184    0.000000    1.000000
   190  Li    c     9.783869    3.915943    1.957184    0.000000    1.000000
   191  Li    c     9.783869    0.002930   -1.957184    0.000000    1.000000
   192  Li    c     9.783869    0.002930    1.957184    0.000000    1.000000
   193  Li    c     3.915943   -5.864996   -1.957184    0.000000    1.000000
   194  Li    c     3.915943   -5.864996    1.957184    0.000000    1.000000
   195  Li    c     0.002930   -5.864996   -1.957184    0.000000    1.000000
   196  Li    c     0.002930   -5.864996    1.957184    0.000000    1.000000
   197  Li    c    -5.864996    3.915943   -1.957184    0.000000    1.000000
   198  Li    c    -5.864996    3.915943    1.957184    0.000000    1.000000
   199  Li    c    -5.864996    0.002930   -1.957184    0.000000    1.000000
   200  Li    c    -5.864996    0.002930    1.957184    0.000000    1.000000
   201  Cl    c     3.925133    3.925133    7.862448    0.000000    1.485000
   202  Cl    c     3.925133    3.925133   -7.862448    0.000000    1.485000
   203  Cl    c     3.925133   -0.006260    7.862448    0.000000    1.485000
   204  Cl    c     3.925133   -0.006260   -7.862448    0.000000    1.485000
   205  Cl    c    -0.006260    3.925133    7.862448    0.000000    1.485000
   206  Cl    c    -0.006260    3.925133   -7.862448    0.000000    1.485000
   207  Cl    c    -0.006260   -0.006260    7.862448    0.000000    1.485000
   208  Cl    c    -0.006260   -0.006260   -7.862448    0.000000    1.485000
   209  Cl    c     7.843189    7.843189    0.000000    0.000000    1.485000
   210  Cl    c     7.843189   -3.924316    0.000000    0.000000    1.485000
   211  Cl    c    -3.924316    7.843189    0.000000    0.000000    1.485000
   212  Cl    c    -3.924316   -3.924316    0.000000    0.000000    1.485000
   213  Li    c     7.820328    1.959436    5.848094    0.000000    1.000000
   214  Li    c     7.820328    1.959436   -5.848094    0.000000    1.000000
   215  Li    c    -3.901455    1.959436    5.848094    0.000000    1.000000
   216  Li    c    -3.901455    1.959436   -5.848094    0.000000    1.000000
   217  Li    c     1.959436    7.820328    5.848094    0.000000    1.000000
   218  Li    c     1.959436    7.820328   -5.848094    0.000000    1.000000
   219  Li    c     1.959436   -3.901455    5.848094    0.000000    1.000000
   220  Li    c     1.959436   -3.901455   -5.848094    0.000000    1.000000
   221  Li    c     1.959436    9.791013    3.916028    0.000000    1.000000
   222  Li    c     1.959436    9.791013   -3.916028    0.000000    1.000000
   223  Li    c     9.791013    1.959436    3.916028    0.000000    1.000000
   224  Li    c     9.791013    1.959436   -3.916028    0.000000    1.000000
   225  Li    c     1.959436   -5.872140    3.916028    0.000000    1.000000
   226  Li    c     1.959436   -5.872140   -3.916028    0.000000    1.000000
   227  Li    c    -5.872140    1.959436    3.916028    0.000000    1.000000
   228  Li    c    -5.872140    1.959436   -3.916028    0.000000    1.000000
   229  Li    c     5.874131    9.785501    0.000000    0.000000    1.000000
   230  Li    c     9.785501    5.874131    0.000000    0.000000    1.000000
   231  Li    c     9.785501   -1.955258    0.000000    0.000000    1.000000
   232  Li    c    -1.955258    9.785501    0.000000    0.000000    1.000000
   233  Li    c     5.874131   -5.866628    0.000000    0.000000    1.000000
   234  Li    c    -1.955258   -5.866628    0.000000    0.000000    1.000000
   235  Li    c    -5.866628    5.874131    0.000000    0.000000    1.000000
   236  Li    c    -5.866628   -1.955258    0.000000    0.000000    1.000000
   237  Li    c     1.959436    5.887914    7.836886    0.000000    1.000000
   238  Li    c     1.959436    5.887914   -7.836886    0.000000    1.000000
   239  Li    c     1.959436   -1.969041    7.836886    0.000000    1.000000
   240  Li    c     1.959436   -1.969041   -7.836886    0.000000    1.000000
   241  Li    c     5.887914    1.959436    7.836886    0.000000    1.000000
   242  Li    c     5.887914    1.959436   -7.836886    0.000000    1.000000
   243  Li    c    -1.969041    1.959436    7.836886    0.000000    1.000000
   244  Li    c    -1.969041    1.959436   -7.836886    0.000000    1.000000
   245  O     c     5.878077    9.796644   -1.960487    0.000000    0.183000
   246  O     c     5.878077    9.796644    1.960487    0.000000    0.183000
   247  O     c     9.796644    5.878077   -1.960487    0.000000    0.183000
   248  O     c     9.796644    5.878077    1.960487    0.000000    0.183000
   249  O     c     9.796644   -1.959204   -1.960487    0.000000    0.183000
   250  O     c     9.796644   -1.959204    1.960487    0.000000    0.183000
   251  O     c    -1.959204    9.796644   -1.960487    0.000000    0.183000
   252  O     c    -1.959204    9.796644    1.960487    0.000000    0.183000
   253  O     c     5.878077   -5.877771   -1.960487    0.000000    0.183000
   254  O     c     5.878077   -5.877771    1.960487    0.000000    0.183000
   255  O     c    -1.959204   -5.877771   -1.960487    0.000000    0.183000
   256  O     c    -1.959204   -5.877771    1.960487    0.000000    0.183000
   257  O     c    -5.877771    5.878077   -1.960487    0.000000    0.183000
   258  O     c    -5.877771    5.878077    1.960487    0.000000    0.183000
   259  O     c    -5.877771   -1.959204   -1.960487    0.000000    0.183000
   260  O     c    -5.877771   -1.959204    1.960487    0.000000    0.183000
   261  Cl    c     7.845544    7.845544    3.923333    0.000000    1.485000
   262  Cl    c     7.845544    7.845544   -3.923333    0.000000    1.485000
   263  Cl    c     7.845544   -3.926671    3.923333    0.000000    1.485000
   264  Cl    c     7.845544   -3.926671   -3.923333    0.000000    1.485000
   265  Cl    c    -3.926671    7.845544    3.923333    0.000000    1.485000
   266  Cl    c    -3.926671    7.845544   -3.923333    0.000000    1.485000
   267  Cl    c    -3.926671   -3.926671    3.923333    0.000000    1.485000
   268  Cl    c    -3.926671   -3.926671   -3.923333    0.000000    1.485000
   269  Li    c     7.834786    5.878807    5.878242    0.000000    1.000000
   270  Li    c     7.834786    5.878807   -5.878242    0.000000    1.000000
   271  Li    c     7.834786   -1.959934    5.878242    0.000000    1.000000
   272  Li    c     7.834786   -1.959934   -5.878242    0.000000    1.000000
   273  Li    c    -3.915913    5.878807    5.878242    0.000000    1.000000
   274  Li    c    -3.915913    5.878807   -5.878242    0.000000    1.000000
   275  Li    c    -3.915913   -1.959934    5.878242    0.000000    1.000000
   276  Li    c    -3.915913   -1.959934   -5.878242    0.000000    1.000000
   277  Li    c     5.878807    7.834786    5.878242    0.000000    1.000000
   278  Li    c     5.878807    7.834786   -5.878242    0.000000    1.000000
   279  Li    c     5.878807   -3.915913    5.878242    0.000000    1.000000
   280  Li    c     5.878807   -3.915913   -5.878242    0.000000    1.000000
   281  Li    c    -1.959934    7.834786    5.878242    0.000000    1.000000
   282  Li    c    -1.959934    7.834786   -5.878242    0.000000    1.000000
   283  Li    c    -1.959934   -3.915913    5.878242    0.000000    1.000000
   284  Li    c    -1.959934   -3.915913   -5.878242    0.000000    1.000000
   285  Li    c     5.873714    9.788187    3.917456    0.000000    1.000000
   286  Li    c     5.873714    9.788187   -3.917456    0.000000    1.000000
   287  Li    c     9.788187    5.873714    3.917456    0.000000    1.000000
   288  Li    c     9.788187    5.873714   -3.917456    0.000000    1.000000
   289  Li    c     9.788187   -1.954841    3.917456    0.000000    1.000000
   290  Li    c     9.788187   -1.954841   -3.917456    0.000000    1.000000
   291  Li    c    -1.954841    9.788187    3.917456    0.000000    1.000000
   292  Li    c    -1.954841    9.788187   -3.917456    0.000000    1.000000
   293  Li    c     5.873714   -5.869314    3.917456    0.000000    1.000000
   294  Li    c     5.873714   -5.869314   -3.917456    0.000000    1.000000
   295  Li    c    -1.954841   -5.869314    3.917456    0.000000    1.000000
   296  Li    c    -1.954841   -5.869314   -3.917456    0.000000    1.000000
   297  Li    c    -5.869314    5.873714    3.917456    0.000000    1.000000
   298  Li    c    -5.869314    5.873714   -3.917456    0.000000    1.000000
   299  Li    c    -5.869314   -1.954841    3.917456    0.000000    1.000000
   300  Li    c    -5.869314   -1.954841   -3.917456    0.000000    1.000000
   301  Li    c     5.876593    5.876593    7.835872    0.000000    1.000000
   302  Li    c     5.876593    5.876593   -7.835872    0.000000    1.000000
   303  Li    c     5.876593   -1.957720    7.835872    0.000000    1.000000
   304  Li    c     5.876593   -1.957720   -7.835872    0.000000    1.000000
   305  Li    c    -1.957720    5.876593    7.835872    0.000000    1.000000
   306  Li    c    -1.957720    5.876593   -7.835872    0.000000    1.000000
   307  Li    c    -1.957720   -1.957720    7.835872    0.000000    1.000000
   308  Li    c    -1.957720   -1.957720   -7.835872    0.000000    1.000000
   309  O     c     1.959436    1.959436    9.811133    0.000000    0.183000
   310  O     c     1.959436    1.959436   -9.811133    0.000000    0.183000
   311  O     c     1.959436    9.796089    5.877602    0.000000    0.183000
   312  O     c     1.959436    9.796089   -5.877602    0.000000    0.183000
   313  O     c     9.796089    1.959436    5.877602    0.000000    0.183000
   314  O     c     9.796089    1.959436   -5.877602    0.000000    0.183000
   315  O     c     1.959436   -5.877216    5.877602    0.000000    0.183000
   316  O     c     1.959436   -5.877216   -5.877602    0.000000    0.183000
   317  O     c    -5.877216    1.959436    5.877602    0.000000    0.183000
   318  O     c    -5.877216    1.959436   -5.877602    0.000000    0.183000
   319  Cl    c     3.919331    7.843732    7.846095    0.000000    1.485000
   320  Cl    c     3.919331    7.843732   -7.846095    0.000000    1.485000
   321  Cl    c     3.919331   -3.924859    7.846095    0.000000    1.485000
   322  Cl    c     3.919331   -3.924859   -7.846095    0.000000    1.485000
   323  Cl    c     7.843732    3.919331    7.846095    0.000000    1.485000
   324  Cl    c     7.843732    3.919331   -7.846095    0.000000    1.485000
   325  Cl    c     7.843732   -0.000458    7.846095    0.000000    1.485000
   326  Cl    c     7.843732   -0.000458   -7.846095    0.000000    1.485000
   327  Cl    c    -0.000458    7.843732    7.846095    0.000000    1.485000
   328  Cl    c    -0.000458    7.843732   -7.846095    0.000000    1.485000
   329  Cl    c    -0.000458   -3.924859    7.846095    0.000000    1.485000
   330  Cl    c    -0.000458   -3.924859   -7.846095    0.000000    1.485000
   331  Cl    c    -3.924859    3.919331    7.846095    0.000000    1.485000
   332  Cl    c    -3.924859    3.919331   -7.846095    0.000000    1.485000
   333  Cl    c    -3.924859   -0.000458    7.846095    0.000000    1.485000
   334  Cl    c    -3.924859   -0.000458   -7.846095    0.000000    1.485000
   335  Cl    c     3.919219   11.761413    0.000000    0.000000    1.485000
   336  Cl    c     3.919219   -7.842540    0.000000    0.000000    1.485000
   337  Cl    c    11.761413    3.919219    0.000000    0.000000    1.485000
   338  Cl    c    11.761413   -0.000346    0.000000    0.000000    1.485000
   339  Cl    c    -0.000346   11.761413    0.000000    0.000000    1.485000
   340  Cl    c    -0.000346   -7.842540    0.000000    0.000000    1.485000
   341  Cl    c    -7.842540    3.919219    0.000000    0.000000    1.485000
   342  Cl    c    -7.842540   -0.000346    0.000000    0.000000    1.485000
   343  Li    c     3.922041    1.959436    9.799426    0.000000    1.000000
   344  Li    c     3.922041    1.959436   -9.799426    0.000000    1.000000
   345  Li    c    -0.003168    1.959436    9.799426    0.000000    1.000000
   346  Li    c    -0.003168    1.959436   -9.799426    0.000000    1.000000
   347  Li    c     1.959436    3.922041    9.799426    0.000000    1.000000
   348  Li    c     1.959436    3.922041   -9.799426    0.000000    1.000000
   349  Li    c     1.959436   -0.003168    9.799426    0.000000    1.000000
   350  Li    c     1.959436   -0.003168   -9.799426    0.000000    1.000000
   351  Li    c     3.916699    9.787013    5.875041    0.000000    1.000000
   352  Li    c     3.916699    9.787013   -5.875041    0.000000    1.000000
   353  Li    c     3.916699   -5.868140    5.875041    0.000000    1.000000
   354  Li    c     3.916699   -5.868140   -5.875041    0.000000    1.000000
   355  Li    c     0.002174    9.787013    5.875041    0.000000    1.000000
   356  Li    c     0.002174    9.787013   -5.875041    0.000000    1.000000
   357  Li    c     0.002174   -5.868140    5.875041    0.000000    1.000000
   358  Li    c     0.002174   -5.868140   -5.875041    0.000000    1.000000
   359  Li    c     9.787013    3.916699    5.875041    0.000000    1.000000
   360  Li    c     9.787013    3.916699   -5.875041    0.000000    1.000000
   361  Li    c     9.787013    0.002174    5.875041    0.000000    1.000000
   362  Li    c     9.787013    0.002174   -5.875041    0.000000    1.000000
   363  Li    c    -5.868140    3.916699    5.875041    0.000000    1.000000
   364  Li    c    -5.868140    3.916699   -5.875041    0.000000    1.000000
   365  Li    c    -5.868140    0.002174    5.875041    0.000000    1.000000
   366  Li    c    -5.868140    0.002174   -5.875041    0.000000    1.000000
   367  Li    c     7.832935    9.787590   -1.959157    0.000000    1.000000
   368  Li    c     7.832935    9.787590    1.959157    0.000000    1.000000
   369  Li    c    -3.914062    9.787590   -1.959157    0.000000    1.000000
   370  Li    c    -3.914062    9.787590    1.959157    0.000000    1.000000
   371  Li    c     9.787590    7.832935   -1.959157    0.000000    1.000000
   372  Li    c     9.787590    7.832935    1.959157    0.000000    1.000000
   373  Li    c     9.787590   -3.914062   -1.959157    0.000000    1.000000
   374  Li    c     9.787590   -3.914062    1.959157    0.000000    1.000000
   375  Li    c     7.832935   -5.868717   -1.959157    0.000000    1.000000
   376  Li    c     7.832935   -5.868717    1.959157    0.000000    1.000000
   377  Li    c    -3.914062   -5.868717   -1.959157    0.000000    1.000000
   378  Li    c    -3.914062   -5.868717    1.959157    0.000000    1.000000
   379  Li    c    -5.868717    7.832935   -1.959157    0.000000    1.000000
   380  Li    c    -5.868717    7.832935    1.959157    0.000000    1.000000
   381  Li    c    -5.868717   -3.914062   -1.959157    0.000000    1.000000
   382  Li    c    -5.868717   -3.914062    1.959157    0.000000    1.000000
   383  Li    c    11.748551    1.959436   -1.953593    0.000000    1.000000
   384  Li    c    11.748551    1.959436    1.953593    0.000000    1.000000
   385  Li    c    -7.829678    1.959436   -1.953593    0.000000    1.000000
   386  Li    c    -7.829678    1.959436    1.953593    0.000000    1.000000
   387  Li    c     1.959436   11.748551   -1.953593    0.000000    1.000000
[...]
    114 y          1.959436      1.959436     0.000000    Cartesian    0.00
    114 z          5.878309      5.875334    -0.002976    Cartesian   -0.05
    115 x          7.837746      7.837360    -0.000386    Cartesian   -0.00
    115 y          1.959436      1.959436     0.000000    Cartesian    0.00
    115 z         13.716055     13.714722    -0.001333    Cartesian   -0.01
    116 x          1.959436      1.959436     0.000000    Cartesian    0.00
    116 y         -9.797182     -9.799603    -0.002421    Cartesian    0.02
    116 z          9.797182      9.798185     0.001003    Cartesian    0.01
    117 x          9.797182      9.799145     0.001962    Cartesian    0.02
    117 y         -9.797182     -9.799680    -0.002497    Cartesian    0.03
    117 z          5.878309      5.879944     0.001634    Cartesian    0.03
    118 x          7.837746      7.839613     0.001867    Cartesian    0.02
    118 y        -11.756619    -11.761640    -0.005021    Cartesian    0.04
    118 z          3.918873      3.920072     0.001199    Cartesian    0.03
    119 x         11.756619     11.753764    -0.002855    Cartesian   -0.02
    119 y         -9.797182     -9.792372     0.004811    Cartesian   -0.05
    119 z         -1.959436     -1.958699     0.000738    Cartesian   -0.04
    120 x        -11.756619    -11.753813     0.002806    Cartesian   -0.02
    120 y          5.878309      5.876582    -0.001727    Cartesian   -0.03
    120 z          5.878309      5.876019    -0.002291    Cartesian   -0.04
    121 x          3.918873      3.918661    -0.000212    Cartesian   -0.01
    121 y         -9.797182     -9.795003     0.002179    Cartesian   -0.02
    121 z          9.797182      9.795984    -0.001199    Cartesian   -0.01
    122 x          3.918873      3.919838     0.000965    Cartesian    0.02
    122 y         11.756619     11.760820     0.004201    Cartesian    0.04
    122 z         11.756619     11.760766     0.004147    Cartesian    0.04
    123 x          7.837746      7.836686    -0.001060    Cartesian   -0.01
    123 y          5.878309      5.877369    -0.000940    Cartesian   -0.02
    123 z         13.716055     13.711701    -0.004355    Cartesian   -0.03
    124 x          1.959436      1.959436     0.000000    Cartesian    0.00
    124 y          1.959436      1.959436     0.000000    Cartesian    0.00
    124 z         15.675492     15.674522    -0.000970    Cartesian   -0.01
    125 x          1.959436      1.959436     0.000000    Cartesian    0.00
    125 y         17.634928     17.630830    -0.004099    Cartesian   -0.02
    125 z          0.000000      0.000000     0.000000    Cartesian    0.00
    126 x          5.878309      5.879870     0.001561    Cartesian    0.03
    126 y         -9.797182     -9.800391    -0.003209    Cartesian    0.03
    126 z          9.797182      9.799924     0.002741    Cartesian    0.03
    127 x          1.959436      1.959436     0.000000    Cartesian    0.00
    127 y          9.797182      9.799223     0.002040    Cartesian    0.02
    127 z         13.716055     13.718612     0.002557    Cartesian    0.02
    128 x          1.959436      1.959436     0.000000    Cartesian    0.00
    128 y         17.634928     17.636770     0.001841    Cartesian    0.01
    128 z         -1.959436     -1.960257    -0.000820    Cartesian    0.04
    129 x        -11.756619    -11.752494     0.004125    Cartesian   -0.04
    129 y          9.797182      9.792772    -0.004411    Cartesian   -0.05
    129 z         -1.959436     -1.958437     0.001000    Cartesian   -0.05
    130 x          3.918873      3.919928     0.001055    Cartesian    0.03
    130 y        -11.756619    -11.762643    -0.006024    Cartesian    0.05
    130 z          7.837746      7.840626     0.002880    Cartesian    0.04
    131 x          3.918873      3.918525    -0.000348    Cartesian   -0.01
    131 y          9.797182      9.794368    -0.002815    Cartesian   -0.03
    131 z         13.716055     13.710812    -0.005244    Cartesian   -0.04
    132 x         11.756619     11.754272    -0.002347    Cartesian   -0.02
    132 y          9.797182      9.794728    -0.002454    Cartesian   -0.03
    132 z          9.797182      9.792681    -0.004501    Cartesian   -0.05
    133 x         11.756619     11.761549     0.004930    Cartesian    0.04
    133 y         11.756619     11.761549     0.004930    Cartesian    0.04
    133 z          7.837746      7.840917     0.003171    Cartesian    0.04
    134 x          3.918873      3.918180    -0.000693    Cartesian   -0.02
    134 y         17.634928     17.628105    -0.006823    Cartesian   -0.04
    134 z         -1.959436     -1.958677     0.000760    Cartesian   -0.04
    135 x          3.918873      3.920095     0.001222    Cartesian    0.03
    135 y          3.918873      3.920095     0.001222    Cartesian    0.03
    135 z         15.675492     15.683367     0.007875    Cartesian    0.05
    136 x          1.959436      1.959436     0.000000    Cartesian    0.00
    136 y          1.959436      1.959436     0.000000    Cartesian    0.00
    136 z         -1.959436     -2.191559    -0.232123    Cartesian   11.85
    137 x          3.918873      3.978317     0.059444    Cartesian    1.52
    137 y          3.918873      3.978317     0.059444    Cartesian    1.52
    137 z          0.000000      0.000000     0.000000    Cartesian    0.00
    138 x          1.959436      1.959436     0.000000    Cartesian    0.00
    138 y          5.878309      5.860943    -0.017367    Cartesian   -0.30
    138 z         -1.959436     -1.948549     0.010887    Cartesian   -0.56
    139 x          3.918873      3.974636     0.055763    Cartesian    1.42
    139 y          3.918873      3.974636     0.055763    Cartesian    1.42
    139 z          3.918873      3.984400     0.065527    Cartesian    1.67
    140 x          1.959436      1.959436     0.000000    Cartesian    0.00
    140 y          1.959436      1.959436     0.000000    Cartesian    0.00
    140 z          5.878309      5.933792     0.055482    Cartesian    0.94
    141 x          5.878309      5.881428     0.003118    Cartesian    0.05
    141 y          5.878309      5.881428     0.003118    Cartesian    0.05
    141 z         -1.959436     -1.964349    -0.004912    Cartesian    0.25
    142 x          3.918873      3.920513     0.001640    Cartesian    0.04
    142 y          7.837746      7.855695     0.017949    Cartesian    0.23
    142 z          0.000000      0.000000     0.000000    Cartesian    0.00
    143 x          1.959436      1.959436     0.000000    Cartesian    0.00
    143 y          5.878309      5.872560    -0.005750    Cartesian   -0.10
    143 z          5.878309      5.886994     0.008685    Cartesian    0.15
    144 x          3.918873      3.920126     0.001253    Cartesian    0.03
    144 y          7.837746      7.849754     0.012008    Cartesian    0.15
    144 z          3.918873      3.923974     0.005101    Cartesian    0.13
    145 x          1.959436      1.959436     0.000000    Cartesian    0.00
    145 y          9.797182      9.794020    -0.003162    Cartesian   -0.03
    145 z         -1.959436     -1.961272    -0.001835    Cartesian    0.09
    146 x          5.878309      5.889851     0.011542    Cartesian    0.20
    146 y          5.878309      5.889851     0.011542    Cartesian    0.20
    146 z          5.878309      5.890883     0.012573    Cartesian    0.21
    147 x          3.918873      3.925613     0.006740    Cartesian    0.17
    147 y          3.918873      3.925613     0.006740    Cartesian    0.17
    147 z          7.837746      7.865920     0.028174    Cartesian    0.36
    148 x          7.837746      7.846230     0.008484    Cartesian    0.11
    148 y          7.837746      7.846230     0.008484    Cartesian    0.11
    148 z          0.000000      0.000000     0.000000    Cartesian    0.00
    149 x          5.878309      5.878082    -0.000228    Cartesian   -0.00
    149 y          9.797182      9.796657    -0.000526    Cartesian   -0.01
    149 z         -1.959436     -1.960489    -0.001053    Cartesian    0.05
    150 x          7.837746      7.848281     0.010535    Cartesian    0.13
    150 y          7.837746      7.848281     0.010535    Cartesian    0.13
    150 z          3.918873      3.924566     0.005693    Cartesian    0.15
    151 x          1.959436      1.959436     0.000000    Cartesian    0.00
    151 y          1.959436      1.959436     0.000000    Cartesian    0.00
    151 z          9.797182      9.811127     0.013944    Cartesian    0.14
    152 x          1.959436      1.959436     0.000000    Cartesian    0.00
    152 y          9.797182      9.796107    -0.001075    Cartesian   -0.01
    152 z          5.878309      5.877603    -0.000706    Cartesian   -0.01
    153 x          3.918873      3.919747     0.000874    Cartesian    0.02
    153 y          7.837746      7.845884     0.008138    Cartesian    0.10
    153 z          7.837746      7.848992     0.011246    Cartesian    0.14
    154 x          3.918873      3.919758     0.000885    Cartesian    0.02
    154 y         11.756619     11.764066     0.007447    Cartesian    0.06
    154 z          0.000000      0.000000     0.000000    Cartesian    0.00
    155 x          1.959436      1.959436     0.000000    Cartesian    0.00
    155 y          5.878309      5.882616     0.004307    Cartesian    0.07
    155 z          9.797182      9.804046     0.006863    Cartesian    0.07
    156 x          5.878309      5.879046     0.000736    Cartesian    0.01
    156 y          9.797182      9.798654     0.001471    Cartesian    0.02
    156 z          5.878309      5.880490     0.002181    Cartesian    0.04
    157 x          3.918873      3.919755     0.000882    Cartesian    0.02
    157 y         11.756619     11.763838     0.007219    Cartesian    0.06
    157 z          3.918873      3.921428     0.002555    Cartesian    0.07
    158 x          9.797182      9.797344     0.000162    Cartesian    0.00
    158 y          9.797182      9.797344     0.000162    Cartesian    0.00
    158 z         -1.959436     -1.960016    -0.000579    Cartesian    0.03
    159 x          5.878309      5.881059     0.002749    Cartesian    0.05
    159 y          5.878309      5.881059     0.002749    Cartesian    0.05
    159 z          9.797182      9.802103     0.004920    Cartesian    0.05
    160 x          7.837746      7.847409     0.009663    Cartesian    0.12
    160 y          7.837746      7.847409     0.009663    Cartesian    0.12
    160 z          7.837746      7.848063     0.010317    Cartesian    0.13
    161 x          7.837746      7.839696     0.001950    Cartesian    0.02
    161 y         11.756619     11.761672     0.005053    Cartesian    0.04
    161 z          0.000000      0.000000     0.000000    Cartesian    0.00
    162 x          1.959436      1.959436     0.000000    Cartesian    0.00
    162 y         -9.797182     -9.796953     0.000230    Cartesian   -0.00
    162 z         -1.959436     -1.959489    -0.000052    Cartesian    0.00
    163 x          7.837746      7.840872     0.003126    Cartesian    0.04
    163 y         11.756619     11.762689     0.006070    Cartesian    0.05
    163 z          3.918873      3.922162     0.003289    Cartesian    0.08
    164 x          3.918873      3.920925     0.002052    Cartesian    0.05
    164 y          3.918873      3.920925     0.002052    Cartesian    0.05
    164 z         11.756619     11.767739     0.011120    Cartesian    0.09
    165 x          5.878309      5.878595     0.000286    Cartesian    0.00
    165 y         -9.797182     -9.797170     0.000012    Cartesian   -0.00
    165 z         -1.959436     -1.959694    -0.000258    Cartesian    0.01
    166 x          1.959436      1.959436     0.000000    Cartesian    0.00
    166 y          9.797182      9.799065     0.001883    Cartesian    0.02
    166 z          9.797182      9.799916     0.002734    Cartesian    0.03
    167 x          9.797182      9.799662     0.002479    Cartesian    0.03
    167 y          9.797182      9.799662     0.002479    Cartesian    0.03
    167 z          5.878309      5.880072     0.001763    Cartesian    0.03
    168 x          3.918873      3.920191     0.001318    Cartesian    0.03
    168 y         11.756619     11.763389     0.006770    Cartesian    0.06
    168 z          7.837746      7.842552     0.004806    Cartesian    0.06
    169 x          1.959436      1.959436     0.000000    Cartesian    0.00
    169 y         -9.797182     -9.797792    -0.000610    Cartesian    0.01
    169 z          5.878309      5.879909     0.001599    Cartesian    0.03
    170 x          5.878309      5.878614     0.000305    Cartesian    0.01
    170 y          9.797182      9.799209     0.002026    Cartesian    0.02
    170 z          9.797182      9.798751     0.001568    Cartesian    0.02
    171 x          3.918873      3.919231     0.000358    Cartesian    0.01
    171 y          7.837746      7.842024     0.004278    Cartesian    0.05
    171 z         11.756619     11.764278     0.007659    Cartesian    0.07
    172 x          5.878309      5.877851    -0.000458    Cartesian   -0.01
    172 y         -9.797182     -9.798096    -0.000913    Cartesian    0.01
    172 z          5.878309      5.878687     0.000378    Cartesian    0.01
    173 x          1.959436      1.959436     0.000000    Cartesian    0.00
    173 y          1.959436      1.959436     0.000000    Cartesian    0.00
    173 z         13.716055     13.720992     0.004937    Cartesian    0.04
    174 x          3.918873      3.918273    -0.000600    Cartesian   -0.02
    174 y        -11.756619    -11.761595    -0.004976    Cartesian    0.04
    174 z          0.000000      0.000000     0.000000    Cartesian    0.00
    175 x         11.756619     11.759596     0.002977    Cartesian    0.03
    175 y         11.756619     11.759596     0.002977    Cartesian    0.03
    175 z          0.000000      0.000000     0.000000    Cartesian    0.00
    176 x          7.837746      7.840142     0.002396    Cartesian    0.03
    176 y         11.756619     11.761795     0.005176    Cartesian    0.04
    176 z          7.837746      7.840635     0.002889    Cartesian    0.04
    177 x          9.797182      9.796123    -0.001059    Cartesian   -0.01
    177 y         -9.797182     -9.796434     0.000748    Cartesian   -0.01
    177 z         -1.959436     -1.959649    -0.000212    Cartesian    0.01
    178 x          1.959436      1.959436     0.000000    Cartesian    0.00
    178 y          5.878309      5.878386     0.000076    Cartesian    0.00
    178 z         13.716055     13.719224     0.003169    Cartesian    0.02
    179 x          3.918873      3.919065     0.000192    Cartesian    0.00
    179 y        -11.756619    -11.761126    -0.004507    Cartesian    0.04
    179 z          3.918873      3.919495     0.000622    Cartesian    0.02
    180 x         11.756619     11.759993     0.003374    Cartesian    0.03
    180 y         11.756619     11.759993     0.003374    Cartesian    0.03
    180 z          3.918873      3.920300     0.001427    Cartesian    0.04
    181 x          7.837746      7.840768     0.003022    Cartesian    0.04
    181 y          7.837746      7.840768     0.003022    Cartesian    0.04
    181 z         11.756619     11.761998     0.005379    Cartesian    0.05
    182 x          9.797182      9.798916     0.001734    Cartesian    0.02
    182 y          9.797182      9.798916     0.001734    Cartesian    0.02
    182 z          9.797182      9.798011     0.000828    Cartesian    0.01
    183 x          5.878309      5.878766     0.000456    Cartesian    0.01
    183 y          5.878309      5.878766     0.000456    Cartesian    0.01
    183 z         13.716055     13.717970     0.001915    Cartesian    0.01
    184 x          7.837746      7.839778     0.002032    Cartesian    0.03
    184 y        -11.756619    -11.761962    -0.005343    Cartesian    0.05
    184 z          0.000000      0.000000     0.000000    Cartesian    0.00
    185 x          1.959436      1.959436     0.000000    Cartesian    0.00
    185 y         -9.797182     -9.799609    -0.002426    Cartesian    0.02
    185 z          9.797182      9.798186     0.001004    Cartesian    0.01
    186 x          9.797182      9.799149     0.001966    Cartesian    0.02
    186 y         -9.797182     -9.799684    -0.002502    Cartesian    0.03
    186 z          5.878309      5.879946     0.001637    Cartesian    0.03
    187 x          7.837746      7.840166     0.002420    Cartesian    0.03
    187 y        -11.756619    -11.762985    -0.006366    Cartesian    0.05
    187 z          3.918873      3.920322     0.001449    Cartesian    0.04
    188 x          3.918873      3.920089     0.001216    Cartesian    0.03
    188 y         11.756619     11.761671     0.005052    Cartesian    0.04
    188 z         11.756619     11.761878     0.005259    Cartesian    0.04
    189 x          5.878309      5.879873     0.001564    Cartesian    0.03
    189 y         -9.797182     -9.800397    -0.003214    Cartesian    0.03
    189 z          9.797182      9.799929     0.002746    Cartesian    0.03
    190 x          1.959436      1.959436     0.000000    Cartesian    0.00
    190 y          9.797182      9.799226     0.002043    Cartesian    0.02
    190 z         13.716055     13.718616     0.002560    Cartesian    0.02
    191 x          1.959436      1.959436     0.000000    Cartesian    0.00
    191 y         17.634928     17.636774     0.001845    Cartesian    0.01
    191 z         -1.959436     -1.960258    -0.000822    Cartesian    0.04
    192 x          3.918873      3.920178     0.001305    Cartesian    0.03
    192 y        -11.756619    -11.764031    -0.007412    Cartesian    0.06
    192 z          7.837746      7.841391     0.003645    Cartesian    0.05
    193 x         11.756619     11.762654     0.006035    Cartesian    0.05
    193 y         11.756619     11.762654     0.006035    Cartesian    0.05
    193 z          7.837746      7.841657     0.003911    Cartesian    0.05
    194 x          3.918873      3.920349     0.001476    Cartesian    0.04
    194 y          3.918873      3.920349     0.001476    Cartesian    0.04
    194 z         15.675492     15.684979     0.009487    Cartesian    0.06
--------------------------------------------------------------------------------


  Time to end of optimisation  =       44.6680 seconds


  Peak dynamic memory used =     692.02 MB 


  Timing analysis for GULP :

--------------------------------------------------------------------------------
  Task / Subroutine                                          Time (Seconds)
--------------------------------------------------------------------------------
  Calculation of reciprocal space energy and derivatives          0.0006
  Calculation of reciprocal space energy using symmetry           0.0004
  Calculation of real space energy and derivatives                0.0047
  Calculation of real space energy using symmetry                 0.0035
  Calculation for region 1 energy and derivatives (2-b)          30.2573
  Calculation for region 2a energy                               11.0935
  Calculation for region 2b energy                                0.0008
  Calculation and manipulation of Hessian matrix                  2.2436
  Calculation of matrix inversion                                 0.1006
  Symmetry generation of equivalent positions                     0.0059
--------------------------------------------------------------------------------
  Total CPU time                                                 44.6681
--------------------------------------------------------------------------------


  Dump file written as Li3OCl.grs


  Job Finished at 12:30.12  1st December   2020                               

