********************************************************************************
*                       GENERAL UTILITY LATTICE PROGRAM                        *
*                                 Julian Gale                                  *
*                       Curtin Institute for Computation                       *
*                    School of Molecular and Life Sciences                     *
*                    Curtin University, Western Australia                      *
********************************************************************************
* Version = 5.2.0 * Last modified =  10th September 2020                       *
********************************************************************************
*  optimise     - perform optimisation run                                     *
*  conp         - constant pressure calculation                                *
*  property     - calculate properties for final geometry                      *
*  defect       - perform defect calculation after bulk run                    *
*  compare      - compare initial and final structures                         *
********************************************************************************

  Job Started  at 12:30.13  1st December   2020                               

  Number of CPUs =     1


  Total number of configurations input =      1

********************************************************************************
*  Input for Configuration =   1                                               *
********************************************************************************

  Formula = ClOLi3                                                      

  Number of irreducible atoms/shells =       5


  Total number atoms/shells =       7

  Dimensionality = 3               :  Bulk   


  Symmetry :

  Crystal family                   :  Cubic       
  Crystal class  (Groth - 1921)    :  Cubic Hexakisoctahedral              

  Space group (centrosymmetric)    :  P M 3 M         

  Patterson group                  :  P m -3 m 

  Cartesian lattice vectors (Angstroms) :

        3.918873    0.000000    0.000000
        0.000000    3.918873    0.000000
        0.000000    0.000000    3.918873

  Cell parameters (Angstroms/Degrees):

  a =       3.9189    alpha =  90.0000
  b =       3.9189    beta  =  90.0000
  c =       3.9189    gamma =  90.0000

  Initial cell volume =          60.184349 Angs**3

  Temperature of configuration =   0.00     K 

  Pressure of configuration =         0.000 GPa 

  Fractional coordinates of asymmetric unit :

--------------------------------------------------------------------------------
   No.  Atomic       x           y          z         Charge      Occupancy
        Label      (Frac)      (Frac)     (Frac)        (e)         (Frac)  
--------------------------------------------------------------------------------
      1 Cl    c    0.000000    0.000000    0.000000     1.48500    1.000000    
      2 O     c    0.500000    0.500000    0.500000     0.18300    1.000000    
      3 Li    c    0.500000    0.500000    0.000000     1.00000    1.000000    
      4 Cl    s    0.000000    0.000000    0.000000    -2.48500    1.000000    
      5 O     s    0.500000    0.500000    0.500000    -2.18300    1.000000    
--------------------------------------------------------------------------------


  Constraints : 

--------------------------------------------------------------------------------
  Constraint no.      Unconstrained     Constrained    Coefficient    Offset
                         Variable         Variable
--------------------------------------------------------------------------------
           1              Strain 1        Strain 2       1.00000      0.0000
           2              Strain 1        Strain 3       1.00000      0.0000
--------------------------------------------------------------------------------


********************************************************************************
*  General input information                                                   *
********************************************************************************

  Species output for all configurations : 

--------------------------------------------------------------------------------
  Species    Type    Atomic    Atomic    Charge       Radii (Angs)     Library
                     Number     Mass       (e)     Cova   Ionic  VDW   Symbol
--------------------------------------------------------------------------------
    Li       Core        3       6.94   1.000000   0.680  0.000  1.800          
    O        Core        8      16.00   0.183000   0.730  0.000  1.360          
    O        Shell       8       0.00  -2.183000   0.730  0.000  1.360          
    Cl       Core       17      35.45   1.485000   0.990  0.000  1.650          
    Cl       Shell      17       0.00  -2.485000   0.990  0.000  1.650          
    Mg       Core       12      24.31   0.415000   1.100  0.000  0.000          
    Mg       Shell      12       0.00   1.585000   1.100  0.000  0.000          
    Ca       Core       20      40.08  -1.135000   0.990  0.000  0.000          
    Ca       Shell      20       0.00   3.135000   0.990  0.000  0.000          
    Sr       Core       38      87.62  -1.251000   1.120  0.000  0.000          
    Sr       Shell      38       0.00   3.251000   1.120  0.000  0.000          
    Ba       Core       56     137.33  -7.203000   1.340  0.000  0.000          
    Ba       Shell      56       0.00   9.203000   1.340  0.000  0.000          
--------------------------------------------------------------------------------


  Lattice summation method               =    Ewald          (3-D)
                                         =    Parry          (2-D)
                                         =    Saunders et al (1-D)
  Accuracy factor for lattice sums       =   12.000


  Analytic derivatives to be used

  Time limit = Infinity

  Maximum range for interatomic potentials =    100000.000000 Angstroms

  General interatomic potentials :

--------------------------------------------------------------------------------
Atom  Types   Potential      Parameter       Value         Units   Cutoffs(Ang)
  1     2                                                            Min /  Max 
--------------------------------------------------------------------------------
O    c O    s Spring (c-s)  Spring k 2       593.71600    eV*Ang^-2 0.000  0.800
                            Spring k 4       0.0000000    eV*Ang^-4 
--------------------------------------------------------------------------------
Cl   c Cl   s Spring (c-s)  Spring k 2       29.380000    eV*Ang^-2 0.000  0.800
                            Spring k 4       0.0000000    eV*Ang^-4 
--------------------------------------------------------------------------------
Mg   c Mg   s Spring (c-s)  Spring k 2       361.60000    eV*Ang^-2 0.000  0.800
                            Spring k 4       0.0000000    eV*Ang^-4 
--------------------------------------------------------------------------------
Ca   c Ca   s Spring (c-s)  Spring k 2       110.20000    eV*Ang^-2 0.000  0.800
                            Spring k 4       0.0000000    eV*Ang^-4 
--------------------------------------------------------------------------------
Sr   c Sr   s Spring (c-s)  Spring k 2       71.700000    eV*Ang^-2 0.000  0.800
                            Spring k 4       0.0000000    eV*Ang^-4 
--------------------------------------------------------------------------------
Ba   c Ba   s Spring (c-s)  Spring k 2       495.20000    eV*Ang^-2 0.000  0.800
                            Spring k 4       0.0000000    eV*Ang^-4 
--------------------------------------------------------------------------------
Li   c Li   c Buckingham    Buckingham A     360.53000    eV        0.000 12.000
                            Buckingham rho  0.16100000    Ang       
                            Buckingham C     0.0000000    eV*Ang^6  
--------------------------------------------------------------------------------
Li   c O    s Buckingham    Buckingham A     292.30000    eV        0.000 12.000
                            Buckingham rho  0.34700000    Ang       
                            Buckingham C     0.0000000    eV*Ang^6  
--------------------------------------------------------------------------------
Li   c Cl   s Buckingham    Buckingham A     421.04000    eV        0.000 12.000
                            Buckingham rho  0.33400000    Ang       
                            Buckingham C     0.0000000    eV*Ang^6  
--------------------------------------------------------------------------------
O    s O    s Buckingham    Buckingham A     22764.300    eV        0.000 12.000
                            Buckingham rho  0.14900000    Ang       
                            Buckingham C     13.190000    eV*Ang^6  
--------------------------------------------------------------------------------
O    s Cl   s Buckingham    Buckingham A     8286.9100    eV        0.000 12.000
                            Buckingham rho  0.25900000    Ang       
                            Buckingham C     62.200000    eV*Ang^6  
--------------------------------------------------------------------------------
Cl   s Cl   s Buckingham    Buckingham A     1227.2000    eV        0.000 12.000
                            Buckingham rho  0.32100000    Ang       
                            Buckingham C     14.530000    eV*Ang^6  
--------------------------------------------------------------------------------
O    s Mg   s Buckingham    Buckingham A     1428.5000    eV        0.000 12.000
                            Buckingham rho  0.29450000    Ang       
                            Buckingham C     0.0000000    eV*Ang^6  
--------------------------------------------------------------------------------
Mg   s Cl   s Buckingham    Buckingham A     4914.5400    eV        0.000 12.000
                            Buckingham rho  0.25700000    Ang       
                            Buckingham C     0.0000000    eV*Ang^6  
--------------------------------------------------------------------------------
O    s Ca   s Buckingham    Buckingham A     1090.4000    eV        0.000 12.000
                            Buckingham rho  0.34370000    Ang       
                            Buckingham C     0.0000000    eV*Ang^6  
--------------------------------------------------------------------------------
Cl   s Ca   s Buckingham    Buckingham A     2302.0000    eV        0.000 12.000
                            Buckingham rho  0.34020000    Ang       
                            Buckingham C     0.0000000    eV*Ang^6  
--------------------------------------------------------------------------------
O    s Sr   s Buckingham    Buckingham A     959.10000    eV        0.000 12.000
                            Buckingham rho  0.37210000    Ang       
                            Buckingham C     0.0000000    eV*Ang^6  
--------------------------------------------------------------------------------
Cl   s Sr   s Buckingham    Buckingham A     2191.0900    eV        0.000 12.000
                            Buckingham rho  0.34570000    Ang       
                            Buckingham C     0.0000000    eV*Ang^6  
--------------------------------------------------------------------------------
O    s Ba   s Buckingham    Buckingham A     905.70000    eV        0.000 12.000
                            Buckingham rho  0.39760000    Ang       
                            Buckingham C     0.0000000    eV*Ang^6  
--------------------------------------------------------------------------------
Cl   s Ba   s Buckingham    Buckingham A     2704.5500    eV        0.000 12.000
                            Buckingham rho  0.35280000    Ang       
                            Buckingham C     0.0000000    eV*Ang^6  
--------------------------------------------------------------------------------

********************************************************************************
*  Output for configuration   1                                                *
********************************************************************************


  Components of energy : 

--------------------------------------------------------------------------------
  Interatomic potentials     =           7.24802695 eV    
  Monopole - monopole (real) =         -11.53475722 eV    
  Monopole - monopole (recip)=         -33.94580548 eV    
  Monopole - monopole (total)=         -45.48056271 eV    
--------------------------------------------------------------------------------
  Total lattice energy       =         -38.23253575 eV    
--------------------------------------------------------------------------------
  Total lattice energy       =           -3688.8553 kJ/(mole unit cells)
--------------------------------------------------------------------------------


  Number of variables =        1

  Maximum number of calculations  =          1000
  Maximum Hessian update interval =            10
  Maximum step size               =   1.000000000
  Maximum parameter tolerance     =   0.000010000
  Maximum function  tolerance     =   0.000010000
  Maximum gradient  tolerance     =   0.001000000
  Maximum gradient  component     =   0.010000000

  Symmetry constrained optimisation

  Symmetry used for second derivatives

  Cell parameters to be optimised using strains

  Newton-Raphson optimiser to be used

  BFGS hessian update to be used

  Lower half triangular hessian to be used

  Start of bulk optimisation :

  Cycle:      0 Energy:       -38.232536  Gnorm:      0.000019  CPU:    0.015


  **** Optimisation achieved ****


  Final energy =     -38.23253575 eV
  Final Gnorm  =       0.00001878

  Components of energy : 

--------------------------------------------------------------------------------
  Interatomic potentials     =           7.24802695 eV    
  Monopole - monopole (real) =         -11.53475722 eV    
  Monopole - monopole (recip)=         -33.94580548 eV    
  Monopole - monopole (total)=         -45.48056271 eV    
--------------------------------------------------------------------------------
  Total lattice energy       =         -38.23253575 eV    
--------------------------------------------------------------------------------
  Total lattice energy       =           -3688.8553 kJ/(mole unit cells)
--------------------------------------------------------------------------------

  Final asymmetric unit coordinates :

--------------------------------------------------------------------------------
   No.  Atomic        x           y           z         Radius
        Label       (Frac)      (Frac)      (Frac)       (Angs) 
--------------------------------------------------------------------------------
     1  Cl    c     0.000000    0.000000    0.000000    0.000000
     2  O     c     0.500000    0.500000    0.500000    0.000000
     3  Li    c     0.500000    0.500000    0.000000    0.000000
     4  Cl    s     0.000000    0.000000    0.000000    0.000000
     5  O     s     0.500000    0.500000    0.500000    0.000000
--------------------------------------------------------------------------------

  Final Cartesian lattice vectors (Angstroms) :

        3.918873    0.000000    0.000000
        0.000000    3.918873    0.000000
        0.000000    0.000000    3.918873


  Final cell parameters and derivatives :

--------------------------------------------------------------------------------
       a            3.918873 Angstrom     dE/de1(xx)    -0.000019 eV/strain
       b            3.918873 Angstrom     dE/de2(yy)     0.000000 eV/strain
       c            3.918873 Angstrom     dE/de3(zz)     0.000000 eV/strain
       alpha       90.000000 Degrees      dE/de4(yz)     0.000000 eV/strain
       beta        90.000000 Degrees      dE/de5(xz)     0.000000 eV/strain
       gamma       90.000000 Degrees      dE/de6(xy)     0.000000 eV/strain
--------------------------------------------------------------------------------

  Primitive cell volume =            60.184349 Angs**3

  Density of cell =      1.994024 g/cm**3

  Non-primitive cell volume =            60.184349 Angs**3


  Final internal derivatives :

--------------------------------------------------------------------------------
   No.  Atomic          a             b             c           Radius
        Label          (eV)          (eV)          (eV)        (eV/Angs)
--------------------------------------------------------------------------------
      1 Cl    c       0.000000      0.000000      0.000000      0.000000
      2 O     c       0.000000      0.000000      0.000000      0.000000
      3 Li    c       0.000000      0.000000      0.000000      0.000000
      4 Cl    s       0.000000      0.000000      0.000000      0.000000
      5 O     s       0.000000      0.000000      0.000000      0.000000
--------------------------------------------------------------------------------
  Maximum abs         0.000000      0.000000      0.000000      0.000000
--------------------------------------------------------------------------------

  Comparison of initial and final structures : 

--------------------------------------------------------------------------------
  Parameter   Initial value   Final value   Difference    Units      Percent
--------------------------------------------------------------------------------
    Volume        60.184349     60.184349     0.000000    Angs**3      0.00
    a              3.918873      3.918873     0.000000    Angstroms    0.00
    b              3.918873      3.918873     0.000000    Angstroms    0.00
    c              3.918873      3.918873     0.000000    Angstroms    0.00
    alpha         90.000000     90.000000     0.000000    Degrees      0.00
    beta          90.000000     90.000000     0.000000    Degrees      0.00
    gamma         90.000000     90.000000     0.000000    Degrees      0.00
      1 x          0.000000      0.000000     0.000000    Fractional   0.00
      1 y          0.000000      0.000000     0.000000    Fractional   0.00
      1 z          0.000000      0.000000     0.000000    Fractional   0.00
      2 x          0.500000      0.500000     0.000000    Fractional   0.00
      2 y          0.500000      0.500000     0.000000    Fractional   0.00
      2 z          0.500000      0.500000     0.000000    Fractional   0.00
      3 x          0.500000      0.500000     0.000000    Fractional   0.00
      3 y          0.500000      0.500000     0.000000    Fractional   0.00
      3 z          0.000000      0.000000     0.000000    Fractional   0.00
      4 x          0.000000      0.000000     0.000000    Fractional   0.00
      4 y          0.000000      0.000000     0.000000    Fractional   0.00
      4 z          0.000000      0.000000     0.000000    Fractional   0.00
      5 x          0.500000      0.500000     0.000000    Fractional   0.00
      5 y          0.500000      0.500000     0.000000    Fractional   0.00
      5 z          0.500000      0.500000     0.000000    Fractional   0.00
--------------------------------------------------------------------------------


  Born effective charge tensors : 

-------------------------------------------------------------------------------
  Atom             x           y             z
-------------------------------------------------------------------------------
    1 Cl    x      -0.9481      0.0000      0.0000
            y       0.0000     -0.9481      0.0000
            z       0.0000      0.0000     -0.9481
-------------------------------------------------------------------------------
    2 O     x      -2.4696     -0.0000     -0.0000
            y      -0.0000     -2.4696     -0.0000
            z      -0.0000     -0.0000     -2.4696
-------------------------------------------------------------------------------
    3 Li    x       1.3129     -0.0000     -0.0000
            y      -0.0000      1.3129      0.0000
            z      -0.0000     -0.0000      0.7918
-------------------------------------------------------------------------------




  Elastic Constant Matrix: (Units=GPa)

-------------------------------------------------------------------------------
  Indices      1         2         3         4         5         6    
-------------------------------------------------------------------------------
       1     94.4615   45.0779   45.0779    0.0000   -0.0000    0.0000
       2     45.0779   94.4615   45.0779   -0.0000    0.0000   -0.0000
       3     45.0779   45.0779   94.4615   -0.0000   -0.0000   -0.0000
       4      0.0000   -0.0000   -0.0000   45.0779   -0.0000   -0.0000
       5     -0.0000    0.0000   -0.0000   -0.0000   45.0779   -0.0000
       6      0.0000   -0.0000   -0.0000   -0.0000   -0.0000   45.0779
-------------------------------------------------------------------------------


  Elastic Compliance Matrix: (Units=1/GPa)

-------------------------------------------------------------------------------
  Indices      1         2         3         4         5         6    
-------------------------------------------------------------------------------
       1    0.015305 -0.004944 -0.004944 -0.000000  0.000000 -0.000000
       2   -0.004944  0.015305 -0.004944  0.000000 -0.000000  0.000000
       3   -0.004944 -0.004944  0.015305  0.000000  0.000000  0.000000
       4   -0.000000  0.000000  0.000000  0.022184  0.000000  0.000000
       5    0.000000 -0.000000  0.000000  0.000000  0.022184  0.000000
       6   -0.000000  0.000000  0.000000  0.000000  0.000000  0.022184
-------------------------------------------------------------------------------

  Mechanical properties :

-------------------------------------------------------------------------------
  Convention :                    Reuss         Voigt         Hill
-------------------------------------------------------------------------------
  Bulk  Modulus (GPa)     =      61.53912      61.53912      61.53912
  Shear Modulus (GPa)     =      33.88682      36.92346      35.40514
-------------------------------------------------------------------------------
  Velocity S-wave (km/s)  =       4.12240       4.30314       4.21374
  Velocity P-wave (km/s)  =       7.31578       7.45327       7.38484
-------------------------------------------------------------------------------
  Compressibility (1/GPa) =    0.01624983
-------------------------------------------------------------------------------
  Stress axis :                     x             y             z
-------------------------------------------------------------------------------
  Youngs Moduli (GPa)     =      65.33688      65.33688      65.33688
-------------------------------------------------------------------------------
  Poissons Ratio (x)      =                     0.32305       0.32305
  Poissons Ratio (y)      =       0.32305                     0.32305
  Poissons Ratio (z)      =       0.32305       0.32305
-------------------------------------------------------------------------------


  Piezoelectric Strain Matrix: (Units=C/m**2)

-------------------------------------------------------------------------------
  Indices      1         2         3         4         5         6    
-------------------------------------------------------------------------------
       x    -0.00000   0.00000   0.00000   0.00000   0.00000   0.00000
       y    -0.00000  -0.00000  -0.00000   0.00000   0.00000  -0.00000
       z    -0.00000  -0.00000   0.00000   0.00000  -0.00000   0.00000
-------------------------------------------------------------------------------


  Piezoelectric Stress Matrix: (Units=10**-11 C/N)

-------------------------------------------------------------------------------
  Indices      1         2         3         4         5         6    
-------------------------------------------------------------------------------
       x    -0.00000   0.00000   0.00000   0.00000   0.00000   0.00000
       y     0.00000   0.00000  -0.00000   0.00000   0.00000  -0.00000
       z    -0.00000  -0.00000   0.00000   0.00000  -0.00000   0.00000
-------------------------------------------------------------------------------


  Static dielectric constant tensor : 

-------------------------------------------------------------------------------
              x         y         z
-------------------------------------------------------------------------------
       x    12.07041   0.00000   0.00000
       y     0.00000  12.07041   0.00000
       z     0.00000   0.00000  12.07041
--------------------------------------------------------------------------------

  High frequency dielectric constant tensor : 

-------------------------------------------------------------------------------
              x         y         z
-------------------------------------------------------------------------------
       x     1.74197  -0.00000  -0.00000
       y    -0.00000   1.74197  -0.00000
       z    -0.00000  -0.00000   1.74197
-------------------------------------------------------------------------------

  Static refractive indices : 

-------------------------------------------------------------------------------
    1 =    3.47425      2 =    3.47425      3 =    3.47425
-------------------------------------------------------------------------------

  High frequency refractive indices : 

-------------------------------------------------------------------------------
    1 =    1.31984      2 =    1.31984      3 =    1.31984
-------------------------------------------------------------------------------


  Time to end of optimisation =       0.0218 seconds

********************************************************************************
*  Defect calculation for configuration   1 :                                  *
********************************************************************************

  Total number of defects =      3

  Total charge on defect  =   2.00

  Defect centre is at   1.0000   1.0000   0.5000  Frac

  Region 1 radius =  16.0000      Number of ions =   2030

  Number of symmetry inequivalent region 1 ions  =    334

  Region 2 radius =  20.0000      Number of ions =   1840

  Number of symmetry inequivalent region 2a ions =    271

  Region 2a mode = 4 : screened electrostatics due to region 1 
                       neglect correction to region 1 forces from 2a
                       region 2a displacements based on defects only

  Region 2a ions will only interact with defects in region 1

  Vacancies:

--------------------------------------------------------------------------------
    Specification type     Symbol/Number         x          y          z
--------------------------------------------------------------------------------
    Fractional                               0.500000   0.500000   0.500000
    Fractional                               1.500000   1.500000   0.500000
--------------------------------------------------------------------------------

  Interstitials:

--------------------------------------------------------------------------------
    Specification type     Symbol/Number         x          y          z
--------------------------------------------------------------------------------
    Atom/Fractional         O                1.000000   1.000000   0.500000
--------------------------------------------------------------------------------


  Symmetry reduced region 1 (Relative to defect centre) :

--------------------------------------------------------------------------------
   No.   Atomic       x            y             z       Radius  Multiplicity   
         Label      (Angs)       (Angs)        (Angs)    (Angs)     
--------------------------------------------------------------------------------
     1  O     c      0.0000       0.0000       0.0000    0.0000     1    Defect
     2  Cl    c      0.0000       0.0000      -1.9594 *  0.0000     2          
     3  Li    c      0.0000 *    -1.9594 *     0.0000    0.0000     4          
     4  O     c      1.9594 *    -1.9594       0.0000    0.0000     2          
     5  Li    c      1.9594 *     1.9594       1.9594 *  0.0000     4          
     6  Li    c      1.9594 *    -1.9594       1.9594 *  0.0000     4          
     7  Cl    c      0.0000 *     3.9189 *    -1.9594 *  0.0000     8          
     8  Li    c      0.0000 *    -1.9594 *     3.9189 *  0.0000     8          
     9  Li    c      3.9189 *    -1.9594 *     0.0000    0.0000     4          
    10  Li    c      3.9189 *     1.9594 *     0.0000    0.0000     4          
    11  O     c      1.9594 *     1.9594       3.9189 *  0.0000     4          
    12  O     c      1.9594 *    -1.9594       3.9189 *  0.0000     4          
    13  Li    c      0.0000 *     5.8783 *     0.0000    0.0000     4          
    14  Cl    c      0.0000       0.0000       5.8783 *  0.0000     2          
    15  Cl    c      3.9189 *     3.9189      -1.9594 *  0.0000     4          
    16  Cl    c      3.9189 *    -3.9189      -1.9594 *  0.0000     4          
    17  Li    c      3.9189 *    -1.9594 *     3.9189 *  0.0000     8          
    18  Li    c      3.9189 *     1.9594 *     3.9189 *  0.0000     8          
    19  O     c      1.9594 *     5.8783 *     0.0000    0.0000     4          
    20  O     c      5.8783 *    -1.9594 *     0.0000    0.0000     4          
    21  Li    c      1.9594 *     5.8783 *     1.9594 *  0.0000     8          
    22  Li    c      5.8783 *    -1.9594 *     1.9594 *  0.0000     8          
    23  Li    c      1.9594 *     1.9594       5.8783 *  0.0000     4          
    24  Li    c      1.9594 *    -1.9594       5.8783 *  0.0000     4          
    25  Li    c      0.0000 *     5.8783 *     3.9189 *  0.0000     8          
    26  Li    c      3.9189 *     5.8783 *     0.0000    0.0000     4          
    27  Li    c     -3.9189 *     5.8783 *     0.0000    0.0000     4          
    28  Cl    c      0.0000 *     3.9189 *     5.8783 *  0.0000     8          
    29  O     c      1.9594 *     5.8783 *     3.9189 *  0.0000     8          
    30  O     c      5.8783 *    -1.9594 *     3.9189 *  0.0000     8          
    31  Li    c      0.0000 *    -1.9594 *     7.8377 *  0.0000     8          
    32  Li    c      3.9189 *     5.8783 *     3.9189 *  0.0000     8          
    33  Li    c     -3.9189 *     5.8783 *     3.9189 *  0.0000     8          
    34  Cl    c      0.0000 *     7.8377 *    -1.9594 *  0.0000     8          
    35  Cl    c      3.9189 *     3.9189       5.8783 *  0.0000     4          
    36  Cl    c      3.9189 *    -3.9189       5.8783 *  0.0000     4          
    37  Li    c      7.8377 *    -1.9594 *     0.0000    0.0000     4          
    38  Li    c      7.8377 *     1.9594 *     0.0000    0.0000     4          
    39  O     c      5.8783 *     5.8783       0.0000    0.0000     2          
    40  O     c      1.9594 *     1.9594       7.8377 *  0.0000     4          
    41  O     c      1.9594 *    -1.9594       7.8377 *  0.0000     4          
    42  O     c      5.8783 *    -5.8783       0.0000    0.0000     2          
    43  Li    c      1.9594 *     5.8783 *     5.8783 *  0.0000     8          
    44  Li    c      5.8783 *     5.8783       1.9594 *  0.0000     4          
    45  Li    c      5.8783 *    -1.9594 *     5.8783 *  0.0000     8          
    46  Li    c      5.8783 *    -5.8783       1.9594 *  0.0000     4          
    47  Li    c      3.9189 *    -1.9594 *     7.8377 *  0.0000     8          
    48  Li    c      3.9189 *     1.9594 *     7.8377 *  0.0000     8          
    49  Cl    c      3.9189 *     7.8377 *    -1.9594 *  0.0000     8          
    50  Cl    c      3.9189 *    -7.8377 *    -1.9594 *  0.0000     8          
    51  Li    c      7.8377 *    -1.9594 *     3.9189 *  0.0000     8          
    52  Li    c      7.8377 *     1.9594 *     3.9189 *  0.0000     8          
    53  O     c      5.8783 *     5.8783       3.9189 *  0.0000     4          
    54  O     c      5.8783 *    -5.8783       3.9189 *  0.0000     4          
    55  Li    c      0.0000 *     5.8783 *     7.8377 *  0.0000     8          
    56  Cl    c      0.0000       0.0000       9.7972 *  0.0000     2          
    57  Li    c      0.0000 *     9.7972 *     0.0000    0.0000     4          
    58  Li    c      7.8377 *     5.8783 *     0.0000    0.0000     4          
    59  Li    c     -7.8377 *     5.8783 *     0.0000    0.0000     4          
    60  Cl    c      0.0000 *     7.8377 *     5.8783 *  0.0000     8          
    61  O     c      1.9594 *     5.8783 *     7.8377 *  0.0000     8          
    62  O     c      5.8783 *    -1.9594 *     7.8377 *  0.0000     8          
    63  O     c      1.9594 *     9.7972 *     0.0000    0.0000     4          
    64  O     c      1.9594 *    -9.7972 *     0.0000    0.0000     4          
    65  Li    c      1.9594 *     1.9594       9.7972 *  0.0000     4          
    66  Li    c      1.9594 *    -1.9594       9.7972 *  0.0000     4          
    67  Li    c      5.8783 *     5.8783       5.8783 *  0.0000     4          
    68  Li    c      5.8783 *    -5.8783       5.8783 *  0.0000     4          
    69  Li    c      1.9594 *     9.7972 *     1.9594 *  0.0000     8          
    70  Li    c      1.9594 *    -9.7972 *     1.9594 *  0.0000     8          
    71  Li    c      3.9189 *     5.8783 *     7.8377 *  0.0000     8          
    72  Li    c     -3.9189 *     5.8783 *     7.8377 *  0.0000     8          
    73  Cl    c      0.0000 *     3.9189 *     9.7972 *  0.0000     8          
    74  Cl    c      3.9189 *     7.8377 *     5.8783 *  0.0000     8          
    75  Cl    c      3.9189 *    -7.8377 *     5.8783 *  0.0000     8          
    76  Li    c      0.0000 *     9.7972 *     3.9189 *  0.0000     8          
    77  Li    c      3.9189 *     9.7972 *     0.0000    0.0000     4          
    78  Li    c      3.9189 *    -9.7972 *     0.0000    0.0000     4          
    79  Li    c      7.8377 *     5.8783 *     3.9189 *  0.0000     8          
    80  Li    c     -7.8377 *     5.8783 *     3.9189 *  0.0000     8          
    81  O     c      1.9594 *     9.7972 *     3.9189 *  0.0000     8          
    82  O     c      1.9594 *    -9.7972 *     3.9189 *  0.0000     8          
    83  Li    c      7.8377 *    -1.9594 *     7.8377 *  0.0000     8          
    84  Li    c      7.8377 *     1.9594 *     7.8377 *  0.0000     8          
    85  Cl    c      3.9189 *     3.9189       9.7972 *  0.0000     4          
    86  Cl    c      3.9189 *    -3.9189       9.7972 *  0.0000     4          
    87  Li    c      3.9189 *     9.7972 *     3.9189 *  0.0000     8          
    88  Li    c      3.9189 *    -9.7972 *     3.9189 *  0.0000     8          
    89  Cl    c      7.8377 *     7.8377      -1.9594 *  0.0000     4          
    90  Cl    c      7.8377 *    -7.8377      -1.9594 *  0.0000     4          
    91  O     c      5.8783 *     5.8783       7.8377 *  0.0000     4          
    92  O     c      5.8783 *     9.7972 *     0.0000    0.0000     4          
    93  O     c      5.8783 *    -5.8783       7.8377 *  0.0000     4          
    94  O     c      5.8783 *    -9.7972 *     0.0000    0.0000     4          
    95  Li    c      1.9594 *     5.8783 *     9.7972 *  0.0000     8          
    96  Li    c      5.8783 *     9.7972 *     1.9594 *  0.0000     8          
    97  Li    c      5.8783 *    -1.9594 *     9.7972 *  0.0000     8          
    98  Li    c      5.8783 *    -9.7972 *     1.9594 *  0.0000     8          
    99  Li    c      1.9594 *     9.7972 *     5.8783 *  0.0000     8          
   100  Li    c      1.9594 *    -9.7972 *     5.8783 *  0.0000     8          
   101  Li    c      0.0000 *    -1.9594 *   -11.7566 *  0.0000     8          
   102  Cl    c      0.0000 *    11.7566 *    -1.9594 *  0.0000     8          
   103  Li    c     11.7566 *    -1.9594 *     0.0000    0.0000     4          
   104  Li    c     11.7566 *     1.9594 *     0.0000    0.0000     4          
   105  O     c      1.9594 *     1.9594     -11.7566 *  0.0000     4          
   106  O     c      1.9594 *    -1.9594     -11.7566 *  0.0000     4          
   107  O     c      5.8783 *     9.7972 *     3.9189 *  0.0000     8          
   108  O     c      5.8783 *    -9.7972 *     3.9189 *  0.0000     8          
   109  Li    c      3.9189 *    -1.9594 *   -11.7566 *  0.0000     8          
   110  Li    c      3.9189 *     1.9594 *   -11.7566 *  0.0000     8          
   111  Cl    c      0.0000 *     7.8377 *     9.7972 *  0.0000     8          
   112  Cl    c      3.9189 *    11.7566 *    -1.9594 *  0.0000     8          
   113  Cl    c      3.9189 *   -11.7566 *    -1.9594 *  0.0000     8          
   114  Li    c      0.0000 *     9.7972 *     7.8377 *  0.0000     8          
   115  Li    c      7.8377 *     5.8783 *     7.8377 *  0.0000     8          
   116  Li    c      7.8377 *     9.7972 *     0.0000    0.0000     4          
   117  Li    c      7.8377 *    -5.8783 *     7.8377 *  0.0000     8          
   118  Li    c      7.8377 *    -9.7972 *     0.0000    0.0000     4          
   119  Li    c     11.7566 *    -1.9594 *     3.9189 *  0.0000     8          
   120  Li    c     11.7566 *     1.9594 *     3.9189 *  0.0000     8          
   121  Cl    c      7.8377 *     7.8377       5.8783 *  0.0000     4          
   122  Cl    c      7.8377 *    -7.8377       5.8783 *  0.0000     4          
   123  O     c      1.9594 *     9.7972 *     7.8377 *  0.0000     8          
   124  O     c      1.9594 *    -9.7972 *     7.8377 *  0.0000     8          
   125  Li    c      5.8783 *     5.8783       9.7972 *  0.0000     4          
   126  Li    c      5.8783 *     9.7972 *     5.8783 *  0.0000     8          
   127  Li    c      5.8783 *    -9.7972 *     5.8783 *  0.0000     8          
   128  Li    c      5.8783 *    -5.8783       9.7972 *  0.0000     4          
   129  Li    c      0.0000 *     5.8783 *   -11.7566 *  0.0000     8          
   130  Cl    c      3.9189 *     7.8377 *     9.7972 *  0.0000     8          
   131  Cl    c      3.9189 *    -7.8377 *     9.7972 *  0.0000     8          
   132  Li    c      3.9189 *     9.7972 *     7.8377 *  0.0000     8          
   133  Li    c      3.9189 *    -9.7972 *     7.8377 *  0.0000     8          
   134  Li    c      7.8377 *     9.7972 *     3.9189 *  0.0000     8          
   135  Li    c      7.8377 *    -9.7972 *     3.9189 *  0.0000     8          
   136  Cl    c      0.0000 *    11.7566 *     5.8783 *  0.0000     8          
   137  Li    c     11.7566 *     5.8783 *     0.0000    0.0000     4          
   138  Li    c     11.7566 *    -5.8783 *     0.0000    0.0000     4          
   139  O     c      1.9594 *     5.8783 *   -11.7566 *  0.0000     8          
   140  O     c      1.9594 *    -5.8783 *   -11.7566 *  0.0000     8          
   141  Cl    c      0.0000       0.0000     -13.7161 *  0.0000     2          
   142  Li    c      3.9189 *     5.8783 *   -11.7566 *  0.0000     8          
   143  Li    c     -3.9189 *     5.8783 *   -11.7566 *  0.0000     8          
   144  Cl    c      3.9189 *    11.7566 *     5.8783 *  0.0000     8          
   145  Cl    c      3.9189 *   -11.7566 *     5.8783 *  0.0000     8          
   146  Li    c      0.0000 *    13.7161 *     0.0000    0.0000     4          
   147  Li    c     11.7566 *     5.8783 *     3.9189 *  0.0000     8          
   148  Li    c     11.7566 *    -5.8783 *     3.9189 *  0.0000     8          
   149  O     c      5.8783 *     9.7972 *     7.8377 *  0.0000     8          
   150  O     c      5.8783 *    -9.7972 *     7.8377 *  0.0000     8          
   151  O     c      1.9594 *    13.7161 *     0.0000    0.0000     4          
   152  O     c      1.9594 *   -13.7161 *     0.0000    0.0000     4          
   153  O     c      9.7972 *     9.7972       0.0000    0.0000     2          
   154  O     c      9.7972 *    -9.7972       0.0000    0.0000     2          
   155  Li    c      1.9594 *     1.9594     -13.7161 *  0.0000     4          
   156  Li    c      1.9594 *    -1.9594     -13.7161 *  0.0000     4          
   157  Li    c      1.9594 *     9.7972 *     9.7972 *  0.0000     8          
   158  Li    c      1.9594 *    13.7161 *     1.9594 *  0.0000     8          
   159  Li    c      1.9594 *    -9.7972 *     9.7972 *  0.0000     8          
   160  Li    c      1.9594 *   -13.7161 *     1.9594 *  0.0000     8          
   161  Li    c      9.7972 *     9.7972       1.9594 *  0.0000     4          
   162  Li    c      9.7972 *    -9.7972       1.9594 *  0.0000     4          
   163  Cl    c      0.0000 *     3.9189 *   -13.7161 *  0.0000     8          
   164  Li    c      7.8377 *    -1.9594 *   -11.7566 *  0.0000     8          
   165  Li    c      7.8377 *     1.9594 *   -11.7566 *  0.0000     8          
   166  Li    c      0.0000 *    13.7161 *     3.9189 *  0.0000     8          
   167  Li    c      3.9189 *    13.7161 *     0.0000    0.0000     4          
   168  Li    c      3.9189 *   -13.7161 *     0.0000    0.0000     4          
   169  Li    c     11.7566 *    -1.9594 *     7.8377 *  0.0000     8          
   170  Li    c     11.7566 *     1.9594 *     7.8377 *  0.0000     8          
   171  Cl    c      7.8377 *    11.7566 *    -1.9594 *  0.0000     8          
   172  Cl    c      7.8377 *   -11.7566 *    -1.9594 *  0.0000     8          
   173  O     c      5.8783 *     5.8783     -11.7566 *  0.0000     4          
   174  O     c      5.8783 *    -5.8783     -11.7566 *  0.0000     4          
   175  O     c      1.9594 *    13.7161 *     3.9189 *  0.0000     8          
   176  O     c      1.9594 *   -13.7161 *     3.9189 *  0.0000     8          
   177  O     c      9.7972 *     9.7972       3.9189 *  0.0000     4          
   178  O     c      9.7972 *    -9.7972       3.9189 *  0.0000     4          
   179  Cl    c      3.9189 *     3.9189     -13.7161 *  0.0000     4          
   180  Cl    c      3.9189 *    -3.9189     -13.7161 *  0.0000     4          
   181  Li    c      3.9189 *    13.7161 *     3.9189 *  0.0000     8          
   182  Li    c      3.9189 *   -13.7161 *     3.9189 *  0.0000     8          
   183  Li    c      7.8377 *     9.7972 *     7.8377 *  0.0000     8          
   184  Li    c      7.8377 *    -9.7972 *     7.8377 *  0.0000     8          
   185  Cl    c      7.8377 *     7.8377       9.7972 *  0.0000     4          
   186  Cl    c      7.8377 *    -7.8377       9.7972 *  0.0000     4          
   187  O     c      5.8783 *    13.7161 *     0.0000    0.0000     4          
   188  O     c      5.8783 *   -13.7161 *     0.0000    0.0000     4          
   189  Li    c      1.9594 *     5.8783 *   -13.7161 *  0.0000     8          
   190  Li    c      5.8783 *    -1.9594 *   -13.7161 *  0.0000     8          
   191  Li    c      5.8783 *     9.7972 *     9.7972 *  0.0000     8          
   192  Li    c      5.8783 *    -9.7972 *     9.7972 *  0.0000     8          
   193  Li    c      1.9594 *    13.7161 *     5.8783 *  0.0000     8          
   194  Li    c      1.9594 *   -13.7161 *     5.8783 *  0.0000     8          
   195  Li    c      5.8783 *    13.7161 *     1.9594 *  0.0000     8          
   196  Li    c      5.8783 *   -13.7161 *     1.9594 *  0.0000     8          
   197  Li    c      9.7972 *     9.7972       5.8783 *  0.0000     4          
   198  Li    c      9.7972 *    -9.7972       5.8783 *  0.0000     4          
   199  Li    c      0.0000 *     9.7972 *   -11.7566 *  0.0000     8          
   200  Li    c      7.8377 *     5.8783 *   -11.7566 *  0.0000     8          
   201  Li    c     -7.8377 *     5.8783 *   -11.7566 *  0.0000     8          
   202  Cl    c      0.0000 *    11.7566 *     9.7972 *  0.0000     8          
   203  Li    c     11.7566 *     5.8783 *     7.8377 *  0.0000     8          
   204  Li    c     11.7566 *     9.7972 *     0.0000    0.0000     4          
   205  Li    c     11.7566 *    -5.8783 *     7.8377 *  0.0000     8          
   206  Li    c     11.7566 *    -9.7972 *     0.0000    0.0000     4          
   207  Cl    c      7.8377 *    11.7566 *     5.8783 *  0.0000     8          
   208  Cl    c      7.8377 *   -11.7566 *     5.8783 *  0.0000     8          
   209  O     c      1.9594 *     9.7972 *   -11.7566 *  0.0000     8          
   210  O     c      1.9594 *    -9.7972 *   -11.7566 *  0.0000     8          
   211  O     c      5.8783 *    13.7161 *     3.9189 *  0.0000     8          
   212  O     c      5.8783 *   -13.7161 *     3.9189 *  0.0000     8          
   213  Cl    c      0.0000 *     7.8377 *   -13.7161 *  0.0000     8          
   214  Cl    c      0.0000 *    15.6755 *    -1.9594 *  0.0000     8          
   215  Li    c      3.9189 *     9.7972 *   -11.7566 *  0.0000     8          
   216  Li    c      3.9189 *    -9.7972 *   -11.7566 *  0.0000     8          
   217  Li    c     15.6755 *    -1.9594 *     0.0000    0.0000     4          
   218  Li    c     15.6755 *     1.9594 *     0.0000    0.0000     4          
   219  Li    c      0.0000 *    13.7161 *     7.8377 *  0.0000     8          
   220  Li    c     11.7566 *     9.7972 *     3.9189 *  0.0000     8          
   221  Li    c     11.7566 *    -9.7972 *     3.9189 *  0.0000     8          
   222  Cl    c      3.9189 *    11.7566 *     9.7972 *  0.0000     8          
   223  Cl    c      3.9189 *   -11.7566 *     9.7972 *  0.0000     8          
   224  Li    c      0.0000 *    -1.9594 *    15.6755 *  0.0000     8          
   225  Li    c      7.8377 *    13.7161 *     0.0000    0.0000     4          
   226  Li    c      7.8377 *   -13.7161 *     0.0000    0.0000     4          
   227  O     c      1.9594 *    13.7161 *     7.8377 *  0.0000     8          
   228  O     c      1.9594 *   -13.7161 *     7.8377 *  0.0000     8          
   229  O     c      9.7972 *     9.7972       7.8377 *  0.0000     4          
   230  O     c      9.7972 *    -9.7972       7.8377 *  0.0000     4          
   231  O     c      1.9594 *     1.9594      15.6755 *  0.0000     4          
   232  O     c      1.9594 *    -1.9594      15.6755 *  0.0000     4          
   233  O     s      0.0000       0.0000       0.0000    0.0000     1    Defect
   234  Cl    s      0.0000       0.0000      -1.9594 *  0.0000     2          
   235  O     s      1.9594 *    -1.9594       0.0000    0.0000     2          
   236  Cl    s      0.0000 *     3.9189 *    -1.9594 *  0.0000     8          
   237  O     s      1.9594 *     1.9594       3.9189 *  0.0000     4          
   238  O     s      1.9594 *    -1.9594       3.9189 *  0.0000     4          
   239  Cl    s      0.0000       0.0000       5.8783 *  0.0000     2          
   240  Cl    s      3.9189 *     3.9189      -1.9594 *  0.0000     4          
   241  Cl    s      3.9189 *    -3.9189      -1.9594 *  0.0000     4          
   242  O     s      1.9594 *     5.8783 *     0.0000    0.0000     4          
   243  O     s      5.8783 *    -1.9594 *     0.0000    0.0000     4          
   244  Cl    s      0.0000 *     3.9189 *     5.8783 *  0.0000     8          
   245  O     s      1.9594 *     5.8783 *     3.9189 *  0.0000     8          
   246  O     s      5.8783 *    -1.9594 *     3.9189 *  0.0000     8          
   247  Cl    s      0.0000 *     7.8377 *    -1.9594 *  0.0000     8          
   248  Cl    s      3.9189 *     3.9189       5.8783 *  0.0000     4          
   249  Cl    s      3.9189 *    -3.9189       5.8783 *  0.0000     4          
   250  O     s      5.8783 *     5.8783       0.0000    0.0000     2          
   251  O     s      1.9594 *     1.9594       7.8377 *  0.0000     4          
   252  O     s      1.9594 *    -1.9594       7.8377 *  0.0000     4          
   253  O     s      5.8783 *    -5.8783       0.0000    0.0000     2          
   254  Cl    s      3.9189 *     7.8377 *    -1.9594 *  0.0000     8          
   255  Cl    s      3.9189 *    -7.8377 *    -1.9594 *  0.0000     8          
   256  O     s      5.8783 *     5.8783       3.9189 *  0.0000     4          
   257  O     s      5.8783 *    -5.8783       3.9189 *  0.0000     4          
   258  Cl    s      0.0000       0.0000       9.7972 *  0.0000     2          
   259  Cl    s      0.0000 *     7.8377 *     5.8783 *  0.0000     8          
   260  O     s      1.9594 *     5.8783 *     7.8377 *  0.0000     8          
   261  O     s      5.8783 *    -1.9594 *     7.8377 *  0.0000     8          
   262  O     s      1.9594 *     9.7972 *     0.0000    0.0000     4          
   263  O     s      1.9594 *    -9.7972 *     0.0000    0.0000     4          
   264  Cl    s      0.0000 *     3.9189 *     9.7972 *  0.0000     8          
   265  Cl    s      3.9189 *     7.8377 *     5.8783 *  0.0000     8          
   266  Cl    s      3.9189 *    -7.8377 *     5.8783 *  0.0000     8          
   267  O     s      1.9594 *     9.7972 *     3.9189 *  0.0000     8          
   268  O     s      1.9594 *    -9.7972 *     3.9189 *  0.0000     8          
   269  Cl    s      3.9189 *     3.9189       9.7972 *  0.0000     4          
   270  Cl    s      3.9189 *    -3.9189       9.7972 *  0.0000     4          
   271  Cl    s      7.8377 *     7.8377      -1.9594 *  0.0000     4          
   272  Cl    s      7.8377 *    -7.8377      -1.9594 *  0.0000     4          
   273  O     s      5.8783 *     5.8783       7.8377 *  0.0000     4          
   274  O     s      5.8783 *     9.7972 *     0.0000    0.0000     4          
   275  O     s      5.8783 *    -5.8783       7.8377 *  0.0000     4          
   276  O     s      5.8783 *    -9.7972 *     0.0000    0.0000     4          
   277  Cl    s      0.0000 *    11.7566 *    -1.9594 *  0.0000     8          
   278  O     s      1.9594 *     1.9594     -11.7566 *  0.0000     4          
   279  O     s      1.9594 *    -1.9594     -11.7566 *  0.0000     4          
   280  O     s      5.8783 *     9.7972 *     3.9189 *  0.0000     8          
   281  O     s      5.8783 *    -9.7972 *     3.9189 *  0.0000     8          
   282  Cl    s      0.0000 *     7.8377 *     9.7972 *  0.0000     8          
   283  Cl    s      3.9189 *    11.7566 *    -1.9594 *  0.0000     8          
   284  Cl    s      3.9189 *   -11.7566 *    -1.9594 *  0.0000     8          
   285  Cl    s      7.8377 *     7.8377       5.8783 *  0.0000     4          
   286  Cl    s      7.8377 *    -7.8377       5.8783 *  0.0000     4          
   287  O     s      1.9594 *     9.7972 *     7.8377 *  0.0000     8          
   288  O     s      1.9594 *    -9.7972 *     7.8377 *  0.0000     8          
   289  Cl    s      3.9189 *     7.8377 *     9.7972 *  0.0000     8          
   290  Cl    s      3.9189 *    -7.8377 *     9.7972 *  0.0000     8          
   291  Cl    s      0.0000 *    11.7566 *     5.8783 *  0.0000     8          
   292  O     s      1.9594 *     5.8783 *   -11.7566 *  0.0000     8          
   293  O     s      1.9594 *    -5.8783 *   -11.7566 *  0.0000     8          
   294  Cl    s      0.0000       0.0000     -13.7161 *  0.0000     2          
   295  Cl    s      3.9189 *    11.7566 *     5.8783 *  0.0000     8          
   296  Cl    s      3.9189 *   -11.7566 *     5.8783 *  0.0000     8          
   297  O     s      5.8783 *     9.7972 *     7.8377 *  0.0000     8          
   298  O     s      5.8783 *    -9.7972 *     7.8377 *  0.0000     8          
   299  O     s      1.9594 *    13.7161 *     0.0000    0.0000     4          
   300  O     s      1.9594 *   -13.7161 *     0.0000    0.0000     4          
   301  O     s      9.7972 *     9.7972       0.0000    0.0000     2          
   302  O     s      9.7972 *    -9.7972       0.0000    0.0000     2          
   303  Cl    s      0.0000 *     3.9189 *   -13.7161 *  0.0000     8          
   304  Cl    s      7.8377 *    11.7566 *    -1.9594 *  0.0000     8          
   305  Cl    s      7.8377 *   -11.7566 *    -1.9594 *  0.0000     8          
   306  O     s      5.8783 *     5.8783     -11.7566 *  0.0000     4          
   307  O     s      5.8783 *    -5.8783     -11.7566 *  0.0000     4          
   308  O     s      1.9594 *    13.7161 *     3.9189 *  0.0000     8          
   309  O     s      1.9594 *   -13.7161 *     3.9189 *  0.0000     8          
   310  O     s      9.7972 *     9.7972       3.9189 *  0.0000     4          
   311  O     s      9.7972 *    -9.7972       3.9189 *  0.0000     4          
   312  Cl    s      3.9189 *     3.9189     -13.7161 *  0.0000     4          
   313  Cl    s      3.9189 *    -3.9189     -13.7161 *  0.0000     4          
   314  Cl    s      7.8377 *     7.8377       9.7972 *  0.0000     4          
   315  Cl    s      7.8377 *    -7.8377       9.7972 *  0.0000     4          
   316  O     s      5.8783 *    13.7161 *     0.0000    0.0000     4          
   317  O     s      5.8783 *   -13.7161 *     0.0000    0.0000     4          
   318  Cl    s      0.0000 *    11.7566 *     9.7972 *  0.0000     8          
   319  Cl    s      7.8377 *    11.7566 *     5.8783 *  0.0000     8          
   320  Cl    s      7.8377 *   -11.7566 *     5.8783 *  0.0000     8          
   321  O     s      1.9594 *     9.7972 *   -11.7566 *  0.0000     8          
   322  O     s      1.9594 *    -9.7972 *   -11.7566 *  0.0000     8          
   323  O     s      5.8783 *    13.7161 *     3.9189 *  0.0000     8          
   324  O     s      5.8783 *   -13.7161 *     3.9189 *  0.0000     8          
   325  Cl    s      0.0000 *     7.8377 *   -13.7161 *  0.0000     8          
   326  Cl    s      0.0000 *    15.6755 *    -1.9594 *  0.0000     8          
   327  Cl    s      3.9189 *    11.7566 *     9.7972 *  0.0000     8          
   328  Cl    s      3.9189 *   -11.7566 *     9.7972 *  0.0000     8          
   329  O     s      1.9594 *    13.7161 *     7.8377 *  0.0000     8          
   330  O     s      1.9594 *   -13.7161 *     7.8377 *  0.0000     8          
   331  O     s      9.7972 *     9.7972       7.8377 *  0.0000     4          
   332  O     s      9.7972 *    -9.7972       7.8377 *  0.0000     4          
   333  O     s      1.9594 *     1.9594      15.6755 *  0.0000     4          
   334  O     s      1.9594 *    -1.9594      15.6755 *  0.0000     4          
--------------------------------------------------------------------------------


  Constraints on symmetry reduced coordinates :

--------------------------------------------------------------------------------
  Constraint no.      Unconstrained     Constrained    Coefficient    
                         Variable         Variable
--------------------------------------------------------------------------------
           1                 4 x             4 y        -1.00000
           2                 5 x             5 y         1.00000
           3                 6 x             6 y        -1.00000
           4                11 x            11 y         1.00000
           5                12 x            12 y        -1.00000
           6                15 x            15 y         1.00000
           7                16 x            16 y        -1.00000
           8                23 x            23 y         1.00000
           9                24 x            24 y        -1.00000
          10                35 x            35 y         1.00000
          11                36 x            36 y        -1.00000
          12                39 x            39 y         1.00000
          13                40 x            40 y         1.00000
          14                41 x            41 y        -1.00000
          15                42 x            42 y        -1.00000
          16                44 x            44 y         1.00000
          17                46 x            46 y        -1.00000
          18                53 x            53 y         1.00000
          19                54 x            54 y        -1.00000
          20                65 x            65 y         1.00000
          21                66 x            66 y        -1.00000
          22                67 x            67 y         1.00000
          23                68 x            68 y        -1.00000
          24                85 x            85 y         1.00000
          25                86 x            86 y        -1.00000
          26                89 x            89 y         1.00000
          27                90 x            90 y        -1.00000
          28                91 x            91 y         1.00000
          29                93 x            93 y        -1.00000
          30               105 x           105 y         1.00000
          31               106 x           106 y        -1.00000
          32               121 x           121 y         1.00000
          33               122 x           122 y        -1.00000
          34               125 x           125 y         1.00000
          35               128 x           128 y        -1.00000
          36               153 x           153 y         1.00000
          37               154 x           154 y        -1.00000
          38               155 x           155 y         1.00000
          39               156 x           156 y        -1.00000
          40               161 x           161 y         1.00000
          41               162 x           162 y        -1.00000
          42               173 x           173 y         1.00000
          43               174 x           174 y        -1.00000
          44               177 x           177 y         1.00000
          45               178 x           178 y        -1.00000
          46               179 x           179 y         1.00000
          47               180 x           180 y        -1.00000
          48               185 x           185 y         1.00000
          49               186 x           186 y        -1.00000
          50               197 x           197 y         1.00000
          51               198 x           198 y        -1.00000
          52               229 x           229 y         1.00000
          53               230 x           230 y        -1.00000
          54               231 x           231 y         1.00000
          55               232 x           232 y        -1.00000
          56               235 x           235 y        -1.00000
          57               237 x           237 y         1.00000
          58               238 x           238 y        -1.00000
          59               240 x           240 y         1.00000
          60               241 x           241 y        -1.00000
          61               248 x           248 y         1.00000
          62               249 x           249 y        -1.00000
          63               250 x           250 y         1.00000
          64               251 x           251 y         1.00000
          65               252 x           252 y        -1.00000
          66               253 x           253 y        -1.00000
          67               256 x           256 y         1.00000
          68               257 x           257 y        -1.00000
          69               269 x           269 y         1.00000
          70               270 x           270 y        -1.00000
          71               271 x           271 y         1.00000
          72               272 x           272 y        -1.00000
          73               273 x           273 y         1.00000
          74               275 x           275 y        -1.00000
          75               278 x           278 y         1.00000
          76               279 x           279 y        -1.00000
          77               285 x           285 y         1.00000
          78               286 x           286 y        -1.00000
          79               301 x           301 y         1.00000
          80               302 x           302 y        -1.00000
          81               306 x           306 y         1.00000
          82               307 x           307 y        -1.00000
          83               310 x           310 y         1.00000
          84               311 x           311 y        -1.00000
          85               312 x           312 y         1.00000
          86               313 x           313 y        -1.00000
          87               314 x           314 y         1.00000
          88               315 x           315 y        -1.00000
          89               331 x           331 y         1.00000
          90               332 x           332 y        -1.00000
          91               333 x           333 y         1.00000
          92               334 x           334 y        -1.00000
--------------------------------------------------------------------------------


  Components of defect energy : 

--------------------------------------------------------------------------------
  Region 1 - region 1                   =     -0.38325584 eV
  Region 1 - region 2a (unrelaxed)      =     56.76856918 eV
  Region 1 - 2a (relaxed - correction)  =     -0.64451402 eV
  Region 1 (Total)                      =     55.74079931 eV
  Region 2a                             =      0.32231160 eV
  Region 2b                             =     -1.32312859 eV
--------------------------------------------------------------------------------
  Total defect energy                   =     54.73998232 eV
--------------------------------------------------------------------------------

  Largest displacement in region 2 =   0.0110 Angstroms


  Number of variables =      830

  Maximum number of calculations  =        1000
  Maximum Hessian update interval =          10
  Maximum step size               =   1.0000000
  Maximum parameter tolerance     =   0.0000100
  Maximum function  tolerance     =   0.0000100
  Maximum gradient  tolerance     =   0.0010000

  Symmetry adapted optimisation

  Symmetry to be used for second derivatives

  Newton-Raphson optimiser to be used

  BFGS hessian update to be used

  Lower half triangular hessian to be used

  Start of defect optimisation :

  Cycle:      0 Defect Energy:  54.739982  Gnorm:     0.111467  CPU:   13.796
  ** Hessian calculated **
  Cycle:      1 Defect Energy:  35.841614  Gnorm:     0.049849  CPU:   42.940
  ** Hessian calculated **
  Cycle:      2 Defect Energy:  29.277407  Gnorm:     0.012592  CPU:   61.601
  Cycle:      3 Defect Energy:  28.429653  Gnorm:     0.008374  CPU:   68.663
  Cycle:      4 Defect Energy:  27.875838  Gnorm:     0.004723  CPU:   76.524
  Cycle:      5 Defect Energy:  27.760995  Gnorm:     0.003486  CPU:   78.601
  Cycle:      6 Defect Energy:  27.690903  Gnorm:     0.002467  CPU:   81.311
  Cycle:      7 Defect Energy:  27.652493  Gnorm:     0.001765  CPU:   83.912
  Cycle:      8 Defect Energy:  27.631707  Gnorm:     0.001259  CPU:   84.879
  Cycle:      9 Defect Energy:  27.620202  Gnorm:     0.000891  CPU:   86.634
  Cycle:     10 Defect Energy:  27.614230  Gnorm:     0.000628  CPU:   88.285
  Cycle:     11 Defect Energy:  27.611137  Gnorm:     0.000446  CPU:   89.969
  ** Hessian calculated **
  Cycle:     12 Defect Energy:  27.609549  Gnorm:     0.000313  CPU:   97.110
  Cycle:     13 Defect Energy:  27.608757  Gnorm:     0.000220  CPU:   98.752
  Cycle:     14 Defect Energy:  27.608358  Gnorm:     0.000155  CPU:  100.443
  Cycle:     15 Defect Energy:  27.608157  Gnorm:     0.000109  CPU:  102.224
  Cycle:     16 Defect Energy:  27.608057  Gnorm:     0.000076  CPU:  103.876
  Cycle:     17 Defect Energy:  27.608007  Gnorm:     0.000053  CPU:  105.493
  Cycle:     18 Defect Energy:  27.607982  Gnorm:     0.000037  CPU:  107.238
  Cycle:     19 Defect Energy:  27.607969  Gnorm:     0.000026  CPU:  108.366
  Cycle:     20 Defect Energy:  27.607962  Gnorm:     0.000018  CPU:  109.877


  **** Optimisation achieved ****


  Final defect energy  =       27.60795885
  Final defect Gnorm   =        0.00001286

  Components of defect energy : 

--------------------------------------------------------------------------------
  Region 1 - region 1                   =    -28.05045421 eV
  Region 1 - region 2a (unrelaxed)      =     57.24041014 eV
  Region 1 - 2a (relaxed - correction)  =     -0.51759704 eV
  Region 1 (Total)                      =     28.67235889 eV
  Region 2a                             =      0.25872856 eV
  Region 2b                             =     -1.32312859 eV
--------------------------------------------------------------------------------
  Total defect energy                   =     27.60795885 eV
--------------------------------------------------------------------------------

  Largest displacement in region 2 =   0.0110 Angstroms

  Final coordinates of region 1 :

--------------------------------------------------------------------------------
   No.  Atomic        x           y           z          Radius      Charge
        Label       (Angs)      (Angs)      (Angs)       (Angs)       (e) 
--------------------------------------------------------------------------------
     1  O     c     3.918873    3.918873    1.959436    0.000000    0.183000
     2  Cl    c     3.918873    3.918873   -0.714600    0.000000    1.485000
     3  Cl    c     3.918873    3.918873    4.633473    0.000000    1.485000
     4  Li    c     4.177964    2.162292    1.959436    0.000000    1.000000
     5  Li    c     3.659782    5.675454    1.959436    0.000000    1.000000
     6  Li    c     5.675454    3.659782    1.959436    0.000000    1.000000
     7  Li    c     2.162292    4.177964    1.959436    0.000000    1.000000
     8  O     c     6.044233    1.793513    1.959436    0.000000    0.183000
     9  O     c     1.793513    6.044233    1.959436    0.000000    0.183000
    10  Li    c     5.767334    5.767334    4.355110    0.000000    1.000000
    11  Li    c     5.767334    5.767334   -0.436237    0.000000    1.000000
    12  Li    c     2.070412    2.070412    4.355110    0.000000    1.000000
    13  Li    c     2.070412    2.070412   -0.436237    0.000000    1.000000
    14  Li    c     5.914132    1.923614    4.004688    0.000000    1.000000
    15  Li    c     5.914132    1.923614   -0.085815    0.000000    1.000000
    16  Li    c     1.923614    5.914132    4.004688    0.000000    1.000000
    17  Li    c     1.923614    5.914132   -0.085815    0.000000    1.000000
    18  Cl    c     4.172140    7.541614    0.183626    0.000000    1.485000
    19  Cl    c     4.172140    7.541614    3.735247    0.000000    1.485000
    20  Cl    c     3.665606    0.296132    0.183626    0.000000    1.485000
    21  Cl    c     3.665606    0.296132    3.735247    0.000000    1.485000
    22  Cl    c     7.541614    4.172140    0.183626    0.000000    1.485000
    23  Cl    c     7.541614    4.172140    3.735247    0.000000    1.485000
    24  Cl    c     0.296132    3.665606    0.183626    0.000000    1.485000
    25  Cl    c     0.296132    3.665606    3.735247    0.000000    1.485000
    26  Li    c     3.974577    1.983876    6.120485    0.000000    1.000000
    27  Li    c     3.974577    1.983876   -2.201612    0.000000    1.000000
    28  Li    c     3.863169    5.853870    6.120485    0.000000    1.000000
    29  Li    c     3.863169    5.853870   -2.201612    0.000000    1.000000
    30  Li    c     5.853870    3.863169    6.120485    0.000000    1.000000
    31  Li    c     5.853870    3.863169   -2.201612    0.000000    1.000000
    32  Li    c     1.983876    3.974577    6.120485    0.000000    1.000000
    33  Li    c     1.983876    3.974577   -2.201612    0.000000    1.000000
    34  Li    c     7.874254    1.931468    1.959436    0.000000    1.000000
    35  Li    c    -0.036508    5.906278    1.959436    0.000000    1.000000
    36  Li    c     5.906278   -0.036508    1.959436    0.000000    1.000000
    37  Li    c     1.931468    7.874254    1.959436    0.000000    1.000000
    38  Li    c     8.151097    5.853041    1.959436    0.000000    1.000000
    39  Li    c    -0.313351    1.984705    1.959436    0.000000    1.000000
    40  Li    c     5.853041    8.151097    1.959436    0.000000    1.000000
    41  Li    c     1.984705   -0.313351    1.959436    0.000000    1.000000
    42  O     c     5.925094    5.925094    6.105980    0.000000    0.183000
    43  O     c     5.925094    5.925094   -2.187107    0.000000    0.183000
    44  O     c     1.912652    1.912652    6.105980    0.000000    0.183000
    45  O     c     1.912652    1.912652   -2.187107    0.000000    0.183000
    46  O     c     5.958884    1.878862    5.986463    0.000000    0.183000
    47  O     c     5.958884    1.878862   -2.067590    0.000000    0.183000
    48  O     c     1.878862    5.958884    5.986463    0.000000    0.183000
    49  O     c     1.878862    5.958884   -2.067590    0.000000    0.183000
    50  Li    c     3.887803    9.951155    1.959436    0.000000    1.000000
    51  Li    c     9.951155    3.887803    1.959436    0.000000    1.000000
    52  Li    c     3.949943   -2.113409    1.959436    0.000000    1.000000
    53  Li    c    -2.113409    3.949943    1.959436    0.000000    1.000000
    54  Cl    c     3.918873    3.918873    8.057489    0.000000    1.485000
    55  Cl    c     3.918873    3.918873   -4.138616    0.000000    1.485000
    56  Cl    c     7.655785    7.655785    0.199490    0.000000    1.485000
    57  Cl    c     7.655785    7.655785    3.719383    0.000000    1.485000
    58  Cl    c     0.181961    0.181961    0.199490    0.000000    1.485000
    59  Cl    c     0.181961    0.181961    3.719383    0.000000    1.485000
    60  Cl    c     7.873334   -0.035588   -0.049807    0.000000    1.485000
    61  Cl    c     7.873334   -0.035588    3.968680    0.000000    1.485000
    62  Cl    c    -0.035588    7.873334   -0.049807    0.000000    1.485000
    63  Cl    c    -0.035588    7.873334    3.968680    0.000000    1.485000
    64  Li    c     7.872364    1.900558    5.961924    0.000000    1.000000
    65  Li    c     7.872364    1.900558   -2.043051    0.000000    1.000000
    66  Li    c    -0.034618    5.937188    5.961924    0.000000    1.000000
    67  Li    c    -0.034618    5.937188   -2.043051    0.000000    1.000000
    68  Li    c     5.937188   -0.034618    5.961924    0.000000    1.000000
    69  Li    c     5.937188   -0.034618   -2.043051    0.000000    1.000000
    70  Li    c     1.900558    7.872364    5.961924    0.000000    1.000000
    71  Li    c     1.900558    7.872364   -2.043051    0.000000    1.000000
    72  Li    c     7.866413    5.887610    5.990029    0.000000    1.000000
    73  Li    c     7.866413    5.887610   -2.071156    0.000000    1.000000
    74  Li    c    -0.028667    1.950136    5.990029    0.000000    1.000000
    75  Li    c    -0.028667    1.950136   -2.071156    0.000000    1.000000
    76  Li    c     5.887610    7.866413    5.990029    0.000000    1.000000
    77  Li    c     5.887610    7.866413   -2.071156    0.000000    1.000000
    78  Li    c     1.950136   -0.028667    5.990029    0.000000    1.000000
    79  Li    c     1.950136   -0.028667   -2.071156    0.000000    1.000000
    80  O     c     5.859316    9.918405    1.959436    0.000000    0.183000
    81  O     c     9.918405    5.859316    1.959436    0.000000    0.183000
    82  O     c     1.978430   -2.080659    1.959436    0.000000    0.183000
    83  O     c    -2.080659    1.978430    1.959436    0.000000    0.183000
    84  O     c     9.812185    1.973567    1.959436    0.000000    0.183000
    85  O     c     1.973567    9.812185    1.959436    0.000000    0.183000
    86  O     c     5.864179   -1.974439    1.959436    0.000000    0.183000
    87  O     c    -1.974439    5.864179    1.959436    0.000000    0.183000
    88  Li    c     5.885055    9.890414    3.962821    0.000000    1.000000
    89  Li    c     5.885055    9.890414   -0.043948    0.000000    1.000000
    90  Li    c     9.890414    5.885055    3.962821    0.000000    1.000000
    91  Li    c     9.890414    5.885055   -0.043948    0.000000    1.000000
    92  Li    c     1.952691   -2.052668    3.962821    0.000000    1.000000
    93  Li    c     1.952691   -2.052668   -0.043948    0.000000    1.000000
    94  Li    c    -2.052668    1.952691    3.962821    0.000000    1.000000
    95  Li    c    -2.052668    1.952691   -0.043948    0.000000    1.000000
    96  Li    c     9.848608    1.910848    3.930243    0.000000    1.000000
    97  Li    c     9.848608    1.910848   -0.011370    0.000000    1.000000
    98  Li    c     1.910848    9.848608    3.930243    0.000000    1.000000
    99  Li    c     1.910848    9.848608   -0.011370    0.000000    1.000000
   100  Li    c     5.926898   -2.010862    3.930243    0.000000    1.000000
   101  Li    c     5.926898   -2.010862   -0.011370    0.000000    1.000000
   102  Li    c    -2.010862    5.926898    3.930243    0.000000    1.000000
   103  Li    c    -2.010862    5.926898   -0.011370    0.000000    1.000000
   104  Li    c     5.928803    5.928803    7.964115    0.000000    1.000000
   105  Li    c     5.928803    5.928803   -4.045242    0.000000    1.000000
   106  Li    c     1.908943    1.908943    7.964115    0.000000    1.000000
   107  Li    c     1.908943    1.908943   -4.045242    0.000000    1.000000
   108  Li    c     5.977741    1.860005    7.945995    0.000000    1.000000
   109  Li    c     5.977741    1.860005   -4.027122    0.000000    1.000000
   110  Li    c     1.860005    5.977741    7.945995    0.000000    1.000000
   111  Li    c     1.860005    5.977741   -4.027122    0.000000    1.000000
   112  Li    c     3.916247    9.839893    5.938444    0.000000    1.000000
   113  Li    c     3.916247    9.839893   -2.019571    0.000000    1.000000
   114  Li    c     9.839893    3.916247    5.938444    0.000000    1.000000
   115  Li    c     9.839893    3.916247   -2.019571    0.000000    1.000000
   116  Li    c     3.921499   -2.002147    5.938444    0.000000    1.000000
   117  Li    c     3.921499   -2.002147   -2.019571    0.000000    1.000000
   118  Li    c    -2.002147    3.921499    5.938444    0.000000    1.000000
   119  Li    c    -2.002147    3.921499   -2.019571    0.000000    1.000000
   120  Li    c     7.869195    9.876959    1.959436    0.000000    1.000000
   121  Li    c     9.876959    7.869195    1.959436    0.000000    1.000000
   122  Li    c    -0.031449   -2.039213    1.959436    0.000000    1.000000
   123  Li    c    -2.039213   -0.031449    1.959436    0.000000    1.000000
   124  Li    c    -0.020995    9.809958    1.959436    0.000000    1.000000
   125  Li    c     9.809958   -0.020995    1.959436    0.000000    1.000000
   126  Li    c     7.858741   -1.972212    1.959436    0.000000    1.000000
   127  Li    c    -1.972212    7.858741    1.959436    0.000000    1.000000
   128  Cl    c     3.895174    7.873381    7.872807    0.000000    1.485000
   129  Cl    c     3.895174    7.873381   -3.953934    0.000000    1.485000
   130  Cl    c     3.942572   -0.035635    7.872807    0.000000    1.485000
   131  Cl    c     3.942572   -0.035635   -3.953934    0.000000    1.485000
   132  Cl    c     7.873381    3.895174    7.872807    0.000000    1.485000
   133  Cl    c     7.873381    3.895174   -3.953934    0.000000    1.485000
   134  Cl    c    -0.035635    3.942572    7.872807    0.000000    1.485000
   135  Cl    c    -0.035635    3.942572   -3.953934    0.000000    1.485000
   136  O     c     5.877294    9.798540    5.888634    0.000000    0.183000
   137  O     c     5.877294    9.798540   -1.969761    0.000000    0.183000
   138  O     c     9.798540    5.877294    5.888634    0.000000    0.183000
   139  O     c     9.798540    5.877294   -1.969761    0.000000    0.183000
   140  O     c     1.960452   -1.960794    5.888634    0.000000    0.183000
   141  O     c     1.960452   -1.960794   -1.969761    0.000000    0.183000
   142  O     c    -1.960794    1.960452    5.888634    0.000000    0.183000
   143  O     c    -1.960794    1.960452   -1.969761    0.000000    0.183000
   144  O     c     9.786637    1.978952    5.867104    0.000000    0.183000
   145  O     c     9.786637    1.978952   -1.948231    0.000000    0.183000
   146  O     c     1.978952    9.786637    5.867104    0.000000    0.183000
   147  O     c     1.978952    9.786637   -1.948231    0.000000    0.183000
   148  O     c     5.858794   -1.948891    5.867104    0.000000    0.183000
   149  O     c     5.858794   -1.948891   -1.948231    0.000000    0.183000
   150  O     c    -1.948891    5.858794    5.867104    0.000000    0.183000
   151  O     c    -1.948891    5.858794   -1.948231    0.000000    0.183000
   152  Li    c     3.924042    1.959066    9.852660    0.000000    1.000000
   153  Li    c     3.913704    5.878680    9.852660    0.000000    1.000000
   154  Li    c     5.878680    3.913704    9.852660    0.000000    1.000000
   155  Li    c     1.959066    3.924042    9.852660    0.000000    1.000000
   156  Li    c     3.924042    1.959066   -5.933787    0.000000    1.000000
   157  Li    c     3.913704    5.878680   -5.933787    0.000000    1.000000
   158  Li    c     5.878680    3.913704   -5.933787    0.000000    1.000000
   159  Li    c     1.959066    3.924042   -5.933787    0.000000    1.000000
   160  Li    c     7.844781    9.835380    5.926441    0.000000    1.000000
   161  Li    c     7.844781    9.835380   -2.007568    0.000000    1.000000
   162  Li    c     9.835380    7.844781    5.926441    0.000000    1.000000
   163  Li    c     9.835380    7.844781   -2.007568    0.000000    1.000000
   164  Li    c    -0.007035   -1.997634    5.926441    0.000000    1.000000
   165  Li    c    -0.007035   -1.997634   -2.007568    0.000000    1.000000
   166  Li    c    -1.997634   -0.007035    5.926441    0.000000    1.000000
   167  Li    c    -1.997634   -0.007035   -2.007568    0.000000    1.000000
   168  Li    c    -0.022236    9.817805    5.889638    0.000000    1.000000
   169  Li    c    -0.022236    9.817805   -1.970765    0.000000    1.000000
   170  Li    c     9.817805   -0.022236    5.889638    0.000000    1.000000
   171  Li    c     9.817805   -0.022236   -1.970765    0.000000    1.000000
   172  Li    c     7.859982   -1.980059    5.889638    0.000000    1.000000
   173  Li    c     7.859982   -1.980059   -1.970765    0.000000    1.000000
   174  Li    c    -1.980059    7.859982    5.889638    0.000000    1.000000
   175  Li    c    -1.980059    7.859982   -1.970765    0.000000    1.000000
   176  Cl    c     3.906965   11.742844   -0.019187    0.000000    1.485000
   177  Cl    c     3.906965   11.742844    3.938060    0.000000    1.485000
   178  Cl    c     3.930781   -3.905098   -0.019187    0.000000    1.485000
   179  Cl    c     3.930781   -3.905098    3.938060    0.000000    1.485000
   180  Cl    c    11.742844    3.906965   -0.019187    0.000000    1.485000
   181  Cl    c    11.742844    3.906965    3.938060    0.000000    1.485000
   182  Cl    c    -3.905098    3.930781   -0.019187    0.000000    1.485000
   183  Cl    c    -3.905098    3.930781    3.938060    0.000000    1.485000
   184  Cl    c     7.882800    7.882800    7.862343    0.000000    1.485000
   185  Cl    c     7.882800    7.882800   -3.943470    0.000000    1.485000
   186  Cl    c    -0.045054   -0.045054    7.862343    0.000000    1.485000
   187  Cl    c    -0.045054   -0.045054   -3.943470    0.000000    1.485000
   188  Cl    c     7.875402   -0.037656    7.872787    0.000000    1.485000
   189  Cl    c     7.875402   -0.037656   -3.953914    0.000000    1.485000
[...]
    254 y         11.756619     11.731891    -0.024728    Cartesian   -0.21
    254 z          0.000000     -0.009971    -0.009971    Cartesian    0.00
    255 x          7.837746      7.821384    -0.016362    Cartesian   -0.21
    255 y         -3.918873     -3.903369     0.015504    Cartesian   -0.40
    255 z          0.000000      0.004308     0.004308    Cartesian    0.00
    256 x          9.797182      9.778930    -0.018253    Cartesian   -0.19
    256 y          9.797182      9.778930    -0.018253    Cartesian   -0.19
    256 z          5.878309      5.858910    -0.019399    Cartesian   -0.33
    257 x          9.797182      9.811598     0.014415    Cartesian    0.15
    257 y         -1.959436     -1.973852    -0.014415    Cartesian    0.74
    257 z          5.878309      5.887420     0.009110    Cartesian    0.15
    258 x          3.918873      3.918873     0.000000    Cartesian    0.00
    258 y          3.918873      3.918873     0.000000    Cartesian    0.00
    258 z         11.756619     11.783337     0.026718    Cartesian    0.23
    259 x          3.918873      3.922112     0.003239    Cartesian    0.08
    259 y         11.756619     11.742867    -0.013752    Cartesian   -0.12
    259 z          7.837746      7.828454    -0.009292    Cartesian   -0.12
    260 x          5.878309      5.882001     0.003691    Cartesian    0.06
    260 y          9.797182      9.808326     0.011144    Cartesian    0.11
    260 z          9.797182      9.818254     0.021071    Cartesian    0.22
    261 x          9.797182      9.813586     0.016403    Cartesian    0.17
    261 y          1.959436      1.952362    -0.007075    Cartesian   -0.36
    261 z          9.797182      9.819327     0.022144    Cartesian    0.23
    262 x          5.878309      5.878256    -0.000053    Cartesian   -0.00
    262 y         13.716055     13.734535     0.018480    Cartesian    0.13
    262 z          1.959436      1.959436     0.000000    Cartesian    0.00
    263 x          5.878309      5.880241     0.001931    Cartesian    0.03
    263 y         -5.878309     -5.884525    -0.006216    Cartesian    0.11
    263 z          1.959436      1.959436     0.000000    Cartesian    0.00
    264 x          3.918873      3.915156    -0.003717    Cartesian   -0.09
    264 y          7.837746      7.851766     0.014020    Cartesian    0.18
    264 z         11.756619     11.768005     0.011386    Cartesian    0.10
    265 x          7.837746      7.834321    -0.003425    Cartesian   -0.04
    265 y         11.756619     11.745966    -0.010653    Cartesian   -0.09
    265 z          7.837746      7.824499    -0.013247    Cartesian   -0.17
    266 x          7.837746      7.822238    -0.015508    Cartesian   -0.20
    266 y         -3.918873     -3.906441     0.012432    Cartesian   -0.32
    266 z          7.837746      7.823691    -0.014055    Cartesian   -0.18
    267 x          5.878309      5.878689     0.000379    Cartesian    0.01
    267 y         13.716055     13.719607     0.003552    Cartesian    0.03
    267 z          5.878309      5.881473     0.003163    Cartesian    0.05
    268 x          5.878309      5.879568     0.001259    Cartesian    0.02
    268 y         -5.878309     -5.880675    -0.002365    Cartesian    0.04
    268 z          5.878309      5.880661     0.002352    Cartesian    0.04
    269 x          7.837746      7.852148     0.014402    Cartesian    0.18
    269 y          7.837746      7.852148     0.014402    Cartesian    0.18
    269 z         11.756619     11.768167     0.011548    Cartesian    0.10
    270 x          7.837746      7.850231     0.012485    Cartesian    0.16
    270 y          0.000000     -0.012485    -0.012485    Cartesian    0.00
    270 z         11.756619     11.769597     0.012978    Cartesian    0.11
    271 x         11.756619     11.744080    -0.012539    Cartesian   -0.11
    271 y         11.756619     11.744080    -0.012539    Cartesian   -0.11
    271 z          0.000000      0.005673     0.005673    Cartesian    0.00
    272 x         11.756619     11.753820    -0.002799    Cartesian   -0.02
    272 y         -3.918873     -3.916074     0.002799    Cartesian   -0.07
    272 z          0.000000      0.005048     0.005048    Cartesian    0.00
    273 x          9.797182      9.808496     0.011314    Cartesian    0.12
    273 y          9.797182      9.808496     0.011314    Cartesian    0.12
    273 z          9.797182      9.808534     0.011352    Cartesian    0.12
    274 x          9.797182      9.798871     0.001688    Cartesian    0.02
    274 y         13.716055     13.719551     0.003495    Cartesian    0.03
    274 z          1.959436      1.959436     0.000000    Cartesian    0.00
    275 x          9.797182      9.810064     0.012882    Cartesian    0.13
    275 y         -1.959436     -1.972318    -0.012882    Cartesian    0.66
    275 z          9.797182      9.807871     0.010689    Cartesian    0.11
    276 x          9.797182      9.798374     0.001192    Cartesian    0.01
    276 y         -5.878309     -5.879654    -0.001345    Cartesian    0.02
    276 z          1.959436      1.959436     0.000000    Cartesian    0.00
    277 x          3.918873      3.918960     0.000087    Cartesian    0.00
    277 y         15.675492     15.664030    -0.011462    Cartesian   -0.07
    277 z          0.000000      0.000882     0.000882    Cartesian    0.00
    278 x          5.878309      5.882045     0.003735    Cartesian    0.06
    278 y          5.878309      5.882045     0.003735    Cartesian    0.06
    278 z         -9.797182     -9.811972    -0.014790    Cartesian    0.15
    279 x          5.878309      5.882776     0.004466    Cartesian    0.08
    279 y          1.959436      1.954970    -0.004466    Cartesian   -0.23
    279 z         -9.797182     -9.810064    -0.012881    Cartesian    0.13
    280 x          9.797182      9.797598     0.000416    Cartesian    0.00
    280 y         13.716055     13.715852    -0.000204    Cartesian   -0.00
    280 z          5.878309      5.876832    -0.001478    Cartesian   -0.03
    281 x          9.797182      9.798002     0.000820    Cartesian    0.01
    281 y         -5.878309     -5.878340    -0.000030    Cartesian    0.00
    281 z          5.878309      5.877366    -0.000943    Cartesian   -0.02
    282 x          3.918873      3.920791     0.001918    Cartesian    0.05
    282 y         11.756619     11.758837     0.002218    Cartesian    0.02
    282 z         11.756619     11.753702    -0.002917    Cartesian   -0.02
    283 x          7.837746      7.836238    -0.001508    Cartesian   -0.02
    283 y         15.675492     15.663733    -0.011759    Cartesian   -0.08
    283 z          0.000000      0.001842     0.001842    Cartesian    0.00
    284 x          7.837746      7.833168    -0.004578    Cartesian   -0.06
    284 y         -7.837746     -7.827530     0.010216    Cartesian   -0.13
    284 z          0.000000      0.003753     0.003753    Cartesian    0.00
    285 x         11.756619     11.740576    -0.016043    Cartesian   -0.14
    285 y         11.756619     11.740576    -0.016043    Cartesian   -0.14
    285 z          7.837746      7.815938    -0.021808    Cartesian   -0.28
    286 x         11.756619     11.756287    -0.000332    Cartesian   -0.00
    286 y         -3.918873     -3.918541     0.000332    Cartesian   -0.01
    286 z          7.837746      7.833480    -0.004266    Cartesian   -0.05
    287 x          5.878309      5.878985     0.000675    Cartesian    0.01
    287 y         13.716055     13.717072     0.001017    Cartesian    0.01
    287 z          9.797182      9.797830     0.000648    Cartesian    0.01
    288 x          5.878309      5.878748     0.000438    Cartesian    0.01
    288 y         -5.878309     -5.878975    -0.000666    Cartesian    0.01
    288 z          9.797182      9.797476     0.000293    Cartesian    0.00
    289 x          7.837746      7.838563     0.000817    Cartesian    0.01
    289 y         11.756619     11.758852     0.002233    Cartesian    0.02
    289 z         11.756619     11.752317    -0.004302    Cartesian   -0.04
    290 x          7.837746      7.839248     0.001502    Cartesian    0.02
    290 y         -3.918873     -3.922011    -0.003138    Cartesian    0.08
    290 z         11.756619     11.754535    -0.002084    Cartesian   -0.02
    291 x          3.918873      3.921180     0.002307    Cartesian    0.06
    291 y         15.675492     15.664613    -0.010879    Cartesian   -0.07
    291 z          7.837746      7.829767    -0.007979    Cartesian   -0.10
    292 x          5.878309      5.881476     0.003167    Cartesian    0.05
    292 y          9.797182      9.804636     0.007453    Cartesian    0.08
    292 z         -9.797182     -9.804834    -0.007652    Cartesian    0.08
    293 x          5.878309      5.882352     0.004043    Cartesian    0.07
    293 y         -1.959436     -1.968596    -0.009160    Cartesian    0.47
    293 z         -9.797182     -9.805468    -0.008285    Cartesian    0.08
    294 x          3.918873      3.918873     0.000000    Cartesian    0.00
    294 y          3.918873      3.918873     0.000000    Cartesian    0.00
    294 z        -11.756619    -11.748228     0.008391    Cartesian   -0.07
    295 x          7.837746      7.837671    -0.000075    Cartesian   -0.00
    295 y         15.675492     15.666583    -0.008909    Cartesian   -0.06
    295 z          7.837746      7.832747    -0.004999    Cartesian   -0.06
    296 x          7.837746      7.836346    -0.001400    Cartesian   -0.02
    296 y         -7.837746     -7.829775     0.007971    Cartesian   -0.10
    296 z          7.837746      7.833525    -0.004221    Cartesian   -0.05
    297 x          9.797182      9.799719     0.002536    Cartesian    0.03
    297 y         13.716055     13.716879     0.000824    Cartesian    0.01
    297 z          9.797182      9.796809    -0.000374    Cartesian   -0.00
    298 x          9.797182      9.798232     0.001049    Cartesian    0.01
    298 y         -5.878309     -5.879731    -0.001422    Cartesian    0.02
    298 z          9.797182      9.796621    -0.000562    Cartesian   -0.01
    299 x          5.878309      5.880583     0.002273    Cartesian    0.04
    299 y         17.634928     17.637633     0.002704    Cartesian    0.02
    299 z          1.959436      1.959436     0.000000    Cartesian    0.00
    300 x          5.878309      5.881193     0.002883    Cartesian    0.05
    300 y         -9.797182     -9.798328    -0.001145    Cartesian    0.01
    300 z          1.959436      1.959436     0.000000    Cartesian    0.00
    301 x         13.716055     13.718837     0.002782    Cartesian    0.02
    301 y         13.716055     13.718837     0.002782    Cartesian    0.02
    301 z          1.959436      1.959436     0.000000    Cartesian    0.00
    302 x         13.716055     13.719461     0.003405    Cartesian    0.02
    302 y         -5.878309     -5.881715    -0.003405    Cartesian    0.06
    302 z          1.959436      1.959436     0.000000    Cartesian    0.00
    303 x          3.918873      3.918586    -0.000287    Cartesian   -0.01
    303 y          7.837746      7.842500     0.004754    Cartesian    0.06
    303 z        -11.756619    -11.750199     0.006420    Cartesian   -0.05
    304 x         11.756619     11.754038    -0.002581    Cartesian   -0.02
    304 y         15.675492     15.667034    -0.008458    Cartesian   -0.05
    304 z          0.000000      0.003014     0.003014    Cartesian    0.00
    305 x         11.756619     11.752161    -0.004458    Cartesian   -0.04
    305 y         -7.837746     -7.831375     0.006371    Cartesian   -0.08
    305 z          0.000000      0.001848     0.001848    Cartesian    0.00
    306 x          9.797182      9.802280     0.005098    Cartesian    0.05
    306 y          9.797182      9.802280     0.005098    Cartesian    0.05
    306 z         -9.797182     -9.801483    -0.004301    Cartesian    0.04
    307 x          9.797182      9.801948     0.004766    Cartesian    0.05
    307 y         -1.959436     -1.964202    -0.004766    Cartesian    0.24
    307 z         -9.797182     -9.801653    -0.004470    Cartesian    0.05
    308 x          5.878309      5.878821     0.000512    Cartesian    0.01
    308 y         17.634928     17.633754    -0.001175    Cartesian   -0.01
    308 z          5.878309      5.878293    -0.000016    Cartesian   -0.00
    309 x          5.878309      5.879062     0.000753    Cartesian    0.01
    309 y         -9.797182     -9.795861     0.001321    Cartesian   -0.01
    309 z          5.878309      5.878479     0.000170    Cartesian    0.00
    310 x         13.716055     13.717395     0.001339    Cartesian    0.01
    310 y         13.716055     13.717395     0.001339    Cartesian    0.01
    310 z          5.878309      5.877264    -0.001045    Cartesian   -0.02
    311 x         13.716055     13.719484     0.003429    Cartesian    0.02
    311 y         -5.878309     -5.881738    -0.003429    Cartesian    0.06
    311 z          5.878309      5.877218    -0.001092    Cartesian   -0.02
    312 x          7.837746      7.839338     0.001592    Cartesian    0.02
    312 y          7.837746      7.839338     0.001592    Cartesian    0.02
    312 z        -11.756619    -11.749269     0.007350    Cartesian   -0.06
    313 x          7.837746      7.838920     0.001174    Cartesian    0.01
    313 y          0.000000     -0.001174    -0.001174    Cartesian    0.00
    313 z        -11.756619    -11.749836     0.006783    Cartesian   -0.06
    314 x         11.756619     11.757830     0.001211    Cartesian    0.01
    314 y         11.756619     11.757830     0.001211    Cartesian    0.01
    314 z         11.756619     11.751545    -0.005074    Cartesian   -0.04
    315 x         11.756619     11.757161     0.000542    Cartesian    0.00
    315 y         -3.918873     -3.919415    -0.000542    Cartesian    0.01
    315 z         11.756619     11.753540    -0.003079    Cartesian   -0.03
    316 x          9.797182      9.797400     0.000217    Cartesian    0.00
    316 y         17.634928     17.634260    -0.000668    Cartesian   -0.00
    316 z          1.959436      1.959436     0.000000    Cartesian    0.00
    317 x          9.797182      9.797796     0.000614    Cartesian    0.01
    317 y         -9.797182     -9.796379     0.000804    Cartesian   -0.01
    317 z          1.959436      1.959436     0.000000    Cartesian    0.00
    318 x          3.918873      3.920136     0.001263    Cartesian    0.03
    318 y         15.675492     15.667709    -0.007783    Cartesian   -0.05
    318 z         11.756619     11.750313    -0.006306    Cartesian   -0.05
    319 x         11.756619     11.751345    -0.005274    Cartesian   -0.04
    319 y         15.675492     15.666033    -0.009459    Cartesian   -0.06
    319 z          7.837746      7.831609    -0.006137    Cartesian   -0.08
    320 x         11.756619     11.750036    -0.006583    Cartesian   -0.06
    320 y         -7.837746     -7.829878     0.007868    Cartesian   -0.10
    320 z          7.837746      7.832528    -0.005218    Cartesian   -0.07
    321 x          5.878309      5.879262     0.000953    Cartesian    0.02
    321 y         13.716055     13.716011    -0.000045    Cartesian   -0.00
    321 z         -9.797182     -9.795950     0.001233    Cartesian   -0.01
    322 x          5.878309      5.878648     0.000339    Cartesian    0.01
    322 y         -5.878309     -5.878205     0.000105    Cartesian   -0.00
    322 z         -9.797182     -9.796007     0.001175    Cartesian   -0.01
    323 x          9.797182      9.794645    -0.002538    Cartesian   -0.03
    323 y         17.634928     17.629113    -0.005816    Cartesian   -0.03
    323 z          5.878309      5.875451    -0.002858    Cartesian   -0.05
    324 x          9.797182      9.793857    -0.003326    Cartesian   -0.03
    324 y         -9.797182     -9.791814     0.005368    Cartesian   -0.05
    324 z          5.878309      5.875325    -0.002985    Cartesian   -0.05
    325 x          3.918873      3.919281     0.000408    Cartesian    0.01
    325 y         11.756619     11.754533    -0.002086    Cartesian   -0.02
    325 z        -11.756619    -11.744847     0.011772    Cartesian   -0.10
    326 x          3.918873      3.919258     0.000385    Cartesian    0.01
    326 y         19.594365     19.576355    -0.018010    Cartesian   -0.09
    326 z          0.000000      0.001946     0.001946    Cartesian    0.00
    327 x          7.837746      7.835451    -0.002295    Cartesian   -0.03
    327 y         15.675492     15.665645    -0.009847    Cartesian   -0.06
    327 z         11.756619     11.746632    -0.009987    Cartesian   -0.08
    328 x          7.837746      7.834233    -0.003513    Cartesian   -0.04
    328 y         -7.837746     -7.828284     0.009462    Cartesian   -0.12
    328 z         11.756619     11.747553    -0.009066    Cartesian   -0.08
    329 x          5.878309      5.876565    -0.001744    Cartesian   -0.03
    329 y         17.634928     17.628791    -0.006138    Cartesian   -0.03
    329 z          9.797182      9.793428    -0.003755    Cartesian   -0.04
    330 x          5.878309      5.876060    -0.002249    Cartesian   -0.04
    330 y         -9.797182     -9.790996     0.006186    Cartesian   -0.06
    330 z          9.797182      9.793049    -0.004134    Cartesian   -0.04
    331 x         13.716055     13.710512    -0.005544    Cartesian   -0.04
    331 y         13.716055     13.710512    -0.005544    Cartesian   -0.04
    331 z          9.797182      9.790207    -0.006975    Cartesian   -0.07
    332 x         13.716055     13.712473    -0.003582    Cartesian   -0.03
    332 y         -5.878309     -5.874727     0.003582    Cartesian   -0.06
    332 z          9.797182      9.792270    -0.004912    Cartesian   -0.05
    333 x          5.878309      5.876853    -0.001457    Cartesian   -0.02
    333 y          5.878309      5.876853    -0.001457    Cartesian   -0.02
    333 z         17.634928     17.629300    -0.005629    Cartesian   -0.03
    334 x          5.878309      5.876876    -0.001434    Cartesian   -0.02
    334 y          1.959436      1.960870     0.001434    Cartesian    0.07
    334 z         17.634928     17.629186    -0.005742    Cartesian   -0.03
--------------------------------------------------------------------------------


  Time to end of optimisation  =      111.9765 seconds


  Peak dynamic memory used =     768.37 MB 


  Timing analysis for GULP :

--------------------------------------------------------------------------------
  Task / Subroutine                                          Time (Seconds)
--------------------------------------------------------------------------------
  Calculation of reciprocal space energy and derivatives          0.0006
  Calculation of reciprocal space energy using symmetry           0.0004
  Calculation of real space energy and derivatives                0.0047
  Calculation of real space energy using symmetry                 0.0034
  Calculation for region 1 energy and derivatives (2-b)          66.5998
  Calculation for region 2a energy                               30.4150
  Calculation for region 2b energy                                0.0003
  Calculation and manipulation of Hessian matrix                 13.2744
  Calculation of matrix inversion                                 0.9510
  Symmetry generation of equivalent positions                     0.0039
--------------------------------------------------------------------------------
  Total CPU time                                                111.9766
--------------------------------------------------------------------------------


  Dump file written as Li3OCl.grs


  Job Finished at 12:32.12  1st December   2020                               

