********************************************************************************
*                       GENERAL UTILITY LATTICE PROGRAM                        *
*                                 Julian Gale                                  *
*                       Curtin Institute for Computation                       *
*                    School of Molecular and Life Sciences                     *
*                    Curtin University, Western Australia                      *
********************************************************************************
* Version = 5.2.0 * Last modified =  10th September 2020                       *
********************************************************************************
*  optimise     - perform optimisation run                                     *
*  conp         - constant pressure calculation                                *
*  property     - calculate properties for final geometry                      *
*  defect       - perform defect calculation after bulk run                    *
*  compare      - compare initial and final structures                         *
********************************************************************************

  Job Started  at 12:29.04  1st December   2020                               

  Number of CPUs =     1


  Total number of configurations input =      1

********************************************************************************
*  Input for Configuration =   1                                               *
********************************************************************************

  Formula = ClOLi3                                                      

  Number of irreducible atoms/shells =       5


  Total number atoms/shells =       7

  Dimensionality = 3               :  Bulk   


  Symmetry :

  Crystal family                   :  Cubic       
  Crystal class  (Groth - 1921)    :  Cubic Hexakisoctahedral              

  Space group (centrosymmetric)    :  P M 3 M         

  Patterson group                  :  P m -3 m 

  Cartesian lattice vectors (Angstroms) :

        3.918873    0.000000    0.000000
        0.000000    3.918873    0.000000
        0.000000    0.000000    3.918873

  Cell parameters (Angstroms/Degrees):

  a =       3.9189    alpha =  90.0000
  b =       3.9189    beta  =  90.0000
  c =       3.9189    gamma =  90.0000

  Initial cell volume =          60.184349 Angs**3

  Temperature of configuration =   0.00     K 

  Pressure of configuration =         0.000 GPa 

  Fractional coordinates of asymmetric unit :

--------------------------------------------------------------------------------
   No.  Atomic       x           y          z         Charge      Occupancy
        Label      (Frac)      (Frac)     (Frac)        (e)         (Frac)  
--------------------------------------------------------------------------------
      1 Cl    c    0.000000    0.000000    0.000000     1.48500    1.000000    
      2 O     c    0.500000    0.500000    0.500000     0.18300    1.000000    
      3 Li    c    0.500000    0.500000    0.000000     1.00000    1.000000    
      4 Cl    s    0.000000    0.000000    0.000000    -2.48500    1.000000    
      5 O     s    0.500000    0.500000    0.500000    -2.18300    1.000000    
--------------------------------------------------------------------------------


  Constraints : 

--------------------------------------------------------------------------------
  Constraint no.      Unconstrained     Constrained    Coefficient    Offset
                         Variable         Variable
--------------------------------------------------------------------------------
           1              Strain 1        Strain 2       1.00000      0.0000
           2              Strain 1        Strain 3       1.00000      0.0000
--------------------------------------------------------------------------------


********************************************************************************
*  General input information                                                   *
********************************************************************************

  Species output for all configurations : 

--------------------------------------------------------------------------------
  Species    Type    Atomic    Atomic    Charge       Radii (Angs)     Library
                     Number     Mass       (e)     Cova   Ionic  VDW   Symbol
--------------------------------------------------------------------------------
    Li       Core        3       6.94   1.000000   0.680  0.000  1.800          
    O        Core        8      16.00   0.183000   0.730  0.000  1.360          
    O        Shell       8       0.00  -2.183000   0.730  0.000  1.360          
    Cl       Core       17      35.45   1.485000   0.990  0.000  1.650          
    Cl       Shell      17       0.00  -2.485000   0.990  0.000  1.650          
    Mg       Core       12      24.31   0.415000   1.100  0.000  0.000          
    Mg       Shell      12       0.00   1.585000   1.100  0.000  0.000          
    Ca       Core       20      40.08  -1.135000   0.990  0.000  0.000          
    Ca       Shell      20       0.00   3.135000   0.990  0.000  0.000          
    Sr       Core       38      87.62  -1.251000   1.120  0.000  0.000          
    Sr       Shell      38       0.00   3.251000   1.120  0.000  0.000          
    Ba       Core       56     137.33  -7.203000   1.340  0.000  0.000          
    Ba       Shell      56       0.00   9.203000   1.340  0.000  0.000          
--------------------------------------------------------------------------------


  Lattice summation method               =    Ewald          (3-D)
                                         =    Parry          (2-D)
                                         =    Saunders et al (1-D)
  Accuracy factor for lattice sums       =   12.000


  Analytic derivatives to be used

  Time limit = Infinity

  Maximum range for interatomic potentials =    100000.000000 Angstroms

  General interatomic potentials :

--------------------------------------------------------------------------------
Atom  Types   Potential      Parameter       Value         Units   Cutoffs(Ang)
  1     2                                                            Min /  Max 
--------------------------------------------------------------------------------
O    c O    s Spring (c-s)  Spring k 2       593.71600    eV*Ang^-2 0.000  0.800
                            Spring k 4       0.0000000    eV*Ang^-4 
--------------------------------------------------------------------------------
Cl   c Cl   s Spring (c-s)  Spring k 2       29.380000    eV*Ang^-2 0.000  0.800
                            Spring k 4       0.0000000    eV*Ang^-4 
--------------------------------------------------------------------------------
Mg   c Mg   s Spring (c-s)  Spring k 2       361.60000    eV*Ang^-2 0.000  0.800
                            Spring k 4       0.0000000    eV*Ang^-4 
--------------------------------------------------------------------------------
Ca   c Ca   s Spring (c-s)  Spring k 2       110.20000    eV*Ang^-2 0.000  0.800
                            Spring k 4       0.0000000    eV*Ang^-4 
--------------------------------------------------------------------------------
Sr   c Sr   s Spring (c-s)  Spring k 2       71.700000    eV*Ang^-2 0.000  0.800
                            Spring k 4       0.0000000    eV*Ang^-4 
--------------------------------------------------------------------------------
Ba   c Ba   s Spring (c-s)  Spring k 2       495.20000    eV*Ang^-2 0.000  0.800
                            Spring k 4       0.0000000    eV*Ang^-4 
--------------------------------------------------------------------------------
Li   c Li   c Buckingham    Buckingham A     360.53000    eV        0.000 12.000
                            Buckingham rho  0.16100000    Ang       
                            Buckingham C     0.0000000    eV*Ang^6  
--------------------------------------------------------------------------------
Li   c O    s Buckingham    Buckingham A     292.30000    eV        0.000 12.000
                            Buckingham rho  0.34700000    Ang       
                            Buckingham C     0.0000000    eV*Ang^6  
--------------------------------------------------------------------------------
Li   c Cl   s Buckingham    Buckingham A     421.04000    eV        0.000 12.000
                            Buckingham rho  0.33400000    Ang       
                            Buckingham C     0.0000000    eV*Ang^6  
--------------------------------------------------------------------------------
O    s O    s Buckingham    Buckingham A     22764.300    eV        0.000 12.000
                            Buckingham rho  0.14900000    Ang       
                            Buckingham C     13.190000    eV*Ang^6  
--------------------------------------------------------------------------------
O    s Cl   s Buckingham    Buckingham A     8286.9100    eV        0.000 12.000
                            Buckingham rho  0.25900000    Ang       
                            Buckingham C     62.200000    eV*Ang^6  
--------------------------------------------------------------------------------
Cl   s Cl   s Buckingham    Buckingham A     1227.2000    eV        0.000 12.000
                            Buckingham rho  0.32100000    Ang       
                            Buckingham C     14.530000    eV*Ang^6  
--------------------------------------------------------------------------------
O    s Mg   s Buckingham    Buckingham A     1428.5000    eV        0.000 12.000
                            Buckingham rho  0.29450000    Ang       
                            Buckingham C     0.0000000    eV*Ang^6  
--------------------------------------------------------------------------------
Mg   s Cl   s Buckingham    Buckingham A     4914.5400    eV        0.000 12.000
                            Buckingham rho  0.25700000    Ang       
                            Buckingham C     0.0000000    eV*Ang^6  
--------------------------------------------------------------------------------
O    s Ca   s Buckingham    Buckingham A     1090.4000    eV        0.000 12.000
                            Buckingham rho  0.34370000    Ang       
                            Buckingham C     0.0000000    eV*Ang^6  
--------------------------------------------------------------------------------
Cl   s Ca   s Buckingham    Buckingham A     2302.0000    eV        0.000 12.000
                            Buckingham rho  0.34020000    Ang       
                            Buckingham C     0.0000000    eV*Ang^6  
--------------------------------------------------------------------------------
O    s Sr   s Buckingham    Buckingham A     959.10000    eV        0.000 12.000
                            Buckingham rho  0.37210000    Ang       
                            Buckingham C     0.0000000    eV*Ang^6  
--------------------------------------------------------------------------------
Cl   s Sr   s Buckingham    Buckingham A     2191.0900    eV        0.000 12.000
                            Buckingham rho  0.34570000    Ang       
                            Buckingham C     0.0000000    eV*Ang^6  
--------------------------------------------------------------------------------
O    s Ba   s Buckingham    Buckingham A     905.70000    eV        0.000 12.000
                            Buckingham rho  0.39760000    Ang       
                            Buckingham C     0.0000000    eV*Ang^6  
--------------------------------------------------------------------------------
Cl   s Ba   s Buckingham    Buckingham A     2704.5500    eV        0.000 12.000
                            Buckingham rho  0.35280000    Ang       
                            Buckingham C     0.0000000    eV*Ang^6  
--------------------------------------------------------------------------------

********************************************************************************
*  Output for configuration   1                                                *
********************************************************************************


  Components of energy : 

--------------------------------------------------------------------------------
  Interatomic potentials     =           7.24802695 eV    
  Monopole - monopole (real) =         -11.53475722 eV    
  Monopole - monopole (recip)=         -33.94580548 eV    
  Monopole - monopole (total)=         -45.48056271 eV    
--------------------------------------------------------------------------------
  Total lattice energy       =         -38.23253575 eV    
--------------------------------------------------------------------------------
  Total lattice energy       =           -3688.8553 kJ/(mole unit cells)
--------------------------------------------------------------------------------


  Number of variables =        1

  Maximum number of calculations  =          1000
  Maximum Hessian update interval =            10
  Maximum step size               =   1.000000000
  Maximum parameter tolerance     =   0.000010000
  Maximum function  tolerance     =   0.000010000
  Maximum gradient  tolerance     =   0.001000000
  Maximum gradient  component     =   0.010000000

  Symmetry constrained optimisation

  Symmetry used for second derivatives

  Cell parameters to be optimised using strains

  Newton-Raphson optimiser to be used

  BFGS hessian update to be used

  Lower half triangular hessian to be used

  Start of bulk optimisation :

  Cycle:      0 Energy:       -38.232536  Gnorm:      0.000019  CPU:    0.009


  **** Optimisation achieved ****


  Final energy =     -38.23253575 eV
  Final Gnorm  =       0.00001878

  Components of energy : 

--------------------------------------------------------------------------------
  Interatomic potentials     =           7.24802695 eV    
  Monopole - monopole (real) =         -11.53475722 eV    
  Monopole - monopole (recip)=         -33.94580548 eV    
  Monopole - monopole (total)=         -45.48056271 eV    
--------------------------------------------------------------------------------
  Total lattice energy       =         -38.23253575 eV    
--------------------------------------------------------------------------------
  Total lattice energy       =           -3688.8553 kJ/(mole unit cells)
--------------------------------------------------------------------------------

  Final asymmetric unit coordinates :

--------------------------------------------------------------------------------
   No.  Atomic        x           y           z         Radius
        Label       (Frac)      (Frac)      (Frac)       (Angs) 
--------------------------------------------------------------------------------
     1  Cl    c     0.000000    0.000000    0.000000    0.000000
     2  O     c     0.500000    0.500000    0.500000    0.000000
     3  Li    c     0.500000    0.500000    0.000000    0.000000
     4  Cl    s     0.000000    0.000000    0.000000    0.000000
     5  O     s     0.500000    0.500000    0.500000    0.000000
--------------------------------------------------------------------------------

  Final Cartesian lattice vectors (Angstroms) :

        3.918873    0.000000    0.000000
        0.000000    3.918873    0.000000
        0.000000    0.000000    3.918873


  Final cell parameters and derivatives :

--------------------------------------------------------------------------------
       a            3.918873 Angstrom     dE/de1(xx)    -0.000019 eV/strain
       b            3.918873 Angstrom     dE/de2(yy)     0.000000 eV/strain
       c            3.918873 Angstrom     dE/de3(zz)     0.000000 eV/strain
       alpha       90.000000 Degrees      dE/de4(yz)     0.000000 eV/strain
       beta        90.000000 Degrees      dE/de5(xz)     0.000000 eV/strain
       gamma       90.000000 Degrees      dE/de6(xy)     0.000000 eV/strain
--------------------------------------------------------------------------------

  Primitive cell volume =            60.184349 Angs**3

  Density of cell =      1.994024 g/cm**3

  Non-primitive cell volume =            60.184349 Angs**3


  Final internal derivatives :

--------------------------------------------------------------------------------
   No.  Atomic          a             b             c           Radius
        Label          (eV)          (eV)          (eV)        (eV/Angs)
--------------------------------------------------------------------------------
      1 Cl    c       0.000000      0.000000      0.000000      0.000000
      2 O     c       0.000000      0.000000      0.000000      0.000000
      3 Li    c       0.000000      0.000000      0.000000      0.000000
      4 Cl    s       0.000000      0.000000      0.000000      0.000000
      5 O     s       0.000000      0.000000      0.000000      0.000000
--------------------------------------------------------------------------------
  Maximum abs         0.000000      0.000000      0.000000      0.000000
--------------------------------------------------------------------------------

  Comparison of initial and final structures : 

--------------------------------------------------------------------------------
  Parameter   Initial value   Final value   Difference    Units      Percent
--------------------------------------------------------------------------------
    Volume        60.184349     60.184349     0.000000    Angs**3      0.00
    a              3.918873      3.918873     0.000000    Angstroms    0.00
    b              3.918873      3.918873     0.000000    Angstroms    0.00
    c              3.918873      3.918873     0.000000    Angstroms    0.00
    alpha         90.000000     90.000000     0.000000    Degrees      0.00
    beta          90.000000     90.000000     0.000000    Degrees      0.00
    gamma         90.000000     90.000000     0.000000    Degrees      0.00
      1 x          0.000000      0.000000     0.000000    Fractional   0.00
      1 y          0.000000      0.000000     0.000000    Fractional   0.00
      1 z          0.000000      0.000000     0.000000    Fractional   0.00
      2 x          0.500000      0.500000     0.000000    Fractional   0.00
      2 y          0.500000      0.500000     0.000000    Fractional   0.00
      2 z          0.500000      0.500000     0.000000    Fractional   0.00
      3 x          0.500000      0.500000     0.000000    Fractional   0.00
      3 y          0.500000      0.500000     0.000000    Fractional   0.00
      3 z          0.000000      0.000000     0.000000    Fractional   0.00
      4 x          0.000000      0.000000     0.000000    Fractional   0.00
      4 y          0.000000      0.000000     0.000000    Fractional   0.00
      4 z          0.000000      0.000000     0.000000    Fractional   0.00
      5 x          0.500000      0.500000     0.000000    Fractional   0.00
      5 y          0.500000      0.500000     0.000000    Fractional   0.00
      5 z          0.500000      0.500000     0.000000    Fractional   0.00
--------------------------------------------------------------------------------


  Born effective charge tensors : 

-------------------------------------------------------------------------------
  Atom             x           y             z
-------------------------------------------------------------------------------
    1 Cl    x      -0.9481      0.0000      0.0000
            y       0.0000     -0.9481      0.0000
            z       0.0000      0.0000     -0.9481
-------------------------------------------------------------------------------
    2 O     x      -2.4696     -0.0000     -0.0000
            y      -0.0000     -2.4696     -0.0000
            z      -0.0000     -0.0000     -2.4696
-------------------------------------------------------------------------------
    3 Li    x       1.3129     -0.0000     -0.0000
            y      -0.0000      1.3129      0.0000
            z      -0.0000     -0.0000      0.7918
-------------------------------------------------------------------------------




  Elastic Constant Matrix: (Units=GPa)

-------------------------------------------------------------------------------
  Indices      1         2         3         4         5         6    
-------------------------------------------------------------------------------
       1     94.4615   45.0779   45.0779    0.0000   -0.0000    0.0000
       2     45.0779   94.4615   45.0779   -0.0000    0.0000   -0.0000
       3     45.0779   45.0779   94.4615   -0.0000   -0.0000   -0.0000
       4      0.0000   -0.0000   -0.0000   45.0779   -0.0000   -0.0000
       5     -0.0000    0.0000   -0.0000   -0.0000   45.0779   -0.0000
       6      0.0000   -0.0000   -0.0000   -0.0000   -0.0000   45.0779
-------------------------------------------------------------------------------


  Elastic Compliance Matrix: (Units=1/GPa)

-------------------------------------------------------------------------------
  Indices      1         2         3         4         5         6    
-------------------------------------------------------------------------------
       1    0.015305 -0.004944 -0.004944 -0.000000  0.000000 -0.000000
       2   -0.004944  0.015305 -0.004944  0.000000 -0.000000  0.000000
       3   -0.004944 -0.004944  0.015305  0.000000  0.000000  0.000000
       4   -0.000000  0.000000  0.000000  0.022184  0.000000  0.000000
       5    0.000000 -0.000000  0.000000  0.000000  0.022184  0.000000
       6   -0.000000  0.000000  0.000000  0.000000  0.000000  0.022184
-------------------------------------------------------------------------------

  Mechanical properties :

-------------------------------------------------------------------------------
  Convention :                    Reuss         Voigt         Hill
-------------------------------------------------------------------------------
  Bulk  Modulus (GPa)     =      61.53912      61.53912      61.53912
  Shear Modulus (GPa)     =      33.88682      36.92346      35.40514
-------------------------------------------------------------------------------
  Velocity S-wave (km/s)  =       4.12240       4.30314       4.21374
  Velocity P-wave (km/s)  =       7.31578       7.45327       7.38484
-------------------------------------------------------------------------------
  Compressibility (1/GPa) =    0.01624983
-------------------------------------------------------------------------------
  Stress axis :                     x             y             z
-------------------------------------------------------------------------------
  Youngs Moduli (GPa)     =      65.33688      65.33688      65.33688
-------------------------------------------------------------------------------
  Poissons Ratio (x)      =                     0.32305       0.32305
  Poissons Ratio (y)      =       0.32305                     0.32305
  Poissons Ratio (z)      =       0.32305       0.32305
-------------------------------------------------------------------------------


  Piezoelectric Strain Matrix: (Units=C/m**2)

-------------------------------------------------------------------------------
  Indices      1         2         3         4         5         6    
-------------------------------------------------------------------------------
       x    -0.00000   0.00000   0.00000   0.00000   0.00000   0.00000
       y    -0.00000  -0.00000  -0.00000   0.00000   0.00000  -0.00000
       z    -0.00000  -0.00000   0.00000   0.00000  -0.00000   0.00000
-------------------------------------------------------------------------------


  Piezoelectric Stress Matrix: (Units=10**-11 C/N)

-------------------------------------------------------------------------------
  Indices      1         2         3         4         5         6    
-------------------------------------------------------------------------------
       x    -0.00000   0.00000   0.00000   0.00000   0.00000   0.00000
       y     0.00000   0.00000  -0.00000   0.00000   0.00000  -0.00000
       z    -0.00000  -0.00000   0.00000   0.00000  -0.00000   0.00000
-------------------------------------------------------------------------------


  Static dielectric constant tensor : 

-------------------------------------------------------------------------------
              x         y         z
-------------------------------------------------------------------------------
       x    12.07041   0.00000   0.00000
       y     0.00000  12.07041   0.00000
       z     0.00000   0.00000  12.07041
--------------------------------------------------------------------------------

  High frequency dielectric constant tensor : 

-------------------------------------------------------------------------------
              x         y         z
-------------------------------------------------------------------------------
       x     1.74197  -0.00000  -0.00000
       y    -0.00000   1.74197  -0.00000
       z    -0.00000  -0.00000   1.74197
-------------------------------------------------------------------------------

  Static refractive indices : 

-------------------------------------------------------------------------------
    1 =    3.47425      2 =    3.47425      3 =    3.47425
-------------------------------------------------------------------------------

  High frequency refractive indices : 

-------------------------------------------------------------------------------
    1 =    1.31984      2 =    1.31984      3 =    1.31984
-------------------------------------------------------------------------------


  Time to end of optimisation =       0.0129 seconds

********************************************************************************
*  Defect calculation for configuration   1 :                                  *
********************************************************************************

  Total number of defects =      3

  Total charge on defect  =   1.00

  Defect centre is at   1.9594   0.0000   0.0000  Angs

  Region 1 radius =  16.0000      Number of ions =   2030

  Number of symmetry inequivalent region 1 ions  =    191

  Region 2 radius =  20.0000      Number of ions =   1840

  Number of symmetry inequivalent region 2a ions =    146

  Region 2a mode = 4 : screened electrostatics due to region 1 
                       neglect correction to region 1 forces from 2a
                       region 2a displacements based on defects only

  Region 2a ions will only interact with defects in region 1

  Vacancies:

--------------------------------------------------------------------------------
    Specification type     Symbol/Number         x          y          z
--------------------------------------------------------------------------------
    Cartesian                                0.000000   0.000000   0.000000
    Cartesian                                3.918873   0.000000   0.000000
--------------------------------------------------------------------------------

  Interstitials:

--------------------------------------------------------------------------------
    Specification type     Symbol/Number         x          y          z
--------------------------------------------------------------------------------
    Atom/Cartesian          Cl               1.959436   0.000000   0.000000
--------------------------------------------------------------------------------


  Symmetry reduced region 1 (Relative to defect centre) :

--------------------------------------------------------------------------------
   No.   Atomic       x            y             z       Radius  Multiplicity   
         Label      (Angs)       (Angs)        (Angs)    (Angs)     
--------------------------------------------------------------------------------
     1  Cl    c      0.0000       0.0000       0.0000    0.0000     1    Defect
     2  Li    c      0.0000      -1.9594 *     0.0000    0.0000     4          
     3  O     c      0.0000      -1.9594 *    -1.9594    0.0000     4          
     4  Li    c      1.9594 *    -1.9594 *    -1.9594    0.0000     8          
     5  Cl    c      1.9594 *     0.0000       3.9189 *  0.0000     8          
     6  Li    c      0.0000      -1.9594 *     3.9189 *  0.0000     8          
     7  Li    c      3.9189 *    -1.9594 *     0.0000    0.0000     8          
     8  O     c      3.9189 *    -1.9594 *    -1.9594    0.0000     8          
     9  Cl    c      1.9594 *     3.9189 *     3.9189    0.0000     8          
    10  Cl    c      5.8783 *     0.0000       0.0000    0.0000     2          
    11  Li    c      0.0000       5.8783 *     0.0000    0.0000     4          
    12  Li    c      3.9189 *    -1.9594 *     3.9189 *  0.0000    16          
    13  O     c      0.0000      -1.9594 *     5.8783 *  0.0000     8          
    14  Li    c      1.9594 *     5.8783 *    -1.9594 *  0.0000    16          
    15  Li    c      5.8783 *    -1.9594 *    -1.9594    0.0000     8          
    16  Cl    c      5.8783 *     0.0000       3.9189 *  0.0000     8          
    17  Li    c      0.0000       5.8783 *     3.9189 *  0.0000     8          
    18  Li    c      3.9189 *     5.8783 *     0.0000    0.0000     8          
    19  O     c      3.9189 *    -1.9594 *     5.8783 *  0.0000    16          
    20  Li    c      7.8377 *    -1.9594 *     0.0000    0.0000     8          
    21  Cl    c      1.9594 *     0.0000       7.8377 *  0.0000     8          
    22  Cl    c      5.8783 *     3.9189 *     3.9189    0.0000     8          
    23  Li    c      0.0000      -1.9594 *     7.8377 *  0.0000     8          
    24  Li    c      3.9189 *     5.8783 *     3.9189 *  0.0000    16          
    25  O     c      7.8377 *    -1.9594 *    -1.9594    0.0000     8          
    26  O     c      0.0000       5.8783 *     5.8783    0.0000     4          
    27  Li    c      1.9594 *     5.8783 *     5.8783    0.0000     8          
    28  Li    c      5.8783 *    -1.9594 *     5.8783 *  0.0000    16          
    29  Li    c      7.8377 *    -1.9594 *     3.9189 *  0.0000    16          
    30  Cl    c      1.9594 *     3.9189 *     7.8377 *  0.0000    16          
    31  Li    c      3.9189 *    -1.9594 *     7.8377 *  0.0000    16          
    32  O     c      3.9189 *     5.8783 *     5.8783    0.0000     8          
    33  Cl    c      9.7972 *     0.0000       0.0000    0.0000     2          
    34  Li    c      0.0000       9.7972 *     0.0000    0.0000     4          
    35  Li    c      7.8377 *     5.8783 *     0.0000    0.0000     8          
    36  Cl    c      5.8783 *     0.0000       7.8377 *  0.0000     8          
    37  Li    c      0.0000       5.8783 *     7.8377 *  0.0000     8          
    38  O     c      0.0000      -1.9594 *     9.7972 *  0.0000     8          
    39  O     c      7.8377 *    -1.9594 *     5.8783 *  0.0000    16          
    40  Li    c      1.9594 *    -1.9594 *     9.7972 *  0.0000    16          
    41  Li    c      9.7972 *    -1.9594 *    -1.9594    0.0000     8          
    42  Li    c      5.8783 *     5.8783 *     5.8783    0.0000     8          
    43  Cl    c      9.7972 *     0.0000       3.9189 *  0.0000     8          
    44  Li    c      0.0000       9.7972 *     3.9189 *  0.0000     8          
    45  Li    c      3.9189 *     9.7972 *     0.0000    0.0000     8          
    46  Li    c      7.8377 *     5.8783 *     3.9189 *  0.0000    16          
    47  Li    c      3.9189 *     7.8377 *     5.8783 *  0.0000    16          
    48  Cl    c      5.8783 *     3.9189 *     7.8377 *  0.0000    16          
    49  O     c      3.9189 *    -1.9594 *     9.7972 *  0.0000    16          
    50  Li    c      7.8377 *    -1.9594 *     7.8377 *  0.0000    16          
    51  Cl    c      9.7972 *     3.9189 *     3.9189    0.0000     8          
    52  Li    c      3.9189 *     9.7972 *     3.9189 *  0.0000    16          
    53  Cl    c      1.9594 *     7.8377 *     7.8377    0.0000     8          
    54  O     c      0.0000       5.8783 *     9.7972 *  0.0000     8          
    55  O     c      7.8377 *     5.8783 *     5.8783    0.0000     8          
    56  Li    c      1.9594 *     5.8783 *     9.7972 *  0.0000    16          
    57  Li    c      5.8783 *    -1.9594 *     9.7972 *  0.0000    16          
    58  Li    c      9.7972 *    -1.9594 *     5.8783 *  0.0000    16          
    59  Li    c    -11.7566 *    -1.9594 *     0.0000    0.0000     8          
    60  Cl    c      1.9594 *     0.0000      11.7566 *  0.0000     8          
    61  Li    c      0.0000      -1.9594 *    11.7566 *  0.0000     8          
    62  O     c    -11.7566 *    -1.9594 *    -1.9594    0.0000     8          
    63  O     c      3.9189 *     5.8783 *     9.7972 *  0.0000    16          
    64  Li    c    -11.7566 *    -1.9594 *     3.9189 *  0.0000    16          
    65  Cl    c      1.9594 *    11.7566 *     3.9189 *  0.0000    16          
    66  Cl    c      9.7972 *     0.0000       7.8377 *  0.0000     8          
    67  Li    c      0.0000       9.7972 *     7.8377 *  0.0000     8          
    68  Li    c      7.8377 *     5.8783 *     7.8377 *  0.0000    16          
    69  Li    c      7.8377 *     9.7972 *     0.0000    0.0000     8          
    70  Li    c      3.9189 *    11.7566 *    -1.9594 *  0.0000    16          
    71  Cl    c      5.8783 *     7.8377 *     7.8377    0.0000     8          
    72  O     c      7.8377 *    -1.9594 *     9.7972 *  0.0000    16          
    73  Li    c      5.8783 *     5.8783 *     9.7972 *  0.0000    16          
    74  Li    c      9.7972 *     5.8783 *     5.8783    0.0000     8          
    75  Li    c    -11.7566 *     5.8783 *     0.0000    0.0000     8          
    76  Cl    c      9.7972 *     7.8377 *     3.9189 *  0.0000    16          
    77  Li    c      7.8377 *     9.7972 *     3.9189 *  0.0000    16          
    78  Li    c      3.9189 *     7.8377 *     9.7972 *  0.0000    16          
    79  Cl    c      5.8783 *     0.0000      11.7566 *  0.0000     8          
    80  Li    c      0.0000       5.8783 *    11.7566 *  0.0000     8          
    81  O     c    -11.7566 *    -1.9594 *     5.8783 *  0.0000    16          
    82  Cl    c    -13.7161 *     0.0000       0.0000    0.0000     2          
    83  Li    c    -11.7566 *     5.8783 *     3.9189 *  0.0000    16          
    84  Cl    c      5.8783 *    11.7566 *     3.9189 *  0.0000    16          
    85  Li    c      0.0000      13.7161 *     0.0000    0.0000     4          
    86  Li    c      3.9189 *    11.7566 *     5.8783 *  0.0000    16          
    87  O     c      0.0000      -1.9594 *    13.7161 *  0.0000     8          
    88  O     c      0.0000       9.7972 *     9.7972    0.0000     4          
    89  O     c      7.8377 *     5.8783 *     9.7972 *  0.0000    16          
    90  Li    c    -13.7161 *    -1.9594 *    -1.9594    0.0000     8          
    91  Li    c      1.9594 *     9.7972 *     9.7972    0.0000     8          
    92  Li    c      1.9594 *    13.7161 *    -1.9594 *  0.0000    16          
    93  Li    c      9.7972 *    -1.9594 *     9.7972 *  0.0000    16          
    94  Cl    c    -13.7161 *     0.0000       3.9189 *  0.0000     8          
    95  Li    c    -11.7566 *    -1.9594 *     7.8377 *  0.0000    16          
    96  Li    c      0.0000      13.7161 *     3.9189 *  0.0000     8          
    97  Li    c      3.9189 *    13.7161 *     0.0000    0.0000     8          
    98  Li    c      7.8377 *    11.7566 *    -1.9594 *  0.0000    16          
    99  Cl    c      1.9594 *     7.8377 *    11.7566 *  0.0000    16          
   100  O     c    -11.7566 *     5.8783 *     5.8783    0.0000     8          
   101  O     c      3.9189 *     9.7972 *     9.7972    0.0000     8          
   102  O     c      3.9189 *    13.7161 *    -1.9594 *  0.0000    16          
   103  Cl    c    -13.7161 *     3.9189 *     3.9189    0.0000     8          
   104  Li    c      3.9189 *    13.7161 *     3.9189 *  0.0000    16          
   105  Li    c      7.8377 *     7.8377 *     9.7972 *  0.0000    16          
   106  Cl    c      9.7972 *     7.8377 *     7.8377    0.0000     8          
   107  O     c      0.0000       5.8783 *    13.7161 *  0.0000     8          
   108  Li    c    -13.7161 *    -1.9594 *     5.8783 *  0.0000    16          
   109  Li    c      1.9594 *    13.7161 *     5.8783 *  0.0000    16          
   110  Li    c      5.8783 *    13.7161 *    -1.9594 *  0.0000    16          
   111  Li    c      9.7972 *     9.7972 *     5.8783 *  0.0000    16          
   112  Li    c      5.8783 *     9.7972 *     9.7972    0.0000     8          
   113  Li    c    -11.7566 *     9.7972 *     0.0000    0.0000     8          
   114  Li    c    -11.7566 *     5.8783 *     7.8377 *  0.0000    16          
   115  Cl    c      9.7972 *     0.0000      11.7566 *  0.0000     8          
   116  Li    c      0.0000       9.7972 *    11.7566 *  0.0000     8          
   117  Li    c      7.8377 *     5.8783 *    11.7566 *  0.0000    16          
   118  Cl    c      5.8783 *     7.8377 *    11.7566 *  0.0000    16          
   119  O     c    -11.7566 *     9.7972 *    -1.9594 *  0.0000    16          
   120  O     c      3.9189 *    13.7161 *     5.8783 *  0.0000    16          
   121  Li    c    -11.7566 *     9.7972 *     3.9189 *  0.0000    16          
   122  Cl    c    -13.7161 *     0.0000       7.8377 *  0.0000     8          
   123  Cl    c      9.7972 *    11.7566 *     3.9189 *  0.0000    16          
   124  Li    c      7.8377 *    13.7161 *     0.0000    0.0000     8          
   125  Cl    c      1.9594 *     0.0000      15.6755 *  0.0000     8          
   126  Li    c      0.0000      -1.9594 *    15.6755 *  0.0000     8          
   127  Li    c      0.0000      13.7161 *     7.8377 *  0.0000     8          
   128  Li    c      3.9189 *     9.7972 *    11.7566 *  0.0000    16          
   129  Li    c     15.6755 *    -1.9594 *     0.0000    0.0000     8          
   130  O     c      7.8377 *    -1.9594 *    13.7161 *  0.0000    16          
   131  O     c      7.8377 *     9.7972 *     9.7972    0.0000     8          
   132  O     c     15.6755 *    -1.9594 *    -1.9594    0.0000     8          
   133  Cl    s      0.0000       0.0000       0.0000    0.0000     1    Defect
   134  O     s      0.0000      -1.9594 *    -1.9594    0.0000     4          
   135  Cl    s      1.9594 *     0.0000       3.9189 *  0.0000     8          
   136  O     s      3.9189 *    -1.9594 *    -1.9594    0.0000     8          
   137  Cl    s      1.9594 *     3.9189 *     3.9189    0.0000     8          
   138  Cl    s      5.8783 *     0.0000       0.0000    0.0000     2          
   139  O     s      0.0000      -1.9594 *     5.8783 *  0.0000     8          
   140  Cl    s      5.8783 *     0.0000       3.9189 *  0.0000     8          
   141  O     s      3.9189 *    -1.9594 *     5.8783 *  0.0000    16          
   142  Cl    s      1.9594 *     0.0000       7.8377 *  0.0000     8          
   143  Cl    s      5.8783 *     3.9189 *     3.9189    0.0000     8          
   144  O     s      7.8377 *    -1.9594 *    -1.9594    0.0000     8          
   145  O     s      0.0000       5.8783 *     5.8783    0.0000     4          
   146  Cl    s      1.9594 *     3.9189 *     7.8377 *  0.0000    16          
   147  O     s      3.9189 *     5.8783 *     5.8783    0.0000     8          
   148  Cl    s      9.7972 *     0.0000       0.0000    0.0000     2          
   149  Cl    s      5.8783 *     0.0000       7.8377 *  0.0000     8          
   150  O     s      0.0000      -1.9594 *     9.7972 *  0.0000     8          
   151  O     s      7.8377 *    -1.9594 *     5.8783 *  0.0000    16          
   152  Cl    s      9.7972 *     0.0000       3.9189 *  0.0000     8          
   153  Cl    s      5.8783 *     3.9189 *     7.8377 *  0.0000    16          
   154  O     s      3.9189 *    -1.9594 *     9.7972 *  0.0000    16          
   155  Cl    s      9.7972 *     3.9189 *     3.9189    0.0000     8          
   156  Cl    s      1.9594 *     7.8377 *     7.8377    0.0000     8          
   157  O     s      0.0000       5.8783 *     9.7972 *  0.0000     8          
   158  O     s      7.8377 *     5.8783 *     5.8783    0.0000     8          
   159  Cl    s      1.9594 *     0.0000      11.7566 *  0.0000     8          
   160  O     s    -11.7566 *    -1.9594 *    -1.9594    0.0000     8          
   161  O     s      3.9189 *     5.8783 *     9.7972 *  0.0000    16          
   162  Cl    s      1.9594 *    11.7566 *     3.9189 *  0.0000    16          
   163  Cl    s      9.7972 *     0.0000       7.8377 *  0.0000     8          
   164  Cl    s      5.8783 *     7.8377 *     7.8377    0.0000     8          
   165  O     s      7.8377 *    -1.9594 *     9.7972 *  0.0000    16          
   166  Cl    s      9.7972 *     7.8377 *     3.9189 *  0.0000    16          
   167  Cl    s      5.8783 *     0.0000      11.7566 *  0.0000     8          
   168  O     s    -11.7566 *    -1.9594 *     5.8783 *  0.0000    16          
   169  Cl    s    -13.7161 *     0.0000       0.0000    0.0000     2          
   170  Cl    s      5.8783 *    11.7566 *     3.9189 *  0.0000    16          
   171  O     s      0.0000      -1.9594 *    13.7161 *  0.0000     8          
   172  O     s      0.0000       9.7972 *     9.7972    0.0000     4          
   173  O     s      7.8377 *     5.8783 *     9.7972 *  0.0000    16          
   174  Cl    s    -13.7161 *     0.0000       3.9189 *  0.0000     8          
   175  Cl    s      1.9594 *     7.8377 *    11.7566 *  0.0000    16          
   176  O     s    -11.7566 *     5.8783 *     5.8783    0.0000     8          
   177  O     s      3.9189 *     9.7972 *     9.7972    0.0000     8          
   178  O     s      3.9189 *    13.7161 *    -1.9594 *  0.0000    16          
   179  Cl    s    -13.7161 *     3.9189 *     3.9189    0.0000     8          
   180  Cl    s      9.7972 *     7.8377 *     7.8377    0.0000     8          
   181  O     s      0.0000       5.8783 *    13.7161 *  0.0000     8          
   182  Cl    s      9.7972 *     0.0000      11.7566 *  0.0000     8          
   183  Cl    s      5.8783 *     7.8377 *    11.7566 *  0.0000    16          
   184  O     s    -11.7566 *     9.7972 *    -1.9594 *  0.0000    16          
   185  O     s      3.9189 *    13.7161 *     5.8783 *  0.0000    16          
   186  Cl    s    -13.7161 *     0.0000       7.8377 *  0.0000     8          
   187  Cl    s      9.7972 *    11.7566 *     3.9189 *  0.0000    16          
   188  Cl    s      1.9594 *     0.0000      15.6755 *  0.0000     8          
   189  O     s      7.8377 *    -1.9594 *    13.7161 *  0.0000    16          
   190  O     s      7.8377 *     9.7972 *     9.7972    0.0000     8          
   191  O     s     15.6755 *    -1.9594 *    -1.9594    0.0000     8          
--------------------------------------------------------------------------------


  Constraints on symmetry reduced coordinates :

--------------------------------------------------------------------------------
  Constraint no.      Unconstrained     Constrained    Coefficient    
                         Variable         Variable
--------------------------------------------------------------------------------
           1                 3 y             3 z         1.00000
           2                 4 y             4 z         1.00000
           3                 8 y             8 z         1.00000
           4                 9 y             9 z         1.00000
           5                15 y            15 z         1.00000
           6                22 y            22 z         1.00000
           7                25 y            25 z         1.00000
           8                26 y            26 z         1.00000
           9                27 y            27 z         1.00000
          10                32 y            32 z         1.00000
          11                41 y            41 z         1.00000
          12                42 y            42 z         1.00000
          13                51 y            51 z         1.00000
          14                53 y            53 z         1.00000
          15                55 y            55 z         1.00000
          16                62 y            62 z         1.00000
          17                71 y            71 z         1.00000
          18                74 y            74 z         1.00000
          19                88 y            88 z         1.00000
          20                90 y            90 z         1.00000
          21                91 y            91 z         1.00000
          22               100 y           100 z         1.00000
          23               101 y           101 z         1.00000
          24               103 y           103 z         1.00000
          25               106 y           106 z         1.00000
          26               112 y           112 z         1.00000
          27               131 y           131 z         1.00000
          28               132 y           132 z         1.00000
          29               134 y           134 z         1.00000
          30               136 y           136 z         1.00000
          31               137 y           137 z         1.00000
          32               143 y           143 z         1.00000
          33               144 y           144 z         1.00000
          34               145 y           145 z         1.00000
          35               147 y           147 z         1.00000
          36               155 y           155 z         1.00000
          37               156 y           156 z         1.00000
          38               158 y           158 z         1.00000
          39               160 y           160 z         1.00000
          40               164 y           164 z         1.00000
          41               172 y           172 z         1.00000
          42               176 y           176 z         1.00000
          43               177 y           177 z         1.00000
          44               179 y           179 z         1.00000
          45               180 y           180 z         1.00000
          46               190 y           190 z         1.00000
          47               191 y           191 z         1.00000
--------------------------------------------------------------------------------


  Components of defect energy : 

--------------------------------------------------------------------------------
  Region 1 - region 1                   =    -17.80120061 eV
  Region 1 - region 2a (unrelaxed)      =     28.52883106 eV
  Region 1 - 2a (relaxed - correction)  =     -0.16040934 eV
  Region 1 (Total)                      =     10.56722110 eV
  Region 2a                             =      0.08021122 eV
  Region 2b                             =     -0.33078215 eV
--------------------------------------------------------------------------------
  Total defect energy                   =     10.31665017 eV
--------------------------------------------------------------------------------

  Largest displacement in region 2 =   0.0052 Angstroms


  Number of variables =      436

  Maximum number of calculations  =        1000
  Maximum Hessian update interval =          10
  Maximum step size               =   1.0000000
  Maximum parameter tolerance     =   0.0000100
  Maximum function  tolerance     =   0.0000100
  Maximum gradient  tolerance     =   0.0010000

  Symmetry adapted optimisation

  Symmetry to be used for second derivatives

  Newton-Raphson optimiser to be used

  BFGS hessian update to be used

  Lower half triangular hessian to be used

  Start of defect optimisation :

  Cycle:      0 Defect Energy:  10.316650  Gnorm:     0.102553  CPU:   10.430
  ** Hessian calculated **
  Cycle:      1 Defect Energy:   7.006033  Gnorm:     0.007446  CPU:   18.132
  Cycle:      2 Defect Energy:   6.980717  Gnorm:     0.005720  CPU:   19.264
  Cycle:      3 Defect Energy:   6.957774  Gnorm:     0.003988  CPU:   20.484
  Cycle:      4 Defect Energy:   6.945755  Gnorm:     0.002803  CPU:   22.014
  Cycle:      5 Defect Energy:   6.939465  Gnorm:     0.001966  CPU:   23.536
  Cycle:      6 Defect Energy:   6.936220  Gnorm:     0.001379  CPU:   25.085
  Cycle:      7 Defect Energy:   6.934562  Gnorm:     0.000967  CPU:   26.317
  Cycle:      8 Defect Energy:   6.933719  Gnorm:     0.000677  CPU:   27.828
  Cycle:      9 Defect Energy:   6.933293  Gnorm:     0.000474  CPU:   29.672
  Cycle:     10 Defect Energy:   6.933076  Gnorm:     0.000332  CPU:   31.264
  ** Hessian calculated **
  Cycle:     11 Defect Energy:   6.932966  Gnorm:     0.000233  CPU:   35.826
  Cycle:     12 Defect Energy:   6.932910  Gnorm:     0.000163  CPU:   37.595
  Cycle:     13 Defect Energy:   6.932880  Gnorm:     0.000114  CPU:   39.253
  Cycle:     14 Defect Energy:   6.932865  Gnorm:     0.000080  CPU:   40.990
  Cycle:     15 Defect Energy:   6.932856  Gnorm:     0.000056  CPU:   42.172


  **** Optimisation achieved ****


  Final defect energy  =        6.93285152
  Final defect Gnorm   =        0.00003915

  Components of defect energy : 

--------------------------------------------------------------------------------
  Region 1 - region 1                   =    -21.10336177 eV
  Region 1 - region 2a (unrelaxed)      =     28.43152665 eV
  Region 1 - 2a (relaxed - correction)  =     -0.12905621 eV
  Region 1 (Total)                      =      7.19910867 eV
  Region 2a                             =      0.06452500 eV
  Region 2b                             =     -0.33078215 eV
--------------------------------------------------------------------------------
  Total defect energy                   =      6.93285152 eV
--------------------------------------------------------------------------------

  Largest displacement in region 2 =   0.0052 Angstroms

  Final coordinates of region 1 :

--------------------------------------------------------------------------------
   No.  Atomic        x           y           z          Radius      Charge
        Label       (Angs)      (Angs)      (Angs)       (Angs)       (e) 
--------------------------------------------------------------------------------
     1  Cl    c     1.959436    0.000000    0.000000    0.000000    1.485000
     2  Li    c     1.959436   -2.211849    0.000000    0.000000    1.000000
     3  Li    c     1.959436    2.211849    0.000000    0.000000    1.000000
     4  Li    c     1.959436    0.000000   -2.211849    0.000000    1.000000
     5  Li    c     1.959436    0.000000    2.211849    0.000000    1.000000
     6  O     c     1.959436   -2.113029   -2.113029    0.000000    0.183000
     7  O     c     1.959436   -2.113029    2.113029    0.000000    0.183000
     8  O     c     1.959436    2.113029   -2.113029    0.000000    0.183000
     9  O     c     1.959436    2.113029    2.113029    0.000000    0.183000
    10  Li    c     3.863810   -2.062822   -2.062822    0.000000    1.000000
    11  Li    c     3.863810   -2.062822    2.062822    0.000000    1.000000
    12  Li    c     3.863810    2.062822   -2.062822    0.000000    1.000000
    13  Li    c     3.863810    2.062822    2.062822    0.000000    1.000000
    14  Li    c     0.055063   -2.062822   -2.062822    0.000000    1.000000
    15  Li    c     0.055063   -2.062822    2.062822    0.000000    1.000000
    16  Li    c     0.055063    2.062822   -2.062822    0.000000    1.000000
    17  Li    c     0.055063    2.062822    2.062822    0.000000    1.000000
    18  Cl    c     3.899173    0.000000    3.911650    0.000000    1.485000
    19  Cl    c     3.899173    0.000000   -3.911650    0.000000    1.485000
    20  Cl    c     3.899173    3.911650    0.000000    0.000000    1.485000
    21  Cl    c     3.899173   -3.911650    0.000000    0.000000    1.485000
    22  Cl    c     0.019700    0.000000    3.911650    0.000000    1.485000
    23  Cl    c     0.019700    0.000000   -3.911650    0.000000    1.485000
    24  Cl    c     0.019700    3.911650    0.000000    0.000000    1.485000
    25  Cl    c     0.019700   -3.911650    0.000000    0.000000    1.485000
    26  Li    c     1.959436   -2.063792    4.006610    0.000000    1.000000
    27  Li    c     1.959436   -2.063792   -4.006610    0.000000    1.000000
    28  Li    c     1.959436    2.063792    4.006610    0.000000    1.000000
    29  Li    c     1.959436    2.063792   -4.006610    0.000000    1.000000
    30  Li    c     1.959436    4.006610   -2.063792    0.000000    1.000000
    31  Li    c     1.959436    4.006610    2.063792    0.000000    1.000000
    32  Li    c     1.959436   -4.006610   -2.063792    0.000000    1.000000
    33  Li    c     1.959436   -4.006610    2.063792    0.000000    1.000000
    34  Li    c     5.890364   -2.034372    0.000000    0.000000    1.000000
    35  Li    c     5.890364    2.034372    0.000000    0.000000    1.000000
    36  Li    c    -1.971491   -2.034372    0.000000    0.000000    1.000000
    37  Li    c    -1.971491    2.034372    0.000000    0.000000    1.000000
    38  Li    c     5.890364    0.000000   -2.034372    0.000000    1.000000
    39  Li    c     5.890364    0.000000    2.034372    0.000000    1.000000
    40  Li    c    -1.971491    0.000000   -2.034372    0.000000    1.000000
    41  Li    c    -1.971491    0.000000    2.034372    0.000000    1.000000
    42  O     c     5.801970   -1.931101   -1.931101    0.000000    0.183000
    43  O     c     5.801970   -1.931101    1.931101    0.000000    0.183000
    44  O     c     5.801970    1.931101   -1.931101    0.000000    0.183000
    45  O     c     5.801970    1.931101    1.931101    0.000000    0.183000
    46  O     c    -1.883097   -1.931101   -1.931101    0.000000    0.183000
    47  O     c    -1.883097   -1.931101    1.931101    0.000000    0.183000
    48  O     c    -1.883097    1.931101   -1.931101    0.000000    0.183000
    49  O     c    -1.883097    1.931101    1.931101    0.000000    0.183000
    50  Cl    c     3.953189    3.962861    3.962861    0.000000    1.485000
    51  Cl    c     3.953189    3.962861   -3.962861    0.000000    1.485000
    52  Cl    c     3.953189   -3.962861    3.962861    0.000000    1.485000
    53  Cl    c     3.953189   -3.962861   -3.962861    0.000000    1.485000
    54  Cl    c    -0.034316    3.962861    3.962861    0.000000    1.485000
    55  Cl    c    -0.034316    3.962861   -3.962861    0.000000    1.485000
    56  Cl    c    -0.034316   -3.962861    3.962861    0.000000    1.485000
    57  Cl    c    -0.034316   -3.962861   -3.962861    0.000000    1.485000
    58  Cl    c     7.760857    0.000000    0.000000    0.000000    1.485000
    59  Cl    c    -3.841984    0.000000    0.000000    0.000000    1.485000
    60  Li    c     1.959436    5.897881    0.000000    0.000000    1.000000
    61  Li    c     1.959436   -5.897881    0.000000    0.000000    1.000000
    62  Li    c     1.959436    0.000000    5.897881    0.000000    1.000000
    63  Li    c     1.959436    0.000000   -5.897881    0.000000    1.000000
    64  Li    c     5.862242   -1.969173    3.938764    0.000000    1.000000
    65  Li    c     5.862242   -1.969173   -3.938764    0.000000    1.000000
    66  Li    c     5.862242    1.969173    3.938764    0.000000    1.000000
    67  Li    c     5.862242    1.969173   -3.938764    0.000000    1.000000
    68  Li    c    -1.943369   -1.969173    3.938764    0.000000    1.000000
    69  Li    c    -1.943369   -1.969173   -3.938764    0.000000    1.000000
    70  Li    c    -1.943369    1.969173    3.938764    0.000000    1.000000
    71  Li    c    -1.943369    1.969173   -3.938764    0.000000    1.000000
    72  Li    c     5.862242    3.938764   -1.969173    0.000000    1.000000
    73  Li    c     5.862242    3.938764    1.969173    0.000000    1.000000
    74  Li    c     5.862242   -3.938764   -1.969173    0.000000    1.000000
    75  Li    c     5.862242   -3.938764    1.969173    0.000000    1.000000
    76  Li    c    -1.943369    3.938764   -1.969173    0.000000    1.000000
    77  Li    c    -1.943369    3.938764    1.969173    0.000000    1.000000
    78  Li    c    -1.943369   -3.938764   -1.969173    0.000000    1.000000
    79  Li    c    -1.943369   -3.938764    1.969173    0.000000    1.000000
    80  O     c     1.959436   -1.979543    5.915453    0.000000    0.183000
    81  O     c     1.959436   -1.979543   -5.915453    0.000000    0.183000
    82  O     c     1.959436    1.979543    5.915453    0.000000    0.183000
    83  O     c     1.959436    1.979543   -5.915453    0.000000    0.183000
    84  O     c     1.959436    5.915453   -1.979543    0.000000    0.183000
    85  O     c     1.959436    5.915453    1.979543    0.000000    0.183000
    86  O     c     1.959436   -5.915453   -1.979543    0.000000    0.183000
    87  O     c     1.959436   -5.915453    1.979543    0.000000    0.183000
    88  Li    c     3.920593    5.929182   -1.973511    0.000000    1.000000
    89  Li    c     3.920593    5.929182    1.973511    0.000000    1.000000
    90  Li    c     3.920593   -5.929182   -1.973511    0.000000    1.000000
    91  Li    c     3.920593   -5.929182    1.973511    0.000000    1.000000
    92  Li    c    -0.001720    5.929182   -1.973511    0.000000    1.000000
    93  Li    c    -0.001720    5.929182    1.973511    0.000000    1.000000
    94  Li    c    -0.001720   -5.929182   -1.973511    0.000000    1.000000
    95  Li    c    -0.001720   -5.929182    1.973511    0.000000    1.000000
    96  Li    c     3.920593   -1.973511    5.929182    0.000000    1.000000
    97  Li    c     3.920593   -1.973511   -5.929182    0.000000    1.000000
    98  Li    c     3.920593    1.973511    5.929182    0.000000    1.000000
    99  Li    c     3.920593    1.973511   -5.929182    0.000000    1.000000
   100  Li    c    -0.001720   -1.973511    5.929182    0.000000    1.000000
   101  Li    c    -0.001720   -1.973511   -5.929182    0.000000    1.000000
   102  Li    c    -0.001720    1.973511    5.929182    0.000000    1.000000
   103  Li    c    -0.001720    1.973511   -5.929182    0.000000    1.000000
   104  Li    c     7.822935   -1.953636   -1.953636    0.000000    1.000000
   105  Li    c     7.822935   -1.953636    1.953636    0.000000    1.000000
   106  Li    c     7.822935    1.953636   -1.953636    0.000000    1.000000
   107  Li    c     7.822935    1.953636    1.953636    0.000000    1.000000
   108  Li    c    -3.904062   -1.953636   -1.953636    0.000000    1.000000
   109  Li    c    -3.904062   -1.953636    1.953636    0.000000    1.000000
   110  Li    c    -3.904062    1.953636   -1.953636    0.000000    1.000000
   111  Li    c    -3.904062    1.953636    1.953636    0.000000    1.000000
   112  Cl    c     7.796696    0.000000    3.895003    0.000000    1.485000
   113  Cl    c     7.796696    0.000000   -3.895003    0.000000    1.485000
   114  Cl    c     7.796696    3.895003    0.000000    0.000000    1.485000
   115  Cl    c     7.796696   -3.895003    0.000000    0.000000    1.485000
   116  Cl    c    -3.877823    0.000000    3.895003    0.000000    1.485000
   117  Cl    c    -3.877823    0.000000   -3.895003    0.000000    1.485000
   118  Cl    c    -3.877823    3.895003    0.000000    0.000000    1.485000
   119  Cl    c    -3.877823   -3.895003    0.000000    0.000000    1.485000
   120  Li    c     1.959436    5.946940    3.955191    0.000000    1.000000
   121  Li    c     1.959436    5.946940   -3.955191    0.000000    1.000000
   122  Li    c     1.959436   -5.946940    3.955191    0.000000    1.000000
   123  Li    c     1.959436   -5.946940   -3.955191    0.000000    1.000000
   124  Li    c     1.959436    3.955191    5.946940    0.000000    1.000000
   125  Li    c     1.959436    3.955191   -5.946940    0.000000    1.000000
   126  Li    c     1.959436   -3.955191    5.946940    0.000000    1.000000
   127  Li    c     1.959436   -3.955191   -5.946940    0.000000    1.000000
   128  Li    c     5.876318    5.902315    0.000000    0.000000    1.000000
   129  Li    c     5.876318   -5.902315    0.000000    0.000000    1.000000
   130  Li    c    -1.957445    5.902315    0.000000    0.000000    1.000000
   131  Li    c    -1.957445   -5.902315    0.000000    0.000000    1.000000
   132  Li    c     5.876318    0.000000    5.902315    0.000000    1.000000
   133  Li    c     5.876318    0.000000   -5.902315    0.000000    1.000000
   134  Li    c    -1.957445    0.000000    5.902315    0.000000    1.000000
   135  Li    c    -1.957445    0.000000   -5.902315    0.000000    1.000000
   136  O     c     5.870523   -1.957037    5.884969    0.000000    0.183000
   137  O     c     5.870523   -1.957037   -5.884969    0.000000    0.183000
   138  O     c     5.870523    1.957037    5.884969    0.000000    0.183000
   139  O     c     5.870523    1.957037   -5.884969    0.000000    0.183000
   140  O     c     5.870523    5.884969   -1.957037    0.000000    0.183000
   141  O     c     5.870523    5.884969    1.957037    0.000000    0.183000
   142  O     c     5.870523   -5.884969   -1.957037    0.000000    0.183000
   143  O     c     5.870523   -5.884969    1.957037    0.000000    0.183000
   144  O     c    -1.951650   -1.957037    5.884969    0.000000    0.183000
   145  O     c    -1.951650   -1.957037   -5.884969    0.000000    0.183000
   146  O     c    -1.951650    1.957037    5.884969    0.000000    0.183000
   147  O     c    -1.951650    1.957037   -5.884969    0.000000    0.183000
   148  O     c    -1.951650    5.884969   -1.957037    0.000000    0.183000
   149  O     c    -1.951650    5.884969    1.957037    0.000000    0.183000
   150  O     c    -1.951650   -5.884969   -1.957037    0.000000    0.183000
   151  O     c    -1.951650   -5.884969    1.957037    0.000000    0.183000
   152  Li    c     9.795623   -1.959864    0.000000    0.000000    1.000000
   153  Li    c     9.795623    1.959864    0.000000    0.000000    1.000000
   154  Li    c     9.795623    0.000000   -1.959864    0.000000    1.000000
   155  Li    c     9.795623    0.000000    1.959864    0.000000    1.000000
   156  Li    c    -5.876750   -1.959864    0.000000    0.000000    1.000000
   157  Li    c    -5.876750    1.959864    0.000000    0.000000    1.000000
   158  Li    c    -5.876750    0.000000   -1.959864    0.000000    1.000000
   159  Li    c    -5.876750    0.000000    1.959864    0.000000    1.000000
   160  Cl    c     3.917479    0.000000    7.840012    0.000000    1.485000
   161  Cl    c     3.917479    0.000000   -7.840012    0.000000    1.485000
   162  Cl    c     3.917479    7.840012    0.000000    0.000000    1.485000
   163  Cl    c     3.917479   -7.840012    0.000000    0.000000    1.485000
   164  Cl    c     0.001394    0.000000    7.840012    0.000000    1.485000
   165  Cl    c     0.001394    0.000000   -7.840012    0.000000    1.485000
   166  Cl    c     0.001394    7.840012    0.000000    0.000000    1.485000
   167  Cl    c     0.001394   -7.840012    0.000000    0.000000    1.485000
   168  Cl    c     7.806975    3.895457    3.895457    0.000000    1.485000
   169  Cl    c     7.806975    3.895457   -3.895457    0.000000    1.485000
   170  Cl    c     7.806975   -3.895457    3.895457    0.000000    1.485000
   171  Cl    c     7.806975   -3.895457   -3.895457    0.000000    1.485000
   172  Cl    c    -3.888102    3.895457    3.895457    0.000000    1.485000
   173  Cl    c    -3.888102    3.895457   -3.895457    0.000000    1.485000
   174  Cl    c    -3.888102   -3.895457    3.895457    0.000000    1.485000
   175  Cl    c    -3.888102   -3.895457   -3.895457    0.000000    1.485000
   176  Li    c     1.959436   -1.959351    7.865625    0.000000    1.000000
   177  Li    c     1.959436   -1.959351   -7.865625    0.000000    1.000000
   178  Li    c     1.959436    1.959351    7.865625    0.000000    1.000000
   179  Li    c     1.959436    1.959351   -7.865625    0.000000    1.000000
   180  Li    c     1.959436    7.865625   -1.959351    0.000000    1.000000
   181  Li    c     1.959436    7.865625    1.959351    0.000000    1.000000
   182  Li    c     1.959436   -7.865625   -1.959351    0.000000    1.000000
   183  Li    c     1.959436   -7.865625    1.959351    0.000000    1.000000
   184  Li    c     5.877230    5.890617    3.930951    0.000000    1.000000
   185  Li    c     5.877230    5.890617   -3.930951    0.000000    1.000000
   186  Li    c     5.877230   -5.890617    3.930951    0.000000    1.000000
   187  Li    c     5.877230   -5.890617   -3.930951    0.000000    1.000000
   188  Li    c    -1.958357    5.890617    3.930951    0.000000    1.000000
   189  Li    c    -1.958357    5.890617   -3.930951    0.000000    1.000000
   190  Li    c    -1.958357   -5.890617    3.930951    0.000000    1.000000
   191  Li    c    -1.958357   -5.890617   -3.930951    0.000000    1.000000
   192  Li    c     5.877230    3.930951    5.890617    0.000000    1.000000
   193  Li    c     5.877230    3.930951   -5.890617    0.000000    1.000000
   194  Li    c     5.877230   -3.930951    5.890617    0.000000    1.000000
   195  Li    c     5.877230   -3.930951   -5.890617    0.000000    1.000000
   196  Li    c    -1.958357    3.930951    5.890617    0.000000    1.000000
   197  Li    c    -1.958357    3.930951   -5.890617    0.000000    1.000000
   198  Li    c    -1.958357   -3.930951    5.890617    0.000000    1.000000
   199  Li    c    -1.958357   -3.930951   -5.890617    0.000000    1.000000
   200  O     c     9.775988   -1.953553   -1.953553    0.000000    0.183000
   201  O     c     9.775988   -1.953553    1.953553    0.000000    0.183000
   202  O     c     9.775988    1.953553   -1.953553    0.000000    0.183000
   203  O     c     9.775988    1.953553    1.953553    0.000000    0.183000
   204  O     c    -5.857115   -1.953553   -1.953553    0.000000    0.183000
   205  O     c    -5.857115   -1.953553    1.953553    0.000000    0.183000
   206  O     c    -5.857115    1.953553   -1.953553    0.000000    0.183000
   207  O     c    -5.857115    1.953553    1.953553    0.000000    0.183000
   208  O     c     1.959436    5.899777    5.899777    0.000000    0.183000
   209  O     c     1.959436    5.899777   -5.899777    0.000000    0.183000
   210  O     c     1.959436   -5.899777    5.899777    0.000000    0.183000
   211  O     c     1.959436   -5.899777   -5.899777    0.000000    0.183000
   212  Li    c     3.927335    5.898865    5.898865    0.000000    1.000000
   213  Li    c     3.927335    5.898865   -5.898865    0.000000    1.000000
   214  Li    c     3.927335   -5.898865    5.898865    0.000000    1.000000
   215  Li    c     3.927335   -5.898865   -5.898865    0.000000    1.000000
   216  Li    c    -0.008462    5.898865    5.898865    0.000000    1.000000
   217  Li    c    -0.008462    5.898865   -5.898865    0.000000    1.000000
   218  Li    c    -0.008462   -5.898865    5.898865    0.000000    1.000000
   219  Li    c    -0.008462   -5.898865   -5.898865    0.000000    1.000000
   220  Li    c     7.833062   -1.963558    5.886908    0.000000    1.000000
   221  Li    c     7.833062   -1.963558   -5.886908    0.000000    1.000000
   222  Li    c     7.833062    1.963558    5.886908    0.000000    1.000000
   223  Li    c     7.833062    1.963558   -5.886908    0.000000    1.000000
   224  Li    c     7.833062    5.886908   -1.963558    0.000000    1.000000
   225  Li    c     7.833062    5.886908    1.963558    0.000000    1.000000
   226  Li    c     7.833062   -5.886908   -1.963558    0.000000    1.000000
   227  Li    c     7.833062   -5.886908    1.963558    0.000000    1.000000
   228  Li    c    -3.914189   -1.963558    5.886908    0.000000    1.000000
   229  Li    c    -3.914189   -1.963558   -5.886908    0.000000    1.000000
   230  Li    c    -3.914189    1.963558    5.886908    0.000000    1.000000
   231  Li    c    -3.914189    1.963558   -5.886908    0.000000    1.000000
   232  Li    c    -3.914189    5.886908   -1.963558    0.000000    1.000000
   233  Li    c    -3.914189    5.886908    1.963558    0.000000    1.000000
   234  Li    c    -3.914189   -5.886908   -1.963558    0.000000    1.000000
   235  Li    c    -3.914189   -5.886908    1.963558    0.000000    1.000000
   236  Li    c     9.790082   -1.961074    3.917346    0.000000    1.000000
   237  Li    c     9.790082   -1.961074   -3.917346    0.000000    1.000000
   238  Li    c     9.790082    1.961074    3.917346    0.000000    1.000000
   239  Li    c     9.790082    1.961074   -3.917346    0.000000    1.000000
   240  Li    c     9.790082    3.917346   -1.961074    0.000000    1.000000
   241  Li    c     9.790082    3.917346    1.961074    0.000000    1.000000
   242  Li    c     9.790082   -3.917346   -1.961074    0.000000    1.000000
   243  Li    c     9.790082   -3.917346    1.961074    0.000000    1.000000
   244  Li    c    -5.871209   -1.961074    3.917346    0.000000    1.000000
   245  Li    c    -5.871209   -1.961074   -3.917346    0.000000    1.000000
   246  Li    c    -5.871209    1.961074    3.917346    0.000000    1.000000
   247  Li    c    -5.871209    1.961074   -3.917346    0.000000    1.000000
   248  Li    c    -5.871209    3.917346   -1.961074    0.000000    1.000000
   249  Li    c    -5.871209    3.917346    1.961074    0.000000    1.000000
   250  Li    c    -5.871209   -3.917346   -1.961074    0.000000    1.000000
   251  Li    c    -5.871209   -3.917346    1.961074    0.000000    1.000000
   252  Cl    c     3.921580    3.926838    7.847462    0.000000    1.485000
   253  Cl    c     3.921580    3.926838   -7.847462    0.000000    1.485000
   254  Cl    c     3.921580    7.847462    3.926838    0.000000    1.485000
   255  Cl    c     3.921580    7.847462   -3.926838    0.000000    1.485000
   256  Cl    c     3.921580   -3.926838    7.847462    0.000000    1.485000
   257  Cl    c     3.921580   -3.926838   -7.847462    0.000000    1.485000
   258  Cl    c     3.921580   -7.847462    3.926838    0.000000    1.485000
   259  Cl    c     3.921580   -7.847462   -3.926838    0.000000    1.485000
   260  Cl    c    -0.002707    3.926838    7.847462    0.000000    1.485000
   261  Cl    c    -0.002707    3.926838   -7.847462    0.000000    1.485000
   262  Cl    c    -0.002707    7.847462    3.926838    0.000000    1.485000
   263  Cl    c    -0.002707    7.847462   -3.926838    0.000000    1.485000
   264  Cl    c    -0.002707   -3.926838    7.847462    0.000000    1.485000
   265  Cl    c    -0.002707   -3.926838   -7.847462    0.000000    1.485000
   266  Cl    c    -0.002707   -7.847462    3.926838    0.000000    1.485000
   267  Cl    c    -0.002707   -7.847462   -3.926838    0.000000    1.485000
   268  Li    c     5.888261   -1.963471    7.852196    0.000000    1.000000
   269  Li    c     5.888261   -1.963471   -7.852196    0.000000    1.000000
   270  Li    c     5.888261    1.963471    7.852196    0.000000    1.000000
   271  Li    c     5.888261    1.963471   -7.852196    0.000000    1.000000
   272  Li    c    -1.969388   -1.963471    7.852196    0.000000    1.000000
   273  Li    c    -1.969388   -1.963471   -7.852196    0.000000    1.000000
   274  Li    c    -1.969388    1.963471    7.852196    0.000000    1.000000
   275  Li    c    -1.969388    1.963471   -7.852196    0.000000    1.000000
   276  Li    c     5.888261    7.852196   -1.963471    0.000000    1.000000
   277  Li    c     5.888261    7.852196    1.963471    0.000000    1.000000
   278  Li    c     5.888261   -7.852196   -1.963471    0.000000    1.000000
   279  Li    c     5.888261   -7.852196    1.963471    0.000000    1.000000
   280  Li    c    -1.969388    7.852196   -1.963471    0.000000    1.000000
   281  Li    c    -1.969388    7.852196    1.963471    0.000000    1.000000
   282  Li    c    -1.969388   -7.852196   -1.963471    0.000000    1.000000
   283  Li    c    -1.969388   -7.852196    1.963471    0.000000    1.000000
   284  O     c     5.886711    5.889989    5.889989    0.000000    0.183000
   285  O     c     5.886711    5.889989   -5.889989    0.000000    0.183000
   286  O     c     5.886711   -5.889989    5.889989    0.000000    0.183000
   287  O     c     5.886711   -5.889989   -5.889989    0.000000    0.183000
   288  O     c    -1.967838    5.889989    5.889989    0.000000    0.183000
   289  O     c    -1.967838    5.889989   -5.889989    0.000000    0.183000
   290  O     c    -1.967838   -5.889989    5.889989    0.000000    0.183000
   291  O     c    -1.967838   -5.889989   -5.889989    0.000000    0.183000
   292  Cl    c    11.736847    0.000000    0.000000    0.000000    1.485000
   293  Cl    c    -7.817974    0.000000    0.000000    0.000000    1.485000
   294  Li    c     1.959436    9.819410    0.000000    0.000000    1.000000
   295  Li    c     1.959436   -9.819410    0.000000    0.000000    1.000000
   296  Li    c     1.959436    0.000000    9.819410    0.000000    1.000000
   297  Li    c     1.959436    0.000000   -9.819410    0.000000    1.000000
   298  Li    c     9.799288    5.885396    0.000000    0.000000    1.000000
   299  Li    c     9.799288   -5.885396    0.000000    0.000000    1.000000
   300  Li    c     9.799288    0.000000    5.885396    0.000000    1.000000
   301  Li    c     9.799288    0.000000   -5.885396    0.000000    1.000000
   302  Li    c    -5.880415    5.885396    0.000000    0.000000    1.000000
   303  Li    c    -5.880415   -5.885396    0.000000    0.000000    1.000000
   304  Li    c    -5.880415    0.000000    5.885396    0.000000    1.000000
   305  Li    c    -5.880415    0.000000   -5.885396    0.000000    1.000000
   306  Cl    c     7.832610    0.000000    7.832699    0.000000    1.485000
   307  Cl    c     7.832610    0.000000   -7.832699    0.000000    1.485000
   308  Cl    c     7.832610    7.832699    0.000000    0.000000    1.485000
   309  Cl    c     7.832610   -7.832699    0.000000    0.000000    1.485000
   310  Cl    c    -3.913737    0.000000    7.832699    0.000000    1.485000
   311  Cl    c    -3.913737    0.000000   -7.832699    0.000000    1.485000
   312  Cl    c    -3.913737    7.832699    0.000000    0.000000    1.485000
   313  Cl    c    -3.913737   -7.832699    0.000000    0.000000    1.485000
   314  Li    c     1.959436    5.910526    7.860252    0.000000    1.000000
   315  Li    c     1.959436    5.910526   -7.860252    0.000000    1.000000
   316  Li    c     1.959436   -5.910526    7.860252    0.000000    1.000000
   317  Li    c     1.959436   -5.910526   -7.860252    0.000000    1.000000
   318  Li    c     1.959436    7.860252    5.910526    0.000000    1.000000
   319  Li    c     1.959436    7.860252   -5.910526    0.000000    1.000000
   320  Li    c     1.959436   -7.860252    5.910526    0.000000    1.000000
   321  Li    c     1.959436   -7.860252   -5.910526    0.000000    1.000000
   322  O     c     1.959436   -1.960900    9.807223    0.000000    0.183000
   323  O     c     1.959436   -1.960900   -9.807223    0.000000    0.183000
   324  O     c     1.959436    1.960900    9.807223    0.000000    0.183000
   325  O     c     1.959436    1.960900   -9.807223    0.000000    0.183000
   326  O     c     1.959436    9.807223   -1.960900    0.000000    0.183000
   327  O     c     1.959436    9.807223    1.960900    0.000000    0.183000
   328  O     c     1.959436   -9.807223   -1.960900    0.000000    0.183000
   329  O     c     1.959436   -9.807223    1.960900    0.000000    0.183000
   330  O     c     9.785738   -1.956724    5.871585    0.000000    0.183000
   331  O     c     9.785738   -1.956724   -5.871585    0.000000    0.183000
   332  O     c     9.785738    1.956724    5.871585    0.000000    0.183000
   333  O     c     9.785738    1.956724   -5.871585    0.000000    0.183000
   334  O     c     9.785738    5.871585   -1.956724    0.000000    0.183000
   335  O     c     9.785738    5.871585    1.956724    0.000000    0.183000
   336  O     c     9.785738   -5.871585   -1.956724    0.000000    0.183000
   337  O     c     9.785738   -5.871585    1.956724    0.000000    0.183000
   338  O     c    -5.866865   -1.956724    5.871585    0.000000    0.183000
   339  O     c    -5.866865   -1.956724   -5.871585    0.000000    0.183000
   340  O     c    -5.866865    1.956724    5.871585    0.000000    0.183000
   341  O     c    -5.866865    1.956724   -5.871585    0.000000    0.183000
   342  O     c    -5.866865    5.871585   -1.956724    0.000000    0.183000
   343  O     c    -5.866865    5.871585    1.956724    0.000000    0.183000
   344  O     c    -5.866865   -5.871585   -1.956724    0.000000    0.183000
   345  O     c    -5.866865   -5.871585    1.956724    0.000000    0.183000
   346  Li    c     3.921181   -1.963497    9.813525    0.000000    1.000000
   347  Li    c     3.921181   -1.963497   -9.813525    0.000000    1.000000
   348  Li    c     3.921181    1.963497    9.813525    0.000000    1.000000
   349  Li    c     3.921181    1.963497   -9.813525    0.000000    1.000000
   350  Li    c    -0.002308   -1.963497    9.813525    0.000000    1.000000
   351  Li    c    -0.002308   -1.963497   -9.813525    0.000000    1.000000
   352  Li    c    -0.002308    1.963497    9.813525    0.000000    1.000000
   353  Li    c    -0.002308    1.963497   -9.813525    0.000000    1.000000
   354  Li    c     3.921181    9.813525   -1.963497    0.000000    1.000000
   355  Li    c     3.921181    9.813525    1.963497    0.000000    1.000000
   356  Li    c     3.921181   -9.813525   -1.963497    0.000000    1.000000
   357  Li    c     3.921181   -9.813525    1.963497    0.000000    1.000000
   358  Li    c    -0.002308    9.813525   -1.963497    0.000000    1.000000
   359  Li    c    -0.002308    9.813525    1.963497    0.000000    1.000000
   360  Li    c    -0.002308   -9.813525   -1.963497    0.000000    1.000000
   361  Li    c    -0.002308   -9.813525    1.963497    0.000000    1.000000
   362  Li    c    11.752305   -1.959752   -1.959752    0.000000    1.000000
   363  Li    c    11.752305   -1.959752    1.959752    0.000000    1.000000
   364  Li    c    11.752305    1.959752   -1.959752    0.000000    1.000000
   365  Li    c    11.752305    1.959752    1.959752    0.000000    1.000000
   366  Li    c    -7.833432   -1.959752   -1.959752    0.000000    1.000000
   367  Li    c    -7.833432   -1.959752    1.959752    0.000000    1.000000
   368  Li    c    -7.833432    1.959752   -1.959752    0.000000    1.000000
   369  Li    c    -7.833432    1.959752    1.959752    0.000000    1.000000
   370  Li    c     7.839346    5.889781    5.889781    0.000000    1.000000
   371  Li    c     7.839346    5.889781   -5.889781    0.000000    1.000000
   372  Li    c     7.839346   -5.889781    5.889781    0.000000    1.000000
   373  Li    c     7.839346   -5.889781   -5.889781    0.000000    1.000000
   374  Li    c    -3.920473    5.889781    5.889781    0.000000    1.000000
   375  Li    c    -3.920473    5.889781   -5.889781    0.000000    1.000000
   376  Li    c    -3.920473   -5.889781    5.889781    0.000000    1.000000
   377  Li    c    -3.920473   -5.889781   -5.889781    0.000000    1.000000
   378  Cl    c    11.739909    0.000000    3.912540    0.000000    1.485000
   379  Cl    c    11.739909    0.000000   -3.912540    0.000000    1.485000
   380  Cl    c    11.739909    3.912540    0.000000    0.000000    1.485000
   381  Cl    c    11.739909   -3.912540    0.000000    0.000000    1.485000
[...]
    111 y          9.797182      9.800112     0.002929    Cartesian    0.03
    111 z          5.878309      5.879191     0.000881    Cartesian    0.01
    112 x          7.837746      7.839649     0.001903    Cartesian    0.02
    112 y          9.797182      9.800117     0.002934    Cartesian    0.03
    112 z          9.797182      9.800117     0.002934    Cartesian    0.03
    113 x         -9.797182     -9.798806    -0.001624    Cartesian    0.02
    113 y          9.797182      9.798579     0.001396    Cartesian    0.01
    113 z          0.000000      0.000000     0.000000    Cartesian    0.00
    114 x         -9.797182     -9.800322    -0.003139    Cartesian    0.03
    114 y          5.878309      5.879795     0.001486    Cartesian    0.03
    114 z          7.837746      7.838915     0.001169    Cartesian    0.01
    115 x         11.756619     11.754787    -0.001832    Cartesian   -0.02
    115 y          0.000000      0.000000     0.000000    Cartesian    0.00
    115 z         11.756619     11.751770    -0.004849    Cartesian   -0.04
    116 x          1.959436      1.959436     0.000000    Cartesian    0.00
    116 y          9.797182      9.805007     0.007824    Cartesian    0.08
    116 z         11.756619     11.762519     0.005900    Cartesian    0.05
    117 x          9.797182      9.801351     0.004168    Cartesian    0.04
    117 y          5.878309      5.880697     0.002387    Cartesian    0.04
    117 z         11.756619     11.759639     0.003020    Cartesian    0.03
    118 x          7.837746      7.837703    -0.000043    Cartesian   -0.00
    118 y          7.837746      7.835906    -0.001840    Cartesian   -0.02
    118 z         11.756619     11.754250    -0.002369    Cartesian   -0.02
    119 x         -9.797182     -9.794624     0.002559    Cartesian   -0.03
    119 y          9.797182      9.794372    -0.002810    Cartesian   -0.03
    119 z         -1.959436     -1.959161     0.000275    Cartesian   -0.01
    120 x          5.878309      5.877489    -0.000821    Cartesian   -0.01
    120 y         13.716055     13.713824    -0.002231    Cartesian   -0.02
    120 z          5.878309      5.877087    -0.001223    Cartesian   -0.02
    121 x         -9.797182     -9.802138    -0.004955    Cartesian    0.05
    121 y          9.797182      9.800568     0.003385    Cartesian    0.03
    121 z          3.918873      3.919513     0.000640    Cartesian    0.02
    122 x        -11.756619    -11.748932     0.007687    Cartesian   -0.07
    122 y          0.000000      0.000000     0.000000    Cartesian    0.00
    122 z          7.837746      7.833057    -0.004689    Cartesian   -0.06
    123 x         11.756619     11.753707    -0.002912    Cartesian   -0.02
    123 y         11.756619     11.751377    -0.005242    Cartesian   -0.04
    123 z          3.918873      3.917100    -0.001773    Cartesian   -0.05
    124 x          9.797182      9.798883     0.001700    Cartesian    0.02
    124 y         13.716055     13.719867     0.003812    Cartesian    0.03
    124 z          0.000000      0.000000     0.000000    Cartesian    0.00
    125 x          3.918873      3.918201    -0.000672    Cartesian   -0.02
    125 y          0.000000      0.000000     0.000000    Cartesian    0.00
    125 z         15.675492     15.668802    -0.006690    Cartesian   -0.04
    126 x          1.959436      1.959436     0.000000    Cartesian    0.00
    126 y         -1.959436     -1.962148    -0.002712    Cartesian    0.14
    126 z         15.675492     15.680216     0.004724    Cartesian    0.03
    127 x          1.959436      1.959436     0.000000    Cartesian    0.00
    127 y         13.716055     13.723872     0.007817    Cartesian    0.06
    127 z          7.837746      7.840907     0.003161    Cartesian    0.04
    128 x          5.878309      5.880932     0.002623    Cartesian    0.04
    128 y          9.797182      9.803463     0.006280    Cartesian    0.06
    128 z         11.756619     11.761325     0.004706    Cartesian    0.04
    129 x         17.634928     17.637621     0.002692    Cartesian    0.02
    129 y         -1.959436     -1.959810    -0.000373    Cartesian    0.02
    129 z          0.000000      0.000000     0.000000    Cartesian    0.00
    130 x          9.797182      9.795850    -0.001333    Cartesian   -0.01
    130 y         -1.959436     -1.958361     0.001076    Cartesian   -0.05
    130 z         13.716055     13.712820    -0.003235    Cartesian   -0.02
    131 x          9.797182      9.796175    -0.001007    Cartesian   -0.01
    131 y          9.797182      9.794815    -0.002367    Cartesian   -0.02
    131 z          9.797182      9.794815    -0.002367    Cartesian   -0.02
    132 x         17.634928     17.630114    -0.004814    Cartesian   -0.03
    132 y         -1.959436     -1.958302     0.001135    Cartesian   -0.06
    132 z         -1.959436     -1.958302     0.001135    Cartesian   -0.06
    133 x          1.959436      1.959436     0.000000    Cartesian    0.00
    133 y          0.000000      0.000000     0.000000    Cartesian    0.00
    133 z          0.000000      0.000000     0.000000    Cartesian    0.00
    134 x          1.959436      1.959436     0.000000    Cartesian    0.00
    134 y         -1.959436     -2.113249    -0.153812    Cartesian    7.85
    134 z         -1.959436     -2.113249    -0.153812    Cartesian    7.85
    135 x          3.918873      3.892724    -0.026149    Cartesian   -0.67
    135 y          0.000000      0.000000     0.000000    Cartesian    0.00
    135 z          3.918873      3.900010    -0.018863    Cartesian   -0.48
    136 x          5.878309      5.801949    -0.076361    Cartesian   -1.30
    136 y         -1.959436     -1.931078     0.028359    Cartesian   -1.45
    136 z         -1.959436     -1.931078     0.028359    Cartesian   -1.45
    137 x          3.918873      3.957359     0.038486    Cartesian    0.98
    137 y          3.918873      3.959581     0.040708    Cartesian    1.04
    137 z          3.918873      3.959581     0.040708    Cartesian    1.04
    138 x          7.837746      7.756398    -0.081348    Cartesian   -1.04
    138 y          0.000000      0.000000     0.000000    Cartesian    0.00
    138 z          0.000000      0.000000     0.000000    Cartesian    0.00
    139 x          1.959436      1.959436     0.000000    Cartesian    0.00
    139 y         -1.959436     -1.979563    -0.020126    Cartesian    1.03
    139 z          5.878309      5.915408     0.037098    Cartesian    0.63
    140 x          7.837746      7.788127    -0.049619    Cartesian   -0.63
    140 y          0.000000      0.000000     0.000000    Cartesian    0.00
    140 z          3.918873      3.886401    -0.032472    Cartesian   -0.83
    141 x          5.878309      5.870512    -0.007798    Cartesian   -0.13
    141 y         -1.959436     -1.957025     0.002411    Cartesian   -0.12
    141 z          5.878309      5.884957     0.006647    Cartesian    0.11
    142 x          3.918873      3.917065    -0.001808    Cartesian   -0.05
    142 y          0.000000      0.000000     0.000000    Cartesian    0.00
    142 z          7.837746      7.836116    -0.001630    Cartesian   -0.02
    143 x          7.837746      7.802532    -0.035214    Cartesian   -0.45
    143 y          3.918873      3.890866    -0.028007    Cartesian   -0.71
    143 z          3.918873      3.890866    -0.028007    Cartesian   -0.71
    144 x          9.797182      9.775974    -0.021209    Cartesian   -0.22
    144 y         -1.959436     -1.953544     0.005892    Cartesian   -0.30
    144 z         -1.959436     -1.953544     0.005892    Cartesian   -0.30
    145 x          1.959436      1.959436     0.000000    Cartesian    0.00
    145 y          5.878309      5.899770     0.021461    Cartesian    0.37
    145 z          5.878309      5.899770     0.021461    Cartesian    0.37
    146 x          3.918873      3.920697     0.001824    Cartesian    0.05
    146 y          3.918873      3.925479     0.006606    Cartesian    0.17
    146 z          7.837746      7.844395     0.006649    Cartesian    0.08
    147 x          5.878309      5.886716     0.008406    Cartesian    0.14
    147 y          5.878309      5.889990     0.011681    Cartesian    0.20
    147 z          5.878309      5.889990     0.011681    Cartesian    0.20
    148 x         11.756619     11.733575    -0.023044    Cartesian   -0.20
    148 y          0.000000      0.000000     0.000000    Cartesian    0.00
    148 z          0.000000      0.000000     0.000000    Cartesian    0.00
    149 x          7.837746      7.831014    -0.006732    Cartesian   -0.09
    149 y          0.000000      0.000000     0.000000    Cartesian    0.00
    149 z          7.837746      7.830198    -0.007548    Cartesian   -0.10
    150 x          1.959436      1.959436     0.000000    Cartesian    0.00
    150 y         -1.959436     -1.960896    -0.001459    Cartesian    0.07
    150 z          9.797182      9.807207     0.010024    Cartesian    0.10
    151 x          9.797182      9.785727    -0.011456    Cartesian   -0.12
    151 y         -1.959436     -1.956721     0.002715    Cartesian   -0.14
    151 z          5.878309      5.871577    -0.006732    Cartesian   -0.11
    152 x         11.756619     11.737398    -0.019221    Cartesian   -0.16
    152 y          0.000000      0.000000     0.000000    Cartesian    0.00
    152 z          3.918873      3.911301    -0.007572    Cartesian   -0.19
    153 x          7.837746      7.834399    -0.003347    Cartesian   -0.04
    153 y          3.918873      3.913749    -0.005124    Cartesian   -0.13
    153 z          7.837746      7.831621    -0.006125    Cartesian   -0.08
    154 x          5.878309      5.879331     0.001021    Cartesian    0.02
    154 y         -1.959436     -1.960432    -0.000995    Cartesian    0.05
    154 z          9.797182      9.800910     0.003727    Cartesian    0.04
    155 x         11.756619     11.739662    -0.016957    Cartesian   -0.14
    155 y          3.918873      3.911964    -0.006909    Cartesian   -0.18
    155 z          3.918873      3.911964    -0.006909    Cartesian   -0.18
    156 x          3.918873      3.919422     0.000549    Cartesian    0.01
    156 y          7.837746      7.843110     0.005364    Cartesian    0.07
    156 z          7.837746      7.843110     0.005364    Cartesian    0.07
    157 x          1.959436      1.959436     0.000000    Cartesian    0.00
    157 y          5.878309      5.885909     0.007599    Cartesian    0.13
    157 z          9.797182      9.804723     0.007540    Cartesian    0.08
    158 x          9.797182      9.791379    -0.005803    Cartesian   -0.06
    158 y          5.878309      5.873755    -0.004554    Cartesian   -0.08
    158 z          5.878309      5.873755    -0.004554    Cartesian   -0.08
    159 x          3.918873      3.919232     0.000359    Cartesian    0.01
    159 y          0.000000      0.000000     0.000000    Cartesian    0.00
    159 z         11.756619     11.754142    -0.002477    Cartesian   -0.02
    160 x         -9.797182     -9.789533     0.007650    Cartesian   -0.08
    160 y         -1.959436     -1.958098     0.001339    Cartesian   -0.07
    160 z         -1.959436     -1.958098     0.001339    Cartesian   -0.07
    161 x          5.878309      5.881014     0.002705    Cartesian    0.05
    161 y          5.878309      5.881149     0.002840    Cartesian    0.05
    161 z          9.797182      9.801262     0.004080    Cartesian    0.04
    162 x          3.918873      3.918802    -0.000071    Cartesian   -0.00
    162 y         11.756619     11.754063    -0.002556    Cartesian   -0.02
    162 z          3.918873      3.918697    -0.000176    Cartesian   -0.00
    163 x         11.756619     11.746453    -0.010166    Cartesian   -0.09
    163 y          0.000000      0.000000     0.000000    Cartesian    0.00
    163 z          7.837746      7.827627    -0.010119    Cartesian   -0.13
    164 x          7.837746      7.840678     0.002932    Cartesian    0.04
    164 y          7.837746      7.837293    -0.000453    Cartesian   -0.01
    164 z          7.837746      7.837293    -0.000453    Cartesian   -0.01
    165 x          9.797182      9.795678    -0.001504    Cartesian   -0.02
    165 y         -1.959436     -1.958663     0.000773    Cartesian   -0.04
    165 z          9.797182      9.795531    -0.001651    Cartesian   -0.02
    166 x         11.756619     11.749124    -0.007495    Cartesian   -0.06
    166 y          7.837746      7.829498    -0.008248    Cartesian   -0.11
    166 z          3.918873      3.915909    -0.002964    Cartesian   -0.08
    167 x          7.837746      7.835017    -0.002729    Cartesian   -0.03
    167 y          0.000000      0.000000     0.000000    Cartesian    0.00
    167 z         11.756619     11.751857    -0.004762    Cartesian   -0.04
    168 x         -9.797182     -9.792640     0.004543    Cartesian   -0.05
    168 y         -1.959436     -1.959568    -0.000131    Cartesian    0.01
    168 z          5.878309      5.875448    -0.002861    Cartesian   -0.05
    169 x        -11.756619    -11.744941     0.011678    Cartesian   -0.10
    169 y          0.000000      0.000000     0.000000    Cartesian    0.00
    169 z          0.000000      0.000000     0.000000    Cartesian    0.00
    170 x          7.837746      7.837444    -0.000302    Cartesian   -0.00
    170 y         11.756619     11.753036    -0.003583    Cartesian   -0.03
    170 z          3.918873      3.918074    -0.000799    Cartesian   -0.02
    171 x          1.959436      1.959436     0.000000    Cartesian    0.00
    171 y         -1.959436     -1.961242    -0.001806    Cartesian    0.09
    171 z         13.716055     13.717850     0.001795    Cartesian    0.01
    172 x          1.959436      1.959436     0.000000    Cartesian    0.00
    172 y          9.797182      9.802813     0.005631    Cartesian    0.06
    172 z          9.797182      9.802813     0.005631    Cartesian    0.06
    173 x          9.797182      9.797927     0.000744    Cartesian    0.01
    173 y          5.878309      5.877601    -0.000708    Cartesian   -0.01
    173 z          9.797182      9.796818    -0.000365    Cartesian   -0.00
    174 x        -11.756619    -11.748215     0.008404    Cartesian   -0.07
    174 y          0.000000      0.000000     0.000000    Cartesian    0.00
    174 z          3.918873      3.917894    -0.000979    Cartesian   -0.02
    175 x          3.918873      3.919446     0.000573    Cartesian    0.01
    175 y          7.837746      7.838161     0.000415    Cartesian    0.01
    175 z         11.756619     11.755369    -0.001250    Cartesian   -0.01
    176 x         -9.797182     -9.794925     0.002257    Cartesian   -0.02
    176 y          5.878309      5.876430    -0.001879    Cartesian   -0.03
    176 z          5.878309      5.876430    -0.001879    Cartesian   -0.03
    177 x          5.878309      5.880069     0.001759    Cartesian    0.03
    177 y          9.797182      9.800187     0.003004    Cartesian    0.03
    177 z          9.797182      9.800187     0.003004    Cartesian    0.03
    178 x          5.878309      5.878746     0.000437    Cartesian    0.01
    178 y         13.716055     13.716074     0.000018    Cartesian    0.00
    178 z         -1.959436     -1.959787    -0.000351    Cartesian    0.02
    179 x        -11.756619    -11.748814     0.007805    Cartesian   -0.07
    179 y          3.918873      3.916637    -0.002236    Cartesian   -0.06
    179 z          3.918873      3.916637    -0.002236    Cartesian   -0.06
    180 x         11.756619     11.753403    -0.003216    Cartesian   -0.03
    180 y          7.837746      7.831956    -0.005790    Cartesian   -0.07
    180 z          7.837746      7.831956    -0.005790    Cartesian   -0.07
    181 x          1.959436      1.959436     0.000000    Cartesian    0.00
    181 y          5.878309      5.878872     0.000562    Cartesian    0.01
    181 z         13.716055     13.716732     0.000677    Cartesian    0.00
    182 x         11.756619     11.754167    -0.002452    Cartesian   -0.02
    182 y          0.000000      0.000000     0.000000    Cartesian    0.00
    182 z         11.756619     11.750747    -0.005872    Cartesian   -0.05
    183 x          7.837746      7.837323    -0.000423    Cartesian   -0.01
    183 y          7.837746      7.835083    -0.002663    Cartesian   -0.03
    183 z         11.756619     11.753176    -0.003443    Cartesian   -0.03
    184 x         -9.797182     -9.794620     0.002563    Cartesian   -0.03
    184 y          9.797182      9.794369    -0.002813    Cartesian   -0.03
    184 z         -1.959436     -1.959160     0.000276    Cartesian   -0.01
    185 x          5.878309      5.877487    -0.000822    Cartesian   -0.01
    185 y         13.716055     13.713817    -0.002239    Cartesian   -0.02
    185 z          5.878309      5.877085    -0.001225    Cartesian   -0.02
    186 x        -11.756619    -11.747454     0.009165    Cartesian   -0.08
    186 y          0.000000      0.000000     0.000000    Cartesian    0.00
    186 z          7.837746      7.832031    -0.005715    Cartesian   -0.07
    187 x         11.756619     11.752881    -0.003738    Cartesian   -0.03
    187 y         11.756619     11.750158    -0.006461    Cartesian   -0.05
    187 z          3.918873      3.916782    -0.002091    Cartesian   -0.05
    188 x          3.918873      3.918061    -0.000812    Cartesian   -0.02
    188 y          0.000000      0.000000     0.000000    Cartesian    0.00
    188 z         15.675492     15.666974    -0.008518    Cartesian   -0.05
    189 x          9.797182      9.795846    -0.001336    Cartesian   -0.01
    189 y         -1.959436     -1.958359     0.001078    Cartesian   -0.05
    189 z         13.716055     13.712814    -0.003242    Cartesian   -0.02
    190 x          9.797182      9.796172    -0.001011    Cartesian   -0.01
    190 y          9.797182      9.794810    -0.002372    Cartesian   -0.02
    190 z          9.797182      9.794810    -0.002372    Cartesian   -0.02
    191 x         17.634928     17.630108    -0.004821    Cartesian   -0.03
    191 y         -1.959436     -1.958299     0.001137    Cartesian   -0.06
    191 z         -1.959436     -1.958299     0.001137    Cartesian   -0.06
--------------------------------------------------------------------------------


  Time to end of optimisation  =       43.6884 seconds


  Peak dynamic memory used =     689.86 MB 


  Timing analysis for GULP :

--------------------------------------------------------------------------------
  Task / Subroutine                                          Time (Seconds)
--------------------------------------------------------------------------------
  Calculation of reciprocal space energy and derivatives          0.0003
  Calculation of reciprocal space energy using symmetry           0.0003
  Calculation of real space energy and derivatives                0.0026
  Calculation of real space energy using symmetry                 0.0019
  Calculation for region 1 energy and derivatives (2-b)          30.4368
  Calculation for region 2a energy                               10.6004
  Calculation for region 2b energy                                0.0004
  Calculation and manipulation of Hessian matrix                  1.9574
  Calculation of matrix inversion                                 0.0955
  Symmetry generation of equivalent positions                     0.0027
--------------------------------------------------------------------------------
  Total CPU time                                                 43.6886
--------------------------------------------------------------------------------


  Dump file written as Li3OCl.grs


  Job Finished at 12:29.52  1st December   2020                               

