********************************************************************************
*                       GENERAL UTILITY LATTICE PROGRAM                        *
*                                 Julian Gale                                  *
*                       Curtin Institute for Computation                       *
*                    School of Molecular and Life Sciences                     *
*                    Curtin University, Western Australia                      *
********************************************************************************
* Version = 5.2.0 * Last modified =  10th September 2020                       *
********************************************************************************
*  optimise     - perform optimisation run                                     *
*  conp         - constant pressure calculation                                *
*  property     - calculate properties for final geometry                      *
*  defect       - perform defect calculation after bulk run                    *
*  compare      - compare initial and final structures                         *
********************************************************************************

  Job Started  at 12:29.51  1st December   2020                               

  Number of CPUs =     1


  Total number of configurations input =      1

********************************************************************************
*  Input for Configuration =   1                                               *
********************************************************************************

  Formula = ClOLi3                                                      

  Number of irreducible atoms/shells =       5


  Total number atoms/shells =       7

  Dimensionality = 3               :  Bulk   


  Symmetry :

  Crystal family                   :  Cubic       
  Crystal class  (Groth - 1921)    :  Cubic Hexakisoctahedral              

  Space group (centrosymmetric)    :  P M 3 M         

  Patterson group                  :  P m -3 m 

  Cartesian lattice vectors (Angstroms) :

        3.918873    0.000000    0.000000
        0.000000    3.918873    0.000000
        0.000000    0.000000    3.918873

  Cell parameters (Angstroms/Degrees):

  a =       3.9189    alpha =  90.0000
  b =       3.9189    beta  =  90.0000
  c =       3.9189    gamma =  90.0000

  Initial cell volume =          60.184349 Angs**3

  Temperature of configuration =   0.00     K 

  Pressure of configuration =         0.000 GPa 

  Fractional coordinates of asymmetric unit :

--------------------------------------------------------------------------------
   No.  Atomic       x           y          z         Charge      Occupancy
        Label      (Frac)      (Frac)     (Frac)        (e)         (Frac)  
--------------------------------------------------------------------------------
      1 Cl    c    0.000000    0.000000    0.000000     1.48500    1.000000    
      2 O     c    0.500000    0.500000    0.500000     0.18300    1.000000    
      3 Li    c    0.500000    0.500000    0.000000     1.00000    1.000000    
      4 Cl    s    0.000000    0.000000    0.000000    -2.48500    1.000000    
      5 O     s    0.500000    0.500000    0.500000    -2.18300    1.000000    
--------------------------------------------------------------------------------


  Constraints : 

--------------------------------------------------------------------------------
  Constraint no.      Unconstrained     Constrained    Coefficient    Offset
                         Variable         Variable
--------------------------------------------------------------------------------
           1              Strain 1        Strain 2       1.00000      0.0000
           2              Strain 1        Strain 3       1.00000      0.0000
--------------------------------------------------------------------------------


********************************************************************************
*  General input information                                                   *
********************************************************************************

  Species output for all configurations : 

--------------------------------------------------------------------------------
  Species    Type    Atomic    Atomic    Charge       Radii (Angs)     Library
                     Number     Mass       (e)     Cova   Ionic  VDW   Symbol
--------------------------------------------------------------------------------
    Li       Core        3       6.94   1.000000   0.680  0.000  1.800          
    O        Core        8      16.00   0.183000   0.730  0.000  1.360          
    O        Shell       8       0.00  -2.183000   0.730  0.000  1.360          
    Cl       Core       17      35.45   1.485000   0.990  0.000  1.650          
    Cl       Shell      17       0.00  -2.485000   0.990  0.000  1.650          
    Mg       Core       12      24.31   0.415000   1.100  0.000  0.000          
    Mg       Shell      12       0.00   1.585000   1.100  0.000  0.000          
    Ca       Core       20      40.08  -1.135000   0.990  0.000  0.000          
    Ca       Shell      20       0.00   3.135000   0.990  0.000  0.000          
    Sr       Core       38      87.62  -1.251000   1.120  0.000  0.000          
    Sr       Shell      38       0.00   3.251000   1.120  0.000  0.000          
    Ba       Core       56     137.33  -7.203000   1.340  0.000  0.000          
    Ba       Shell      56       0.00   9.203000   1.340  0.000  0.000          
--------------------------------------------------------------------------------


  Lattice summation method               =    Ewald          (3-D)
                                         =    Parry          (2-D)
                                         =    Saunders et al (1-D)
  Accuracy factor for lattice sums       =   12.000


  Analytic derivatives to be used

  Time limit = Infinity

  Maximum range for interatomic potentials =    100000.000000 Angstroms

  General interatomic potentials :

--------------------------------------------------------------------------------
Atom  Types   Potential      Parameter       Value         Units   Cutoffs(Ang)
  1     2                                                            Min /  Max 
--------------------------------------------------------------------------------
O    c O    s Spring (c-s)  Spring k 2       593.71600    eV*Ang^-2 0.000  0.800
                            Spring k 4       0.0000000    eV*Ang^-4 
--------------------------------------------------------------------------------
Cl   c Cl   s Spring (c-s)  Spring k 2       29.380000    eV*Ang^-2 0.000  0.800
                            Spring k 4       0.0000000    eV*Ang^-4 
--------------------------------------------------------------------------------
Mg   c Mg   s Spring (c-s)  Spring k 2       361.60000    eV*Ang^-2 0.000  0.800
                            Spring k 4       0.0000000    eV*Ang^-4 
--------------------------------------------------------------------------------
Ca   c Ca   s Spring (c-s)  Spring k 2       110.20000    eV*Ang^-2 0.000  0.800
                            Spring k 4       0.0000000    eV*Ang^-4 
--------------------------------------------------------------------------------
Sr   c Sr   s Spring (c-s)  Spring k 2       71.700000    eV*Ang^-2 0.000  0.800
                            Spring k 4       0.0000000    eV*Ang^-4 
--------------------------------------------------------------------------------
Ba   c Ba   s Spring (c-s)  Spring k 2       495.20000    eV*Ang^-2 0.000  0.800
                            Spring k 4       0.0000000    eV*Ang^-4 
--------------------------------------------------------------------------------
Li   c Li   c Buckingham    Buckingham A     360.53000    eV        0.000 12.000
                            Buckingham rho  0.16100000    Ang       
                            Buckingham C     0.0000000    eV*Ang^6  
--------------------------------------------------------------------------------
Li   c O    s Buckingham    Buckingham A     292.30000    eV        0.000 12.000
                            Buckingham rho  0.34700000    Ang       
                            Buckingham C     0.0000000    eV*Ang^6  
--------------------------------------------------------------------------------
Li   c Cl   s Buckingham    Buckingham A     421.04000    eV        0.000 12.000
                            Buckingham rho  0.33400000    Ang       
                            Buckingham C     0.0000000    eV*Ang^6  
--------------------------------------------------------------------------------
O    s O    s Buckingham    Buckingham A     22764.300    eV        0.000 12.000
                            Buckingham rho  0.14900000    Ang       
                            Buckingham C     13.190000    eV*Ang^6  
--------------------------------------------------------------------------------
O    s Cl   s Buckingham    Buckingham A     8286.9100    eV        0.000 12.000
                            Buckingham rho  0.25900000    Ang       
                            Buckingham C     62.200000    eV*Ang^6  
--------------------------------------------------------------------------------
Cl   s Cl   s Buckingham    Buckingham A     1227.2000    eV        0.000 12.000
                            Buckingham rho  0.32100000    Ang       
                            Buckingham C     14.530000    eV*Ang^6  
--------------------------------------------------------------------------------
O    s Mg   s Buckingham    Buckingham A     1428.5000    eV        0.000 12.000
                            Buckingham rho  0.29450000    Ang       
                            Buckingham C     0.0000000    eV*Ang^6  
--------------------------------------------------------------------------------
Mg   s Cl   s Buckingham    Buckingham A     4914.5400    eV        0.000 12.000
                            Buckingham rho  0.25700000    Ang       
                            Buckingham C     0.0000000    eV*Ang^6  
--------------------------------------------------------------------------------
O    s Ca   s Buckingham    Buckingham A     1090.4000    eV        0.000 12.000
                            Buckingham rho  0.34370000    Ang       
                            Buckingham C     0.0000000    eV*Ang^6  
--------------------------------------------------------------------------------
Cl   s Ca   s Buckingham    Buckingham A     2302.0000    eV        0.000 12.000
                            Buckingham rho  0.34020000    Ang       
                            Buckingham C     0.0000000    eV*Ang^6  
--------------------------------------------------------------------------------
O    s Sr   s Buckingham    Buckingham A     959.10000    eV        0.000 12.000
                            Buckingham rho  0.37210000    Ang       
                            Buckingham C     0.0000000    eV*Ang^6  
--------------------------------------------------------------------------------
Cl   s Sr   s Buckingham    Buckingham A     2191.0900    eV        0.000 12.000
                            Buckingham rho  0.34570000    Ang       
                            Buckingham C     0.0000000    eV*Ang^6  
--------------------------------------------------------------------------------
O    s Ba   s Buckingham    Buckingham A     905.70000    eV        0.000 12.000
                            Buckingham rho  0.39760000    Ang       
                            Buckingham C     0.0000000    eV*Ang^6  
--------------------------------------------------------------------------------
Cl   s Ba   s Buckingham    Buckingham A     2704.5500    eV        0.000 12.000
                            Buckingham rho  0.35280000    Ang       
                            Buckingham C     0.0000000    eV*Ang^6  
--------------------------------------------------------------------------------

********************************************************************************
*  Output for configuration   1                                                *
********************************************************************************


  Components of energy : 

--------------------------------------------------------------------------------
  Interatomic potentials     =           7.24802695 eV    
  Monopole - monopole (real) =         -11.53475722 eV    
  Monopole - monopole (recip)=         -33.94580548 eV    
  Monopole - monopole (total)=         -45.48056271 eV    
--------------------------------------------------------------------------------
  Total lattice energy       =         -38.23253575 eV    
--------------------------------------------------------------------------------
  Total lattice energy       =           -3688.8553 kJ/(mole unit cells)
--------------------------------------------------------------------------------


  Number of variables =        1

  Maximum number of calculations  =          1000
  Maximum Hessian update interval =            10
  Maximum step size               =   1.000000000
  Maximum parameter tolerance     =   0.000010000
  Maximum function  tolerance     =   0.000010000
  Maximum gradient  tolerance     =   0.001000000
  Maximum gradient  component     =   0.010000000

  Symmetry constrained optimisation

  Symmetry used for second derivatives

  Cell parameters to be optimised using strains

  Newton-Raphson optimiser to be used

  BFGS hessian update to be used

  Lower half triangular hessian to be used

  Start of bulk optimisation :

  Cycle:      0 Energy:       -38.232536  Gnorm:      0.000019  CPU:    0.011


  **** Optimisation achieved ****


  Final energy =     -38.23253575 eV
  Final Gnorm  =       0.00001878

  Components of energy : 

--------------------------------------------------------------------------------
  Interatomic potentials     =           7.24802695 eV    
  Monopole - monopole (real) =         -11.53475722 eV    
  Monopole - monopole (recip)=         -33.94580548 eV    
  Monopole - monopole (total)=         -45.48056271 eV    
--------------------------------------------------------------------------------
  Total lattice energy       =         -38.23253575 eV    
--------------------------------------------------------------------------------
  Total lattice energy       =           -3688.8553 kJ/(mole unit cells)
--------------------------------------------------------------------------------

  Final asymmetric unit coordinates :

--------------------------------------------------------------------------------
   No.  Atomic        x           y           z         Radius
        Label       (Frac)      (Frac)      (Frac)       (Angs) 
--------------------------------------------------------------------------------
     1  Cl    c     0.000000    0.000000    0.000000    0.000000
     2  O     c     0.500000    0.500000    0.500000    0.000000
     3  Li    c     0.500000    0.500000    0.000000    0.000000
     4  Cl    s     0.000000    0.000000    0.000000    0.000000
     5  O     s     0.500000    0.500000    0.500000    0.000000
--------------------------------------------------------------------------------

  Final Cartesian lattice vectors (Angstroms) :

        3.918873    0.000000    0.000000
        0.000000    3.918873    0.000000
        0.000000    0.000000    3.918873


  Final cell parameters and derivatives :

--------------------------------------------------------------------------------
       a            3.918873 Angstrom     dE/de1(xx)    -0.000019 eV/strain
       b            3.918873 Angstrom     dE/de2(yy)     0.000000 eV/strain
       c            3.918873 Angstrom     dE/de3(zz)     0.000000 eV/strain
       alpha       90.000000 Degrees      dE/de4(yz)     0.000000 eV/strain
       beta        90.000000 Degrees      dE/de5(xz)     0.000000 eV/strain
       gamma       90.000000 Degrees      dE/de6(xy)     0.000000 eV/strain
--------------------------------------------------------------------------------

  Primitive cell volume =            60.184349 Angs**3

  Density of cell =      1.994024 g/cm**3

  Non-primitive cell volume =            60.184349 Angs**3


  Final internal derivatives :

--------------------------------------------------------------------------------
   No.  Atomic          a             b             c           Radius
        Label          (eV)          (eV)          (eV)        (eV/Angs)
--------------------------------------------------------------------------------
      1 Cl    c       0.000000      0.000000      0.000000      0.000000
      2 O     c       0.000000      0.000000      0.000000      0.000000
      3 Li    c       0.000000      0.000000      0.000000      0.000000
      4 Cl    s       0.000000      0.000000      0.000000      0.000000
      5 O     s       0.000000      0.000000      0.000000      0.000000
--------------------------------------------------------------------------------
  Maximum abs         0.000000      0.000000      0.000000      0.000000
--------------------------------------------------------------------------------

  Comparison of initial and final structures : 

--------------------------------------------------------------------------------
  Parameter   Initial value   Final value   Difference    Units      Percent
--------------------------------------------------------------------------------
    Volume        60.184349     60.184349     0.000000    Angs**3      0.00
    a              3.918873      3.918873     0.000000    Angstroms    0.00
    b              3.918873      3.918873     0.000000    Angstroms    0.00
    c              3.918873      3.918873     0.000000    Angstroms    0.00
    alpha         90.000000     90.000000     0.000000    Degrees      0.00
    beta          90.000000     90.000000     0.000000    Degrees      0.00
    gamma         90.000000     90.000000     0.000000    Degrees      0.00
      1 x          0.000000      0.000000     0.000000    Fractional   0.00
      1 y          0.000000      0.000000     0.000000    Fractional   0.00
      1 z          0.000000      0.000000     0.000000    Fractional   0.00
      2 x          0.500000      0.500000     0.000000    Fractional   0.00
      2 y          0.500000      0.500000     0.000000    Fractional   0.00
      2 z          0.500000      0.500000     0.000000    Fractional   0.00
      3 x          0.500000      0.500000     0.000000    Fractional   0.00
      3 y          0.500000      0.500000     0.000000    Fractional   0.00
      3 z          0.000000      0.000000     0.000000    Fractional   0.00
      4 x          0.000000      0.000000     0.000000    Fractional   0.00
      4 y          0.000000      0.000000     0.000000    Fractional   0.00
      4 z          0.000000      0.000000     0.000000    Fractional   0.00
      5 x          0.500000      0.500000     0.000000    Fractional   0.00
      5 y          0.500000      0.500000     0.000000    Fractional   0.00
      5 z          0.500000      0.500000     0.000000    Fractional   0.00
--------------------------------------------------------------------------------


  Born effective charge tensors : 

-------------------------------------------------------------------------------
  Atom             x           y             z
-------------------------------------------------------------------------------
    1 Cl    x      -0.9481      0.0000      0.0000
            y       0.0000     -0.9481      0.0000
            z       0.0000      0.0000     -0.9481
-------------------------------------------------------------------------------
    2 O     x      -2.4696     -0.0000     -0.0000
            y      -0.0000     -2.4696     -0.0000
            z      -0.0000     -0.0000     -2.4696
-------------------------------------------------------------------------------
    3 Li    x       1.3129     -0.0000     -0.0000
            y      -0.0000      1.3129      0.0000
            z      -0.0000     -0.0000      0.7918
-------------------------------------------------------------------------------




  Elastic Constant Matrix: (Units=GPa)

-------------------------------------------------------------------------------
  Indices      1         2         3         4         5         6    
-------------------------------------------------------------------------------
       1     94.4615   45.0779   45.0779    0.0000   -0.0000    0.0000
       2     45.0779   94.4615   45.0779   -0.0000    0.0000   -0.0000
       3     45.0779   45.0779   94.4615   -0.0000   -0.0000   -0.0000
       4      0.0000   -0.0000   -0.0000   45.0779   -0.0000   -0.0000
       5     -0.0000    0.0000   -0.0000   -0.0000   45.0779   -0.0000
       6      0.0000   -0.0000   -0.0000   -0.0000   -0.0000   45.0779
-------------------------------------------------------------------------------


  Elastic Compliance Matrix: (Units=1/GPa)

-------------------------------------------------------------------------------
  Indices      1         2         3         4         5         6    
-------------------------------------------------------------------------------
       1    0.015305 -0.004944 -0.004944 -0.000000  0.000000 -0.000000
       2   -0.004944  0.015305 -0.004944  0.000000 -0.000000  0.000000
       3   -0.004944 -0.004944  0.015305  0.000000  0.000000  0.000000
       4   -0.000000  0.000000  0.000000  0.022184  0.000000  0.000000
       5    0.000000 -0.000000  0.000000  0.000000  0.022184  0.000000
       6   -0.000000  0.000000  0.000000  0.000000  0.000000  0.022184
-------------------------------------------------------------------------------

  Mechanical properties :

-------------------------------------------------------------------------------
  Convention :                    Reuss         Voigt         Hill
-------------------------------------------------------------------------------
  Bulk  Modulus (GPa)     =      61.53912      61.53912      61.53912
  Shear Modulus (GPa)     =      33.88682      36.92346      35.40514
-------------------------------------------------------------------------------
  Velocity S-wave (km/s)  =       4.12240       4.30314       4.21374
  Velocity P-wave (km/s)  =       7.31578       7.45327       7.38484
-------------------------------------------------------------------------------
  Compressibility (1/GPa) =    0.01624983
-------------------------------------------------------------------------------
  Stress axis :                     x             y             z
-------------------------------------------------------------------------------
  Youngs Moduli (GPa)     =      65.33688      65.33688      65.33688
-------------------------------------------------------------------------------
  Poissons Ratio (x)      =                     0.32305       0.32305
  Poissons Ratio (y)      =       0.32305                     0.32305
  Poissons Ratio (z)      =       0.32305       0.32305
-------------------------------------------------------------------------------


  Piezoelectric Strain Matrix: (Units=C/m**2)

-------------------------------------------------------------------------------
  Indices      1         2         3         4         5         6    
-------------------------------------------------------------------------------
       x    -0.00000   0.00000   0.00000   0.00000   0.00000   0.00000
       y    -0.00000  -0.00000  -0.00000   0.00000   0.00000  -0.00000
       z    -0.00000  -0.00000   0.00000   0.00000  -0.00000   0.00000
-------------------------------------------------------------------------------


  Piezoelectric Stress Matrix: (Units=10**-11 C/N)

-------------------------------------------------------------------------------
  Indices      1         2         3         4         5         6    
-------------------------------------------------------------------------------
       x    -0.00000   0.00000   0.00000   0.00000   0.00000   0.00000
       y     0.00000   0.00000  -0.00000   0.00000   0.00000  -0.00000
       z    -0.00000  -0.00000   0.00000   0.00000  -0.00000   0.00000
-------------------------------------------------------------------------------


  Static dielectric constant tensor : 

-------------------------------------------------------------------------------
              x         y         z
-------------------------------------------------------------------------------
       x    12.07041   0.00000   0.00000
       y     0.00000  12.07041   0.00000
       z     0.00000   0.00000  12.07041
--------------------------------------------------------------------------------

  High frequency dielectric constant tensor : 

-------------------------------------------------------------------------------
              x         y         z
-------------------------------------------------------------------------------
       x     1.74197  -0.00000  -0.00000
       y    -0.00000   1.74197  -0.00000
       z    -0.00000  -0.00000   1.74197
-------------------------------------------------------------------------------

  Static refractive indices : 

-------------------------------------------------------------------------------
    1 =    3.47425      2 =    3.47425      3 =    3.47425
-------------------------------------------------------------------------------

  High frequency refractive indices : 

-------------------------------------------------------------------------------
    1 =    1.31984      2 =    1.31984      3 =    1.31984
-------------------------------------------------------------------------------


  Time to end of optimisation =       0.0155 seconds

********************************************************************************
*  Defect calculation for configuration   1 :                                  *
********************************************************************************

  Total number of defects =      3

  Total charge on defect  =  -1.00

  Defect centre is at   0.5000   0.2500   0.2500  Frac

  Region 1 radius =  16.0000      Number of ions =   2013

  Number of symmetry inequivalent region 1 ions  =    606

  Region 2 radius =  20.0000      Number of ions =   1886

  Number of symmetry inequivalent region 2a ions =    526

  Region 2a mode = 4 : screened electrostatics due to region 1 
                       neglect correction to region 1 forces from 2a
                       region 2a displacements based on defects only

  Region 2a ions will only interact with defects in region 1

  Vacancies:

--------------------------------------------------------------------------------
    Specification type     Symbol/Number         x          y          z
--------------------------------------------------------------------------------
    Fractional                               0.500000   0.500000   0.000000
    Fractional                               0.500000   0.000000   0.500000
--------------------------------------------------------------------------------

  Interstitials:

--------------------------------------------------------------------------------
    Specification type     Symbol/Number         x          y          z
--------------------------------------------------------------------------------
    Atom/Fractional         Li               0.500000   0.250000   0.250000
--------------------------------------------------------------------------------


  Symmetry reduced region 1 (Relative to defect centre) :

--------------------------------------------------------------------------------
   No.   Atomic       x            y             z       Radius  Multiplicity   
         Label      (Angs)       (Angs)        (Angs)    (Angs)     
--------------------------------------------------------------------------------
     1  Li    c      0.0000       0.0000       0.0000    0.0000     1    Defect
     2  O     c      0.0000       0.9797 *     0.9797    0.0000     1          
     3  Cl    c      1.9594 *    -0.9797 *    -0.9797    0.0000     2          
     4  Li    c      1.9594 *     0.9797 *     0.9797    0.0000     2          
     5  O     c      0.0000       0.9797 *    -2.9392 *  0.0000     2          
     6  Li    c      0.0000       0.9797 *     2.9392 *  0.0000     2          
     7  Li    c      0.0000      -2.9392 *    -0.9797 *  0.0000     2          
     8  Cl    c      1.9594 *    -0.9797 *     2.9392 *  0.0000     4          
     9  Li    c      1.9594 *     0.9797 *    -2.9392 *  0.0000     4          
    10  O     c      0.0000      -2.9392 *    -2.9392    0.0000     1          
    11  O     c      3.9189 *     0.9797 *     0.9797    0.0000     2          
    12  Li    c      0.0000      -2.9392 *     2.9392 *  0.0000     2          
    13  Li    c      3.9189 *     0.9797 *    -0.9797 *  0.0000     4          
    14  Cl    c      1.9594 *     2.9392 *     2.9392    0.0000     2          
    15  Li    c      1.9594 *    -2.9392 *    -2.9392    0.0000     2          
    16  O     c      0.0000       0.9797 *     4.8986 *  0.0000     2          
    17  O     c      3.9189 *     0.9797 *    -2.9392 *  0.0000     4          
    18  Li    c      0.0000       0.9797 *    -4.8986 *  0.0000     2          
    19  Li    c      0.0000       4.8986 *    -0.9797 *  0.0000     2          
    20  Li    c      3.9189 *     0.9797 *     2.9392 *  0.0000     4          
    21  Li    c      3.9189 *    -0.9797 *    -2.9392 *  0.0000     4          
    22  Cl    c      1.9594 *    -0.9797 *    -4.8986 *  0.0000     4          
    23  Li    c      1.9594 *     0.9797 *     4.8986 *  0.0000     4          
    24  O     c      0.0000       4.8986 *    -2.9392 *  0.0000     2          
    25  O     c      3.9189 *    -2.9392 *    -2.9392    0.0000     2          
    26  Li    c      0.0000       4.8986 *     2.9392 *  0.0000     2          
    27  Li    c      0.0000      -2.9392 *    -4.8986 *  0.0000     2          
    28  Li    c      3.9189 *    -2.9392 *     2.9392 *  0.0000     4          
    29  Cl    c      1.9594 *     2.9392 *    -4.8986 *  0.0000     4          
    30  Cl    c      5.8783 *    -0.9797 *    -0.9797    0.0000     2          
    31  Li    c      1.9594 *     4.8986 *    -2.9392 *  0.0000     4          
    32  Li    c      5.8783 *     0.9797 *     0.9797    0.0000     2          
    33  O     c      3.9189 *     0.9797 *     4.8986 *  0.0000     4          
    34  Li    c      3.9189 *     0.9797 *    -4.8986 *  0.0000     4          
    35  Li    c      3.9189 *     4.8986 *    -0.9797 *  0.0000     4          
    36  Cl    c      5.8783 *    -0.9797 *     2.9392 *  0.0000     4          
    37  Li    c      5.8783 *     0.9797 *    -2.9392 *  0.0000     4          
    38  O     c      0.0000       4.8986 *     4.8986    0.0000     1          
    39  O     c      3.9189 *     4.8986 *    -2.9392 *  0.0000     4          
    40  Li    c      0.0000       4.8986 *    -4.8986 *  0.0000     2          
    41  Li    c      3.9189 *     4.8986 *     2.9392 *  0.0000     4          
    42  Li    c      3.9189 *    -4.8986 *    -2.9392 *  0.0000     4          
    43  O     c      0.0000       0.9797 *    -6.8580 *  0.0000     2          
    44  Li    c      0.0000       0.9797 *     6.8580 *  0.0000     2          
    45  Li    c      0.0000      -6.8580 *    -0.9797 *  0.0000     2          
    46  Cl    c      1.9594 *    -4.8986 *    -4.8986    0.0000     2          
    47  Li    c      1.9594 *     4.8986 *     4.8986    0.0000     2          
    48  Cl    c      1.9594 *     6.8580 *    -0.9797 *  0.0000     4          
    49  Cl    c      5.8783 *     2.9392 *     2.9392    0.0000     2          
    50  Li    c      1.9594 *    -6.8580 *     0.9797 *  0.0000     4          
    51  Li    c      5.8783 *    -2.9392 *    -2.9392    0.0000     2          
    52  O     c      0.0000      -2.9392 *    -6.8580 *  0.0000     2          
    53  Li    c      0.0000      -2.9392 *     6.8580 *  0.0000     2          
    54  Li    c      0.0000      -6.8580 *     2.9392 *  0.0000     2          
    55  Cl    c      5.8783 *    -4.8986 *    -0.9797 *  0.0000     4          
    56  Li    c      5.8783 *     4.8986 *     0.9797 *  0.0000     4          
    57  Cl    c      1.9594 *     6.8580 *     2.9392 *  0.0000     4          
    58  Li    c      1.9594 *    -6.8580 *    -2.9392 *  0.0000     4          
    59  O     c      7.8377 *     0.9797 *     0.9797    0.0000     2          
    60  Li    c      7.8377 *     0.9797 *    -0.9797 *  0.0000     4          
    61  O     c      3.9189 *     4.8986 *     4.8986    0.0000     2          
    62  Li    c      3.9189 *     4.8986 *    -4.8986 *  0.0000     4          
    63  O     c      3.9189 *     0.9797 *    -6.8580 *  0.0000     4          
    64  Li    c      3.9189 *     0.9797 *     6.8580 *  0.0000     4          
    65  Li    c      3.9189 *    -6.8580 *    -0.9797 *  0.0000     4          
    66  Cl    c      5.8783 *     2.9392 *    -4.8986 *  0.0000     4          
    67  Li    c      5.8783 *     4.8986 *    -2.9392 *  0.0000     4          
    68  O     c      7.8377 *     0.9797 *    -2.9392 *  0.0000     4          
    69  Li    c      7.8377 *     0.9797 *     2.9392 *  0.0000     4          
    70  Li    c      7.8377 *    -0.9797 *    -2.9392 *  0.0000     4          
    71  O     c      0.0000       4.8986 *    -6.8580 *  0.0000     2          
    72  O     c      3.9189 *    -2.9392 *    -6.8580 *  0.0000     4          
    73  Li    c      0.0000       4.8986 *     6.8580 *  0.0000     2          
    74  Li    c      0.0000      -6.8580 *    -4.8986 *  0.0000     2          
    75  Li    c      3.9189 *    -2.9392 *     6.8580 *  0.0000     4          
    76  Li    c      3.9189 *     2.9392 *    -6.8580 *  0.0000     4          
    77  Cl    c      1.9594 *     6.8580 *    -4.8986 *  0.0000     4          
    78  Li    c      1.9594 *     4.8986 *    -6.8580 *  0.0000     4          
    79  O     c      0.0000       0.9797 *     8.8175 *  0.0000     2          
    80  O     c      7.8377 *    -2.9392 *    -2.9392    0.0000     2          
    81  Li    c      0.0000       0.9797 *    -8.8175 *  0.0000     2          
    82  Li    c      0.0000       8.8175 *    -0.9797 *  0.0000     2          
    83  Li    c      7.8377 *    -2.9392 *     2.9392 *  0.0000     4          
    84  Cl    c      1.9594 *    -0.9797 *    -8.8175 *  0.0000     4          
    85  Li    c      1.9594 *     0.9797 *     8.8175 *  0.0000     4          
    86  Cl    c      5.8783 *    -0.9797 *     6.8580 *  0.0000     4          
    87  Cl    c      5.8783 *    -4.8986 *    -4.8986    0.0000     2          
    88  Li    c      5.8783 *     0.9797 *    -6.8580 *  0.0000     4          
    89  Li    c      5.8783 *     4.8986 *     4.8986    0.0000     2          
    90  O     c      0.0000       8.8175 *    -2.9392 *  0.0000     2          
    91  O     c      7.8377 *     0.9797 *     4.8986 *  0.0000     4          
    92  Li    c      0.0000       8.8175 *     2.9392 *  0.0000     2          
    93  Li    c      0.0000      -2.9392 *    -8.8175 *  0.0000     2          
    94  Li    c      7.8377 *     0.9797 *    -4.8986 *  0.0000     4          
    95  Li    c      7.8377 *     4.8986 *    -0.9797 *  0.0000     4          
    96  O     c      3.9189 *     4.8986 *    -6.8580 *  0.0000     4          
    97  Li    c      3.9189 *     4.8986 *     6.8580 *  0.0000     4          
    98  Li    c      3.9189 *    -6.8580 *    -4.8986 *  0.0000     4          
    99  Cl    c      1.9594 *     2.9392 *    -8.8175 *  0.0000     4          
   100  Li    c      1.9594 *     8.8175 *    -2.9392 *  0.0000     4          
   101  Cl    c      5.8783 *     2.9392 *     6.8580 *  0.0000     4          
   102  Li    c      5.8783 *    -2.9392 *    -6.8580 *  0.0000     4          
   103  O     c      7.8377 *     4.8986 *    -2.9392 *  0.0000     4          
   104  Li    c      7.8377 *     4.8986 *     2.9392 *  0.0000     4          
   105  Li    c      7.8377 *    -4.8986 *    -2.9392 *  0.0000     4          
   106  O     c      3.9189 *     0.9797 *     8.8175 *  0.0000     4          
   107  Li    c      3.9189 *     0.9797 *    -8.8175 *  0.0000     4          
   108  Li    c      3.9189 *     8.8175 *    -0.9797 *  0.0000     4          
   109  O     c      0.0000      -6.8580 *    -6.8580    0.0000     1          
   110  Li    c      0.0000      -6.8580 *     6.8580 *  0.0000     2          
   111  Cl    c      9.7972 *    -0.9797 *    -0.9797    0.0000     2          
   112  Li    c      9.7972 *     0.9797 *     0.9797    0.0000     2          
   113  Cl    c      1.9594 *     6.8580 *     6.8580    0.0000     2          
   114  Li    c      1.9594 *    -6.8580 *    -6.8580    0.0000     2          
   115  O     c      0.0000       4.8986 *     8.8175 *  0.0000     2          
   116  O     c      3.9189 *     8.8175 *    -2.9392 *  0.0000     4          
   117  Li    c      0.0000       4.8986 *    -8.8175 *  0.0000     2          
   118  Li    c      0.0000       8.8175 *    -4.8986 *  0.0000     2          
   119  Li    c      3.9189 *     8.8175 *     2.9392 *  0.0000     4          
   120  Li    c      3.9189 *    -2.9392 *    -8.8175 *  0.0000     4          
   121  Cl    c      1.9594 *    -4.8986 *    -8.8175 *  0.0000     4          
   122  Cl    c      5.8783 *    -4.8986 *     6.8580 *  0.0000     4          
   123  Cl    c      9.7972 *    -0.9797 *     2.9392 *  0.0000     4          
   124  Li    c      1.9594 *     4.8986 *     8.8175 *  0.0000     4          
   125  Li    c      5.8783 *     4.8986 *    -6.8580 *  0.0000     4          
   126  Li    c      9.7972 *     0.9797 *    -2.9392 *  0.0000     4          
   127  O     c      7.8377 *     0.9797 *    -6.8580 *  0.0000     4          
   128  O     c      7.8377 *     4.8986 *     4.8986    0.0000     2          
   129  Li    c      7.8377 *     0.9797 *     6.8580 *  0.0000     4          
   130  Li    c      7.8377 *     4.8986 *    -4.8986 *  0.0000     4          
   131  Li    c      7.8377 *    -0.9797 *    -6.8580 *  0.0000     4          
   132  O     c      3.9189 *    -6.8580 *    -6.8580    0.0000     2          
   133  Li    c      3.9189 *    -6.8580 *     6.8580 *  0.0000     4          
   134  Cl    c      5.8783 *    -0.9797 *    -8.8175 *  0.0000     4          
   135  Cl    c      9.7972 *     2.9392 *     2.9392    0.0000     2          
   136  Li    c      5.8783 *     0.9797 *     8.8175 *  0.0000     4          
   137  Li    c      9.7972 *    -2.9392 *    -2.9392    0.0000     2          
   138  O     c      3.9189 *     4.8986 *     8.8175 *  0.0000     4          
   139  O     c      7.8377 *    -2.9392 *    -6.8580 *  0.0000     4          
   140  Li    c      3.9189 *     4.8986 *    -8.8175 *  0.0000     4          
   141  Li    c      3.9189 *     8.8175 *    -4.8986 *  0.0000     4          
   142  Li    c      7.8377 *    -2.9392 *     6.8580 *  0.0000     4          
   143  Li    c      7.8377 *    -6.8580 *     2.9392 *  0.0000     4          
   144  O     c      0.0000       0.9797 *   -10.7769 *  0.0000     2          
   145  Li    c      0.0000       0.9797 *    10.7769 *  0.0000     2          
   146  Li    c      0.0000     -10.7769 *    -0.9797 *  0.0000     2          
   147  Cl    c      5.8783 *     2.9392 *    -8.8175 *  0.0000     4          
   148  Li    c      5.8783 *    -2.9392 *     8.8175 *  0.0000     4          
   149  Cl    c      9.7972 *    -0.9797 *    -4.8986 *  0.0000     4          
   150  Li    c      9.7972 *     0.9797 *     4.8986 *  0.0000     4          
   151  Cl    c      1.9594 *    -0.9797 *    10.7769 *  0.0000     4          
   152  Li    c      1.9594 *     0.9797 *   -10.7769 *  0.0000     4          
   153  O     c      0.0000       8.8175 *    -6.8580 *  0.0000     2          
   154  Li    c      0.0000       8.8175 *     6.8580 *  0.0000     2          
   155  Li    c      0.0000      -6.8580 *    -8.8175 *  0.0000     2          
   156  O     c      0.0000      -2.9392 *   -10.7769 *  0.0000     2          
   157  Li    c      0.0000      -2.9392 *    10.7769 *  0.0000     2          
   158  Li    c      0.0000     -10.7769 *     2.9392 *  0.0000     2          
   159  Cl    c      1.9594 *     6.8580 *    -8.8175 *  0.0000     4          
   160  Cl    c      9.7972 *     2.9392 *    -4.8986 *  0.0000     4          
   161  Li    c      1.9594 *     8.8175 *    -6.8580 *  0.0000     4          
   162  Li    c      9.7972 *     4.8986 *    -2.9392 *  0.0000     4          
   163  Cl    c      1.9594 *     2.9392 *    10.7769 *  0.0000     4          
   164  Cl    c      5.8783 *     6.8580 *     6.8580    0.0000     2          
   165  Li    c      1.9594 *    -2.9392 *   -10.7769 *  0.0000     4          
   166  Li    c      5.8783 *    -6.8580 *    -6.8580    0.0000     2          
   167  O     c      7.8377 *     4.8986 *    -6.8580 *  0.0000     4          
   168  Li    c      7.8377 *     4.8986 *     6.8580 *  0.0000     4          
   169  Li    c      7.8377 *    -6.8580 *    -4.8986 *  0.0000     4          
   170  O     c      3.9189 *     0.9797 *   -10.7769 *  0.0000     4          
   171  Li    c      3.9189 *     0.9797 *    10.7769 *  0.0000     4          
   172  Li    c      3.9189 *   -10.7769 *    -0.9797 *  0.0000     4          
   173  Cl    c      5.8783 *    -4.8986 *    -8.8175 *  0.0000     4          
   174  Li    c      5.8783 *     4.8986 *     8.8175 *  0.0000     4          
   175  O     c    -11.7566 *     0.9797 *     0.9797    0.0000     2          
   176  Li    c    -11.7566 *     0.9797 *    -0.9797 *  0.0000     4          
   177  O     c      3.9189 *     8.8175 *    -6.8580 *  0.0000     4          
   178  O     c      7.8377 *     0.9797 *     8.8175 *  0.0000     4          
   179  Li    c      3.9189 *     8.8175 *     6.8580 *  0.0000     4          
   180  Li    c      3.9189 *    -6.8580 *    -8.8175 *  0.0000     4          
   181  Li    c      7.8377 *     0.9797 *    -8.8175 *  0.0000     4          
   182  Li    c      7.8377 *     8.8175 *    -0.9797 *  0.0000     4          
   183  O     c      0.0000       4.8986 *   -10.7769 *  0.0000     2          
   184  O     c      3.9189 *    -2.9392 *   -10.7769 *  0.0000     4          
   185  Li    c      0.0000       4.8986 *    10.7769 *  0.0000     2          
   186  Li    c      0.0000     -10.7769 *    -4.8986 *  0.0000     2          
   187  Li    c      3.9189 *    -2.9392 *    10.7769 *  0.0000     4          
   188  Li    c      3.9189 *   -10.7769 *     2.9392 *  0.0000     4          
   189  Cl    c      9.7972 *    -4.8986 *    -4.8986    0.0000     2          
   190  Li    c      9.7972 *     4.8986 *     4.8986    0.0000     2          
   191  Cl    c      1.9594 *    10.7769 *    -4.8986 *  0.0000     4          
   192  Cl    c      9.7972 *    -0.9797 *     6.8580 *  0.0000     4          
   193  Li    c      1.9594 *     4.8986 *   -10.7769 *  0.0000     4          
   194  Li    c      9.7972 *     0.9797 *    -6.8580 *  0.0000     4          
   195  O     c      7.8377 *    -2.9392 *     8.8175 *  0.0000     4          
   196  O     c    -11.7566 *     0.9797 *    -2.9392 *  0.0000     4          
   197  Li    c      7.8377 *    -2.9392 *    -8.8175 *  0.0000     4          
   198  Li    c    -11.7566 *     0.9797 *     2.9392 *  0.0000     4          
   199  Li    c    -11.7566 *    -2.9392 *    -0.9797 *  0.0000     4          
   200  Li    c      7.8377 *     2.9392 *     8.8175 *  0.0000     4          
   201  Cl    c      9.7972 *     2.9392 *     6.8580 *  0.0000     4          
   202  Li    c      9.7972 *    -2.9392 *    -6.8580 *  0.0000     4          
   203  Cl    c      5.8783 *    -0.9797 *    10.7769 *  0.0000     4          
   204  Li    c      5.8783 *     0.9797 *   -10.7769 *  0.0000     4          
   205  O     c      0.0000       8.8175 *     8.8175    0.0000     1          
   206  O     c    -11.7566 *    -2.9392 *    -2.9392    0.0000     2          
   207  Li    c      0.0000       8.8175 *    -8.8175 *  0.0000     2          
   208  Li    c    -11.7566 *    -2.9392 *     2.9392 *  0.0000     4          
   209  O     c      3.9189 *     4.8986 *   -10.7769 *  0.0000     4          
   210  O     c      7.8377 *    -6.8580 *    -6.8580    0.0000     2          
   211  Li    c      3.9189 *     4.8986 *    10.7769 *  0.0000     4          
   212  Li    c      3.9189 *   -10.7769 *    -4.8986 *  0.0000     4          
   213  Li    c      7.8377 *    -6.8580 *     6.8580 *  0.0000     4          
   214  Cl    c      1.9594 *    -8.8175 *    -8.8175    0.0000     2          
   215  Li    c      1.9594 *     8.8175 *     8.8175    0.0000     2          
   216  Cl    c      5.8783 *     6.8580 *    -8.8175 *  0.0000     4          
   217  Li    c      5.8783 *     8.8175 *    -6.8580 *  0.0000     4          
   218  Cl    c      5.8783 *     2.9392 *    10.7769 *  0.0000     4          
   219  Li    c      5.8783 *    -2.9392 *   -10.7769 *  0.0000     4          
   220  O     c    -11.7566 *     0.9797 *     4.8986 *  0.0000     4          
   221  Li    c    -11.7566 *     0.9797 *    -4.8986 *  0.0000     4          
   222  Li    c    -11.7566 *     4.8986 *    -0.9797 *  0.0000     4          
   223  O     c      0.0000       0.9797 *    12.7363 *  0.0000     2          
   224  O     c      7.8377 *     4.8986 *     8.8175 *  0.0000     4          
   225  Li    c      0.0000       0.9797 *   -12.7363 *  0.0000     2          
   226  Li    c      0.0000      12.7363 *    -0.9797 *  0.0000     2          
   227  Li    c      7.8377 *     4.8986 *    -8.8175 *  0.0000     4          
   228  Li    c      7.8377 *     8.8175 *    -4.8986 *  0.0000     4          
   229  O     c      0.0000      -6.8580 *   -10.7769 *  0.0000     2          
   230  Li    c      0.0000      -6.8580 *    10.7769 *  0.0000     2          
   231  Li    c      0.0000     -10.7769 *     6.8580 *  0.0000     2          
   232  Cl    c      1.9594 *    -0.9797 *   -12.7363 *  0.0000     4          
   233  Li    c      1.9594 *     0.9797 *    12.7363 *  0.0000     4          
   234  Cl    c      1.9594 *     6.8580 *    10.7769 *  0.0000     4          
   235  Cl    c      9.7972 *     6.8580 *    -4.8986 *  0.0000     4          
   236  Li    c      1.9594 *    -6.8580 *   -10.7769 *  0.0000     4          
   237  Li    c      9.7972 *     4.8986 *    -6.8580 *  0.0000     4          
   238  O     c      3.9189 *     8.8175 *     8.8175    0.0000     2          
   239  O     c    -11.7566 *     4.8986 *    -2.9392 *  0.0000     4          
   240  Li    c      3.9189 *     8.8175 *    -8.8175 *  0.0000     4          
   241  Li    c    -11.7566 *     4.8986 *     2.9392 *  0.0000     4          
   242  Li    c    -11.7566 *    -2.9392 *    -4.8986 *  0.0000     4          
   243  O     c      0.0000      12.7363 *    -2.9392 *  0.0000     2          
   244  Li    c      0.0000      12.7363 *     2.9392 *  0.0000     2          
   245  Li    c      0.0000      -2.9392 *   -12.7363 *  0.0000     2          
   246  Cl    c      1.9594 *     2.9392 *   -12.7363 *  0.0000     4          
   247  Cl    c      9.7972 *    -0.9797 *    -8.8175 *  0.0000     4          
   248  Li    c      1.9594 *    12.7363 *    -2.9392 *  0.0000     4          
   249  Li    c      9.7972 *     0.9797 *     8.8175 *  0.0000     4          
   250  Cl    c      5.8783 *    10.7769 *    -4.8986 *  0.0000     4          
   251  Li    c      5.8783 *     4.8986 *   -10.7769 *  0.0000     4          
   252  O     c      3.9189 *     0.9797 *    12.7363 *  0.0000     4          
   253  Li    c      3.9189 *     0.9797 *   -12.7363 *  0.0000     4          
   254  Li    c      3.9189 *    12.7363 *    -0.9797 *  0.0000     4          
   255  O     c      3.9189 *   -10.7769 *    -6.8580 *  0.0000     4          
   256  O     c      7.8377 *     0.9797 *   -10.7769 *  0.0000     4          
   257  Li    c      3.9189 *   -10.7769 *     6.8580 *  0.0000     4          
   258  Li    c      7.8377 *     0.9797 *    10.7769 *  0.0000     4          
   259  Li    c      7.8377 *   -10.7769 *    -0.9797 *  0.0000     4          
   260  Li    c      3.9189 *    10.7769 *    -6.8580 *  0.0000     4          
   261  Cl    c      9.7972 *     2.9392 *    -8.8175 *  0.0000     4          
   262  Li    c      9.7972 *    -2.9392 *     8.8175 *  0.0000     4          
   263  O     c    -11.7566 *     0.9797 *    -6.8580 *  0.0000     4          
   264  O     c    -11.7566 *     4.8986 *     4.8986    0.0000     2          
   265  Li    c    -11.7566 *     0.9797 *     6.8580 *  0.0000     4          
   266  Li    c    -11.7566 *     4.8986 *    -4.8986 *  0.0000     4          
   267  Li    c    -11.7566 *    -6.8580 *    -0.9797 *  0.0000     4          
   268  O     c      0.0000       4.8986 *    12.7363 *  0.0000     2          
   269  O     c      3.9189 *    12.7363 *    -2.9392 *  0.0000     4          
   270  O     c      7.8377 *     8.8175 *    -6.8580 *  0.0000     4          
   271  Li    c      0.0000       4.8986 *   -12.7363 *  0.0000     2          
   272  Li    c      0.0000      12.7363 *    -4.8986 *  0.0000     2          
   273  Li    c      3.9189 *    12.7363 *     2.9392 *  0.0000     4          
   274  Li    c      3.9189 *    -2.9392 *   -12.7363 *  0.0000     4          
   275  Li    c      7.8377 *     8.8175 *     6.8580 *  0.0000     4          
   276  Li    c      7.8377 *    -6.8580 *    -8.8175 *  0.0000     4          
   277  O     c      7.8377 *    -2.9392 *   -10.7769 *  0.0000     4          
   278  Li    c      7.8377 *    -2.9392 *    10.7769 *  0.0000     4          
   279  Li    c      7.8377 *   -10.7769 *     2.9392 *  0.0000     4          
   280  Cl    c    -13.7161 *    -0.9797 *    -0.9797    0.0000     2          
   281  Li    c    -13.7161 *     0.9797 *     0.9797    0.0000     2          
   282  Cl    c      1.9594 *    -4.8986 *   -12.7363 *  0.0000     4          
   283  Li    c      1.9594 *     4.8986 *    12.7363 *  0.0000     4          
   284  Cl    c      5.8783 *    -8.8175 *    -8.8175    0.0000     2          
   285  Cl    c      9.7972 *     6.8580 *     6.8580    0.0000     2          
   286  Li    c      5.8783 *     8.8175 *     8.8175    0.0000     2          
   287  Li    c      9.7972 *    -6.8580 *    -6.8580    0.0000     2          
   288  O     c    -11.7566 *    -2.9392 *    -6.8580 *  0.0000     4          
   289  Li    c    -11.7566 *    -2.9392 *     6.8580 *  0.0000     4          
   290  Li    c    -11.7566 *    -6.8580 *     2.9392 *  0.0000     4          
   291  O     c      0.0000       8.8175 *   -10.7769 *  0.0000     2          
   292  Li    c      0.0000       8.8175 *    10.7769 *  0.0000     2          
   293  Li    c      0.0000     -10.7769 *    -8.8175 *  0.0000     2          
   294  Cl    c    -13.7161 *    -0.9797 *     2.9392 *  0.0000     4          
   295  Li    c    -13.7161 *     0.9797 *    -2.9392 *  0.0000     4          
   296  Cl    c      5.8783 *    -0.9797 *   -12.7363 *  0.0000     4          
   297  Cl    c      9.7972 *    -4.8986 *    -8.8175 *  0.0000     4          
   298  Li    c      5.8783 *     0.9797 *    12.7363 *  0.0000     4          
   299  Li    c      9.7972 *     4.8986 *     8.8175 *  0.0000     4          
   300  Cl    c      1.9594 *    10.7769 *    -8.8175 *  0.0000     4          
   301  Cl    c      5.8783 *    10.7769 *     6.8580 *  0.0000     4          
   302  Li    c      1.9594 *     8.8175 *   -10.7769 *  0.0000     4          
   303  Li    c      5.8783 *   -10.7769 *    -6.8580 *  0.0000     4          
   304  O     c      3.9189 *     4.8986 *    12.7363 *  0.0000     4          
   305  Li    c      3.9189 *     4.8986 *   -12.7363 *  0.0000     4          
   306  Li    c      3.9189 *    12.7363 *    -4.8986 *  0.0000     4          
   307  O     c      7.8377 *     4.8986 *   -10.7769 *  0.0000     4          
   308  Li    c      7.8377 *     4.8986 *    10.7769 *  0.0000     4          
   309  Li    c      7.8377 *   -10.7769 *    -4.8986 *  0.0000     4          
   310  Cl    c    -13.7161 *     2.9392 *     2.9392    0.0000     2          
   311  Li    c    -13.7161 *    -2.9392 *    -2.9392    0.0000     2          
   312  Cl    c      5.8783 *     2.9392 *   -12.7363 *  0.0000     4          
   313  Li    c      5.8783 *    12.7363 *    -2.9392 *  0.0000     4          
   314  O     c    -11.7566 *     4.8986 *    -6.8580 *  0.0000     4          
   315  Li    c    -11.7566 *     4.8986 *     6.8580 *  0.0000     4          
   316  Li    c    -11.7566 *    -6.8580 *    -4.8986 *  0.0000     4          
   317  O     c      0.0000      12.7363 *    -6.8580 *  0.0000     2          
   318  O     c      3.9189 *   -10.7769 *     8.8175 *  0.0000     4          
   319  Li    c      0.0000      12.7363 *     6.8580 *  0.0000     2          
   320  Li    c      0.0000      -6.8580 *   -12.7363 *  0.0000     2          
   321  Li    c      3.9189 *   -10.7769 *    -8.8175 *  0.0000     4          
   322  Li    c      3.9189 *    10.7769 *     8.8175 *  0.0000     4          
   323  Cl    c    -13.7161 *    -0.9797 *    -4.8986 *  0.0000     4          
   324  Li    c    -13.7161 *     0.9797 *     4.8986 *  0.0000     4          
   325  Cl    c      1.9594 *   -12.7363 *     6.8580 *  0.0000     4          
   326  Li    c      1.9594 *    12.7363 *    -6.8580 *  0.0000     4          
   327  Cl    c      9.7972 *    -0.9797 *    10.7769 *  0.0000     4          
   328  Li    c      9.7972 *     0.9797 *   -10.7769 *  0.0000     4          
   329  O     c    -11.7566 *     8.8175 *     0.9797 *  0.0000     4          
   330  Li    c    -11.7566 *     8.8175 *    -0.9797 *  0.0000     4          
   331  Li    c    -11.7566 *    -8.8175 *     0.9797 *  0.0000     4          
   332  O     c      7.8377 *     8.8175 *     8.8175    0.0000     2          
   333  Li    c      7.8377 *     8.8175 *    -8.8175 *  0.0000     4          
   334  O     c      0.0000       0.9797 *   -14.6958 *  0.0000     2          
   335  Li    c      0.0000       0.9797 *    14.6958 *  0.0000     2          
   336  Li    c      0.0000     -14.6958 *    -0.9797 *  0.0000     2          
   337  Cl    c    -13.7161 *     2.9392 *    -4.8986 *  0.0000     4          
   338  Li    c    -13.7161 *     4.8986 *    -2.9392 *  0.0000     4          
   339  Cl    c      5.8783 *    -4.8986 *   -12.7363 *  0.0000     4          
   340  Cl    c      9.7972 *     6.8580 *    -8.8175 *  0.0000     4          
   341  Li    c      5.8783 *     4.8986 *    12.7363 *  0.0000     4          
   342  Li    c      9.7972 *     8.8175 *    -6.8580 *  0.0000     4          
   343  Cl    c      1.9594 *    -0.9797 *    14.6958 *  0.0000     4          
   344  Cl    c      9.7972 *     2.9392 *    10.7769 *  0.0000     4          
   345  Li    c      1.9594 *     0.9797 *   -14.6958 *  0.0000     4          
   346  Li    c      9.7972 *    -2.9392 *   -10.7769 *  0.0000     4          
   347  O     c    -11.7566 *     8.8175 *    -2.9392 *  0.0000     4          
   348  Li    c    -11.7566 *     8.8175 *     2.9392 *  0.0000     4          
   349  Li    c    -11.7566 *    -2.9392 *    -8.8175 *  0.0000     4          
   350  O     c      3.9189 *    12.7363 *    -6.8580 *  0.0000     4          
   351  O     c      7.8377 *     0.9797 *    12.7363 *  0.0000     4          
   352  Li    c      3.9189 *    12.7363 *     6.8580 *  0.0000     4          
   353  Li    c      7.8377 *     0.9797 *   -12.7363 *  0.0000     4          
   354  Li    c      7.8377 *    12.7363 *    -0.9797 *  0.0000     4          
   355  Li    c      3.9189 *   -12.7363 *    -6.8580 *  0.0000     4          
   356  O     c      7.8377 *    -6.8580 *   -10.7769 *  0.0000     4          
   357  Li    c      7.8377 *    -6.8580 *    10.7769 *  0.0000     4          
   358  Li    c      7.8377 *   -10.7769 *     6.8580 *  0.0000     4          
   359  O     c      0.0000      -2.9392 *   -14.6958 *  0.0000     2          
   360  Li    c      0.0000      -2.9392 *    14.6958 *  0.0000     2          
   361  Li    c      0.0000     -14.6958 *     2.9392 *  0.0000     2          
   362  Cl    c      1.9594 *     2.9392 *    14.6958 *  0.0000     4          
   363  Cl    c      5.8783 *    10.7769 *    -8.8175 *  0.0000     4          
   364  Li    c      1.9594 *    -2.9392 *   -14.6958 *  0.0000     4          
   365  Li    c      5.8783 *     8.8175 *   -10.7769 *  0.0000     4          
   366  O     c    -11.7566 *    -6.8580 *    -6.8580    0.0000     2          
   367  Li    c    -11.7566 *    -6.8580 *     6.8580 *  0.0000     4          
   368  O     c      7.8377 *    12.7363 *    -2.9392 *  0.0000     4          
   369  Li    c      7.8377 *    12.7363 *     2.9392 *  0.0000     4          
   370  Li    c      7.8377 *    -2.9392 *   -12.7363 *  0.0000     4          
   371  O     c      3.9189 *     0.9797 *   -14.6958 *  0.0000     4          
   372  Li    c      3.9189 *     0.9797 *    14.6958 *  0.0000     4          
   373  Li    c      3.9189 *   -14.6958 *    -0.9797 *  0.0000     4          
   374  O     c      0.0000     -10.7769 *   -10.7769    0.0000     1          
   375  Li    c      0.0000     -10.7769 *    10.7769 *  0.0000     2          
   376  Cl    c    -13.7161 *    -0.9797 *     6.8580 *  0.0000     4          
   377  Cl    c    -13.7161 *    -4.8986 *    -4.8986    0.0000     2          
   378  Li    c    -13.7161 *     0.9797 *    -6.8580 *  0.0000     4          
   379  Li    c    -13.7161 *     4.8986 *     4.8986    0.0000     2          
   380  Cl    c      9.7972 *    -4.8986 *    10.7769 *  0.0000     4          
   381  Li    c      9.7972 *     4.8986 *   -10.7769 *  0.0000     4          
   382  Cl    c      1.9594 *    10.7769 *    10.7769    0.0000     2          
   383  Li    c      1.9594 *   -10.7769 *   -10.7769    0.0000     2          
   384  O     c    -11.7566 *     8.8175 *     4.8986 *  0.0000     4          
   385  Li    c    -11.7566 *     8.8175 *    -4.8986 *  0.0000     4          
   386  Li    c    -11.7566 *    -8.8175 *     4.8986 *  0.0000     4          
   387  O     c      0.0000       8.8175 *    12.7363 *  0.0000     2          
   388  Li    c      0.0000       8.8175 *   -12.7363 *  0.0000     2          
   389  Li    c      0.0000      12.7363 *    -8.8175 *  0.0000     2          
   390  O     c      0.0000       4.8986 *   -14.6958 *  0.0000     2          
   391  O     c      3.9189 *    -2.9392 *   -14.6958 *  0.0000     4          
   392  Li    c      0.0000       4.8986 *    14.6958 *  0.0000     2          
   393  Li    c      0.0000     -14.6958 *    -4.8986 *  0.0000     2          
   394  Li    c      3.9189 *    -2.9392 *    14.6958 *  0.0000     4          
   395  Li    c      3.9189 *   -14.6958 *     2.9392 *  0.0000     4          
   396  Cl    c    -13.7161 *     2.9392 *     6.8580 *  0.0000     4          
   397  Li    c    -13.7161 *    -2.9392 *    -6.8580 *  0.0000     4          
   398  Cl    c      1.9594 *    -8.8175 *   -12.7363 *  0.0000     4          
   399  Cl    c      5.8783 *     6.8580 *   -12.7363 *  0.0000     4          
   400  Li    c      1.9594 *     8.8175 *    12.7363 *  0.0000     4          
   401  Li    c      5.8783 *    12.7363 *    -6.8580 *  0.0000     4          
   402  Cl    c      1.9594 *    14.6958 *    -4.8986 *  0.0000     4          
   403  Li    c      1.9594 *     4.8986 *   -14.6958 *  0.0000     4          
   404  O     c      7.8377 *     4.8986 *    12.7363 *  0.0000     4          
   405  Li    c      7.8377 *     4.8986 *   -12.7363 *  0.0000     4          
   406  Li    c      7.8377 *    12.7363 *    -4.8986 *  0.0000     4          
   407  O     c      3.9189 *   -10.7769 *   -10.7769    0.0000     2          
   408  O     c     15.6755 *     0.9797 *     0.9797    0.0000     2          
   409  Li    c      3.9189 *   -10.7769 *    10.7769 *  0.0000     4          
   410  Li    c     15.6755 *     0.9797 *    -0.9797 *  0.0000     4          
   411  Cl    c      9.7972 *    -8.8175 *    -8.8175    0.0000     2          
   412  Li    c      9.7972 *     8.8175 *     8.8175    0.0000     2          
   413  Cl    c      5.8783 *    -0.9797 *    14.6958 *  0.0000     4          
   414  Li    c      5.8783 *     0.9797 *   -14.6958 *  0.0000     4          
   415  O     c      3.9189 *     8.8175 *    12.7363 *  0.0000     4          
   416  O     c      7.8377 *   -10.7769 *     8.8175 *  0.0000     4          
   417  O     c    -11.7566 *     0.9797 *   -10.7769 *  0.0000     4          
   418  Li    c      3.9189 *     8.8175 *   -12.7363 *  0.0000     4          
   419  Li    c      3.9189 *    12.7363 *    -8.8175 *  0.0000     4          
   420  Li    c      7.8377 *   -10.7769 *    -8.8175 *  0.0000     4          
   421  Li    c    -11.7566 *     0.9797 *    10.7769 *  0.0000     4          
   422  Li    c    -11.7566 *   -10.7769 *    -0.9797 *  0.0000     4          
   423  Li    c      7.8377 *    10.7769 *     8.8175 *  0.0000     4          
   424  O     c      3.9189 *     4.8986 *   -14.6958 *  0.0000     4          
   425  Li    c      3.9189 *     4.8986 *    14.6958 *  0.0000     4          
   426  Li    c      3.9189 *   -14.6958 *    -4.8986 *  0.0000     4          
   427  O     c     15.6755 *     0.9797 *    -2.9392 *  0.0000     4          
   428  Li    c     15.6755 *     0.9797 *     2.9392 *  0.0000     4          
   429  Li    c     15.6755 *    -2.9392 *    -0.9797 *  0.0000     4          
   430  O     s      0.0000       0.9797 *     0.9797    0.0000     1          
   431  Cl    s      1.9594 *    -0.9797 *    -0.9797    0.0000     2          
   432  O     s      0.0000       0.9797 *    -2.9392 *  0.0000     2          
   433  Cl    s      1.9594 *    -0.9797 *     2.9392 *  0.0000     4          
   434  O     s      0.0000      -2.9392 *    -2.9392    0.0000     1          
   435  O     s      3.9189 *     0.9797 *     0.9797    0.0000     2          
   436  Cl    s      1.9594 *     2.9392 *     2.9392    0.0000     2          
   437  O     s      0.0000       0.9797 *     4.8986 *  0.0000     2          
   438  O     s      3.9189 *     0.9797 *    -2.9392 *  0.0000     4          
   439  Cl    s      1.9594 *    -0.9797 *    -4.8986 *  0.0000     4          
   440  O     s      0.0000       4.8986 *    -2.9392 *  0.0000     2          
   441  O     s      3.9189 *    -2.9392 *    -2.9392    0.0000     2          
   442  Cl    s      1.9594 *     2.9392 *    -4.8986 *  0.0000     4          
   443  Cl    s      5.8783 *    -0.9797 *    -0.9797    0.0000     2          
   444  O     s      3.9189 *     0.9797 *     4.8986 *  0.0000     4          
   445  Cl    s      5.8783 *    -0.9797 *     2.9392 *  0.0000     4          
   446  O     s      0.0000       4.8986 *     4.8986    0.0000     1          
   447  O     s      3.9189 *     4.8986 *    -2.9392 *  0.0000     4          
   448  O     s      0.0000       0.9797 *    -6.8580 *  0.0000     2          
   449  Cl    s      1.9594 *    -4.8986 *    -4.8986    0.0000     2          
   450  Cl    s      1.9594 *     6.8580 *    -0.9797 *  0.0000     4          
   451  Cl    s      5.8783 *     2.9392 *     2.9392    0.0000     2          
   452  O     s      0.0000      -2.9392 *    -6.8580 *  0.0000     2          
   453  Cl    s      5.8783 *    -4.8986 *    -0.9797 *  0.0000     4          
   454  Cl    s      1.9594 *     6.8580 *     2.9392 *  0.0000     4          
   455  O     s      7.8377 *     0.9797 *     0.9797    0.0000     2          
   456  O     s      3.9189 *     4.8986 *     4.8986    0.0000     2          
   457  O     s      3.9189 *     0.9797 *    -6.8580 *  0.0000     4          
   458  Cl    s      5.8783 *     2.9392 *    -4.8986 *  0.0000     4          
   459  O     s      7.8377 *     0.9797 *    -2.9392 *  0.0000     4          
   460  O     s      0.0000       4.8986 *    -6.8580 *  0.0000     2          
   461  O     s      3.9189 *    -2.9392 *    -6.8580 *  0.0000     4          
   462  Cl    s      1.9594 *     6.8580 *    -4.8986 *  0.0000     4          
   463  O     s      0.0000       0.9797 *     8.8175 *  0.0000     2          
   464  O     s      7.8377 *    -2.9392 *    -2.9392    0.0000     2          
   465  Cl    s      1.9594 *    -0.9797 *    -8.8175 *  0.0000     4          
   466  Cl    s      5.8783 *    -0.9797 *     6.8580 *  0.0000     4          
   467  Cl    s      5.8783 *    -4.8986 *    -4.8986    0.0000     2          
   468  O     s      0.0000       8.8175 *    -2.9392 *  0.0000     2          
   469  O     s      7.8377 *     0.9797 *     4.8986 *  0.0000     4          
   470  O     s      3.9189 *     4.8986 *    -6.8580 *  0.0000     4          
   471  Cl    s      1.9594 *     2.9392 *    -8.8175 *  0.0000     4          
   472  Cl    s      5.8783 *     2.9392 *     6.8580 *  0.0000     4          
   473  O     s      7.8377 *     4.8986 *    -2.9392 *  0.0000     4          
   474  O     s      3.9189 *     0.9797 *     8.8175 *  0.0000     4          
   475  O     s      0.0000      -6.8580 *    -6.8580    0.0000     1          
   476  Cl    s      9.7972 *    -0.9797 *    -0.9797    0.0000     2          
   477  Cl    s      1.9594 *     6.8580 *     6.8580    0.0000     2          
   478  O     s      0.0000       4.8986 *     8.8175 *  0.0000     2          
   479  O     s      3.9189 *     8.8175 *    -2.9392 *  0.0000     4          
   480  Cl    s      1.9594 *    -4.8986 *    -8.8175 *  0.0000     4          
   481  Cl    s      5.8783 *    -4.8986 *     6.8580 *  0.0000     4          
   482  Cl    s      9.7972 *    -0.9797 *     2.9392 *  0.0000     4          
   483  O     s      7.8377 *     0.9797 *    -6.8580 *  0.0000     4          
   484  O     s      7.8377 *     4.8986 *     4.8986    0.0000     2          
   485  O     s      3.9189 *    -6.8580 *    -6.8580    0.0000     2          
   486  Cl    s      5.8783 *    -0.9797 *    -8.8175 *  0.0000     4          
   487  Cl    s      9.7972 *     2.9392 *     2.9392    0.0000     2          
   488  O     s      3.9189 *     4.8986 *     8.8175 *  0.0000     4          
   489  O     s      7.8377 *    -2.9392 *    -6.8580 *  0.0000     4          
   490  O     s      0.0000       0.9797 *   -10.7769 *  0.0000     2          
   491  Cl    s      5.8783 *     2.9392 *    -8.8175 *  0.0000     4          
   492  Cl    s      9.7972 *    -0.9797 *    -4.8986 *  0.0000     4          
   493  Cl    s      1.9594 *    -0.9797 *    10.7769 *  0.0000     4          
   494  O     s      0.0000       8.8175 *    -6.8580 *  0.0000     2          
   495  O     s      0.0000      -2.9392 *   -10.7769 *  0.0000     2          
   496  Cl    s      1.9594 *     6.8580 *    -8.8175 *  0.0000     4          
   497  Cl    s      9.7972 *     2.9392 *    -4.8986 *  0.0000     4          
   498  Cl    s      1.9594 *     2.9392 *    10.7769 *  0.0000     4          
   499  Cl    s      5.8783 *     6.8580 *     6.8580    0.0000     2          
   500  O     s      7.8377 *     4.8986 *    -6.8580 *  0.0000     4          
   501  O     s      3.9189 *     0.9797 *   -10.7769 *  0.0000     4          
   502  Cl    s      5.8783 *    -4.8986 *    -8.8175 *  0.0000     4          
   503  O     s    -11.7566 *     0.9797 *     0.9797    0.0000     2          
   504  O     s      3.9189 *     8.8175 *    -6.8580 *  0.0000     4          
   505  O     s      7.8377 *     0.9797 *     8.8175 *  0.0000     4          
   506  O     s      0.0000       4.8986 *   -10.7769 *  0.0000     2          
   507  O     s      3.9189 *    -2.9392 *   -10.7769 *  0.0000     4          
   508  Cl    s      9.7972 *    -4.8986 *    -4.8986    0.0000     2          
   509  Cl    s      1.9594 *    10.7769 *    -4.8986 *  0.0000     4          
   510  Cl    s      9.7972 *    -0.9797 *     6.8580 *  0.0000     4          
   511  O     s      7.8377 *    -2.9392 *     8.8175 *  0.0000     4          
   512  O     s    -11.7566 *     0.9797 *    -2.9392 *  0.0000     4          
   513  Cl    s      9.7972 *     2.9392 *     6.8580 *  0.0000     4          
   514  Cl    s      5.8783 *    -0.9797 *    10.7769 *  0.0000     4          
   515  O     s      0.0000       8.8175 *     8.8175    0.0000     1          
   516  O     s    -11.7566 *    -2.9392 *    -2.9392    0.0000     2          
   517  O     s      3.9189 *     4.8986 *   -10.7769 *  0.0000     4          
   518  O     s      7.8377 *    -6.8580 *    -6.8580    0.0000     2          
   519  Cl    s      1.9594 *    -8.8175 *    -8.8175    0.0000     2          
   520  Cl    s      5.8783 *     6.8580 *    -8.8175 *  0.0000     4          
   521  Cl    s      5.8783 *     2.9392 *    10.7769 *  0.0000     4          
   522  O     s    -11.7566 *     0.9797 *     4.8986 *  0.0000     4          
   523  O     s      0.0000       0.9797 *    12.7363 *  0.0000     2          
   524  O     s      7.8377 *     4.8986 *     8.8175 *  0.0000     4          
   525  O     s      0.0000      -6.8580 *   -10.7769 *  0.0000     2          
   526  Cl    s      1.9594 *    -0.9797 *   -12.7363 *  0.0000     4          
   527  Cl    s      1.9594 *     6.8580 *    10.7769 *  0.0000     4          
   528  Cl    s      9.7972 *     6.8580 *    -4.8986 *  0.0000     4          
   529  O     s      3.9189 *     8.8175 *     8.8175    0.0000     2          
   530  O     s    -11.7566 *     4.8986 *    -2.9392 *  0.0000     4          
   531  O     s      0.0000      12.7363 *    -2.9392 *  0.0000     2          
   532  Cl    s      1.9594 *     2.9392 *   -12.7363 *  0.0000     4          
   533  Cl    s      9.7972 *    -0.9797 *    -8.8175 *  0.0000     4          
   534  Cl    s      5.8783 *    10.7769 *    -4.8986 *  0.0000     4          
   535  O     s      3.9189 *     0.9797 *    12.7363 *  0.0000     4          
   536  O     s      3.9189 *   -10.7769 *    -6.8580 *  0.0000     4          
   537  O     s      7.8377 *     0.9797 *   -10.7769 *  0.0000     4          
   538  Cl    s      9.7972 *     2.9392 *    -8.8175 *  0.0000     4          
   539  O     s    -11.7566 *     0.9797 *    -6.8580 *  0.0000     4          
   540  O     s    -11.7566 *     4.8986 *     4.8986    0.0000     2          
   541  O     s      0.0000       4.8986 *    12.7363 *  0.0000     2          
   542  O     s      3.9189 *    12.7363 *    -2.9392 *  0.0000     4          
   543  O     s      7.8377 *     8.8175 *    -6.8580 *  0.0000     4          
   544  O     s      7.8377 *    -2.9392 *   -10.7769 *  0.0000     4          
   545  Cl    s    -13.7161 *    -0.9797 *    -0.9797    0.0000     2          
   546  Cl    s      1.9594 *    -4.8986 *   -12.7363 *  0.0000     4          
   547  Cl    s      5.8783 *    -8.8175 *    -8.8175    0.0000     2          
   548  Cl    s      9.7972 *     6.8580 *     6.8580    0.0000     2          
   549  O     s    -11.7566 *    -2.9392 *    -6.8580 *  0.0000     4          
   550  O     s      0.0000       8.8175 *   -10.7769 *  0.0000     2          
   551  Cl    s    -13.7161 *    -0.9797 *     2.9392 *  0.0000     4          
   552  Cl    s      5.8783 *    -0.9797 *   -12.7363 *  0.0000     4          
   553  Cl    s      9.7972 *    -4.8986 *    -8.8175 *  0.0000     4          
   554  Cl    s      1.9594 *    10.7769 *    -8.8175 *  0.0000     4          
   555  Cl    s      5.8783 *    10.7769 *     6.8580 *  0.0000     4          
   556  O     s      3.9189 *     4.8986 *    12.7363 *  0.0000     4          
   557  O     s      7.8377 *     4.8986 *   -10.7769 *  0.0000     4          
   558  Cl    s    -13.7161 *     2.9392 *     2.9392    0.0000     2          
   559  Cl    s      5.8783 *     2.9392 *   -12.7363 *  0.0000     4          
   560  O     s    -11.7566 *     4.8986 *    -6.8580 *  0.0000     4          
   561  O     s      0.0000      12.7363 *    -6.8580 *  0.0000     2          
   562  O     s      3.9189 *   -10.7769 *     8.8175 *  0.0000     4          
   563  Cl    s    -13.7161 *    -0.9797 *    -4.8986 *  0.0000     4          
   564  Cl    s      1.9594 *   -12.7363 *     6.8580 *  0.0000     4          
   565  Cl    s      9.7972 *    -0.9797 *    10.7769 *  0.0000     4          
   566  O     s    -11.7566 *     8.8175 *     0.9797 *  0.0000     4          
   567  O     s      7.8377 *     8.8175 *     8.8175    0.0000     2          
   568  O     s      0.0000       0.9797 *   -14.6958 *  0.0000     2          
   569  Cl    s    -13.7161 *     2.9392 *    -4.8986 *  0.0000     4          
   570  Cl    s      5.8783 *    -4.8986 *   -12.7363 *  0.0000     4          
   571  Cl    s      9.7972 *     6.8580 *    -8.8175 *  0.0000     4          
   572  Cl    s      1.9594 *    -0.9797 *    14.6958 *  0.0000     4          
   573  Cl    s      9.7972 *     2.9392 *    10.7769 *  0.0000     4          
   574  O     s    -11.7566 *     8.8175 *    -2.9392 *  0.0000     4          
   575  O     s      3.9189 *    12.7363 *    -6.8580 *  0.0000     4          
   576  O     s      7.8377 *     0.9797 *    12.7363 *  0.0000     4          
   577  O     s      7.8377 *    -6.8580 *   -10.7769 *  0.0000     4          
   578  O     s      0.0000      -2.9392 *   -14.6958 *  0.0000     2          
   579  Cl    s      1.9594 *     2.9392 *    14.6958 *  0.0000     4          
   580  Cl    s      5.8783 *    10.7769 *    -8.8175 *  0.0000     4          
   581  O     s    -11.7566 *    -6.8580 *    -6.8580    0.0000     2          
   582  O     s      7.8377 *    12.7363 *    -2.9392 *  0.0000     4          
   583  O     s      3.9189 *     0.9797 *   -14.6958 *  0.0000     4          
   584  O     s      0.0000     -10.7769 *   -10.7769    0.0000     1          
   585  Cl    s    -13.7161 *    -0.9797 *     6.8580 *  0.0000     4          
   586  Cl    s    -13.7161 *    -4.8986 *    -4.8986    0.0000     2          
   587  Cl    s      9.7972 *    -4.8986 *    10.7769 *  0.0000     4          
   588  Cl    s      1.9594 *    10.7769 *    10.7769    0.0000     2          
   589  O     s    -11.7566 *     8.8175 *     4.8986 *  0.0000     4          
   590  O     s      0.0000       8.8175 *    12.7363 *  0.0000     2          
   591  O     s      0.0000       4.8986 *   -14.6958 *  0.0000     2          
   592  O     s      3.9189 *    -2.9392 *   -14.6958 *  0.0000     4          
   593  Cl    s    -13.7161 *     2.9392 *     6.8580 *  0.0000     4          
   594  Cl    s      1.9594 *    -8.8175 *   -12.7363 *  0.0000     4          
   595  Cl    s      5.8783 *     6.8580 *   -12.7363 *  0.0000     4          
   596  Cl    s      1.9594 *    14.6958 *    -4.8986 *  0.0000     4          
   597  O     s      7.8377 *     4.8986 *    12.7363 *  0.0000     4          
   598  O     s      3.9189 *   -10.7769 *   -10.7769    0.0000     2          
   599  O     s     15.6755 *     0.9797 *     0.9797    0.0000     2          
   600  Cl    s      9.7972 *    -8.8175 *    -8.8175    0.0000     2          
   601  Cl    s      5.8783 *    -0.9797 *    14.6958 *  0.0000     4          
   602  O     s      3.9189 *     8.8175 *    12.7363 *  0.0000     4          
   603  O     s      7.8377 *   -10.7769 *     8.8175 *  0.0000     4          
   604  O     s    -11.7566 *     0.9797 *   -10.7769 *  0.0000     4          
   605  O     s      3.9189 *     4.8986 *   -14.6958 *  0.0000     4          
   606  O     s     15.6755 *     0.9797 *    -2.9392 *  0.0000     4          
--------------------------------------------------------------------------------


  Constraints on symmetry reduced coordinates :

--------------------------------------------------------------------------------
  Constraint no.      Unconstrained     Constrained    Coefficient    
                         Variable         Variable
--------------------------------------------------------------------------------
           1                 2 y             2 z         1.00000
           2                 3 y             3 z         1.00000
           3                 4 y             4 z         1.00000
           4                10 y            10 z         1.00000
           5                11 y            11 z         1.00000
           6                14 y            14 z         1.00000
           7                15 y            15 z         1.00000
           8                25 y            25 z         1.00000
           9                30 y            30 z         1.00000
          10                32 y            32 z         1.00000
          11                38 y            38 z         1.00000
          12                46 y            46 z         1.00000
          13                47 y            47 z         1.00000
          14                49 y            49 z         1.00000
          15                51 y            51 z         1.00000
          16                59 y            59 z         1.00000
          17                61 y            61 z         1.00000
          18                80 y            80 z         1.00000
          19                87 y            87 z         1.00000
          20                89 y            89 z         1.00000
          21               109 y           109 z         1.00000
          22               111 y           111 z         1.00000
          23               112 y           112 z         1.00000
          24               113 y           113 z         1.00000
          25               114 y           114 z         1.00000
          26               128 y           128 z         1.00000
          27               132 y           132 z         1.00000
          28               135 y           135 z         1.00000
          29               137 y           137 z         1.00000
          30               164 y           164 z         1.00000
          31               166 y           166 z         1.00000
          32               175 y           175 z         1.00000
          33               189 y           189 z         1.00000
          34               190 y           190 z         1.00000
          35               205 y           205 z         1.00000
          36               206 y           206 z         1.00000
          37               210 y           210 z         1.00000
          38               214 y           214 z         1.00000
          39               215 y           215 z         1.00000
          40               238 y           238 z         1.00000
          41               264 y           264 z         1.00000
          42               280 y           280 z         1.00000
          43               281 y           281 z         1.00000
          44               284 y           284 z         1.00000
          45               285 y           285 z         1.00000
          46               286 y           286 z         1.00000
          47               287 y           287 z         1.00000
          48               310 y           310 z         1.00000
          49               311 y           311 z         1.00000
[...]
    526 y          0.000000     -0.001392    -0.001392    Cartesian    0.00
    526 z        -11.756619    -11.764333    -0.007714    Cartesian    0.07
    527 x          3.918873      3.920551     0.001678    Cartesian    0.04
    527 y          7.837746      7.845406     0.007660    Cartesian    0.10
    527 z         11.756619     11.765882     0.009263    Cartesian    0.08
    528 x         11.756619     11.761713     0.005094    Cartesian    0.04
    528 y          7.837746      7.840807     0.003061    Cartesian    0.04
    528 z         -3.918873     -3.919759    -0.000886    Cartesian    0.02
    529 x          5.878309      5.879179     0.000869    Cartesian    0.01
    529 y          9.797182      9.801906     0.004724    Cartesian    0.05
    529 z          9.797182      9.801906     0.004724    Cartesian    0.05
    530 x         -9.797182     -9.797785    -0.000602    Cartesian    0.01
    530 y          5.878309      5.878378     0.000068    Cartesian    0.00
    530 z         -1.959436     -1.958472     0.000964    Cartesian   -0.05
    531 x          1.959436      1.959436     0.000000    Cartesian    0.00
    531 y         13.716055     13.718405     0.002350    Cartesian    0.02
    531 z         -1.959436     -1.959683    -0.000246    Cartesian    0.01
    532 x          3.918873      3.921098     0.002225    Cartesian    0.06
    532 y          3.918873      3.922317     0.003444    Cartesian    0.09
    532 z        -11.756619    -11.764840    -0.008221    Cartesian    0.07
    533 x         11.756619     11.760738     0.004119    Cartesian    0.04
    533 y          0.000000      0.001223     0.001223    Cartesian    0.00
    533 z         -7.837746     -7.839796    -0.002050    Cartesian    0.03
    534 x          7.837746      7.841143     0.003397    Cartesian    0.04
    534 y         11.756619     11.763278     0.006659    Cartesian    0.06
    534 z         -3.918873     -3.920489    -0.001616    Cartesian    0.04
    535 x          5.878309      5.879296     0.000987    Cartesian    0.02
    535 y          1.959436      1.959142    -0.000294    Cartesian   -0.02
    535 z         13.716055     13.718630     0.002575    Cartesian    0.02
    536 x          5.878309      5.878814     0.000505    Cartesian    0.01
    536 y         -9.797182     -9.798579    -0.001397    Cartesian    0.01
    536 z         -5.878310     -5.879718    -0.001408    Cartesian    0.02
    537 x          9.797182      9.796160    -0.001022    Cartesian   -0.01
    537 y          1.959436      1.960057     0.000621    Cartesian    0.03
    537 z         -9.797182     -9.796504     0.000679    Cartesian   -0.01
    538 x         11.756619     11.759944     0.003325    Cartesian    0.03
    538 y          3.918873      3.919218     0.000345    Cartesian    0.01
    538 z         -7.837746     -7.839209    -0.001463    Cartesian    0.02
    539 x         -9.797182     -9.795660     0.001522    Cartesian   -0.02
    539 y          1.959436      1.959826     0.000389    Cartesian    0.02
    539 z         -5.878310     -5.876302     0.002008    Cartesian   -0.03
    540 x         -9.797182     -9.800066    -0.002883    Cartesian    0.03
    540 y          5.878309      5.879395     0.001085    Cartesian    0.02
    540 z          5.878309      5.879395     0.001085    Cartesian    0.02
    541 x          1.959436      1.959436     0.000000    Cartesian    0.00
    541 y          5.878309      5.879185     0.000876    Cartesian    0.01
    541 z         13.716055     13.717475     0.001419    Cartesian    0.01
    542 x          5.878309      5.878555     0.000246    Cartesian    0.00
    542 y         13.716055     13.718224     0.002169    Cartesian    0.02
    542 z         -1.959436     -1.959209     0.000227    Cartesian   -0.01
    543 x          9.797182      9.798856     0.001673    Cartesian    0.02
    543 y          9.797182      9.798977     0.001794    Cartesian    0.02
    543 z         -5.878310     -5.878766    -0.000456    Cartesian    0.01
    544 x          9.797182      9.797282     0.000099    Cartesian    0.00
    544 y         -1.959436     -1.959224     0.000212    Cartesian   -0.01
    544 z         -9.797182     -9.796468     0.000715    Cartesian   -0.01
    545 x        -11.756619    -11.762341    -0.005722    Cartesian    0.05
    545 y          0.000000      0.000438     0.000438    Cartesian    0.00
    545 z          0.000000      0.000438     0.000438    Cartesian    0.00
    546 x          3.918873      3.920423     0.001550    Cartesian    0.04
    546 y         -3.918873     -3.920778    -0.001905    Cartesian    0.05
    546 z        -11.756619    -11.762377    -0.005758    Cartesian    0.05
    547 x          7.837746      7.841633     0.003887    Cartesian    0.05
    547 y         -7.837746     -7.841757    -0.004011    Cartesian    0.05
    547 z         -7.837746     -7.841757    -0.004011    Cartesian    0.05
    548 x         11.756619     11.764618     0.007999    Cartesian    0.07
    548 y          7.837746      7.842105     0.004359    Cartesian    0.06
    548 z          7.837746      7.842105     0.004359    Cartesian    0.06
    549 x         -9.797182     -9.795713     0.001470    Cartesian   -0.01
    549 y         -1.959436     -1.958737     0.000699    Cartesian   -0.04
    549 z         -5.878310     -5.876203     0.002107    Cartesian   -0.04
    550 x          1.959436      1.959436     0.000000    Cartesian    0.00
    550 y          9.797182      9.795581    -0.001602    Cartesian   -0.02
    550 z         -9.797182     -9.796813     0.000369    Cartesian   -0.00
    551 x        -11.756619    -11.761570    -0.004951    Cartesian    0.04
    551 y          0.000000      0.000302     0.000302    Cartesian    0.00
    551 z          3.918873      3.918607    -0.000266    Cartesian   -0.01
    552 x          7.837746      7.839725     0.001979    Cartesian    0.03
    552 y          0.000000     -0.000234    -0.000234    Cartesian    0.00
    552 z        -11.756619    -11.762044    -0.005425    Cartesian    0.05
    553 x         11.756619     11.760368     0.003749    Cartesian    0.03
    553 y         -3.918873     -3.919950    -0.001077    Cartesian    0.03
    553 z         -7.837746     -7.838955    -0.001209    Cartesian    0.02
    554 x          3.918873      3.919720     0.000847    Cartesian    0.02
    554 y         11.756619     11.760533     0.003914    Cartesian    0.03
    554 z         -7.837746     -7.839348    -0.001602    Cartesian    0.02
    555 x          7.837746      7.840967     0.003221    Cartesian    0.04
    555 y         11.756619     11.764749     0.008130    Cartesian    0.07
    555 z          7.837746      7.842678     0.004932    Cartesian    0.06
    556 x          5.878309      5.879056     0.000746    Cartesian    0.01
    556 y          5.878309      5.879504     0.001194    Cartesian    0.02
    556 z         13.716055     13.718092     0.002036    Cartesian    0.01
    557 x          9.797182      9.797069    -0.000113    Cartesian   -0.00
    557 y          5.878309      5.878802     0.000493    Cartesian    0.01
    557 z         -9.797182     -9.796600     0.000583    Cartesian   -0.01
    558 x        -11.756619    -11.761350    -0.004731    Cartesian    0.04
    558 y          3.918873      3.919530     0.000657    Cartesian    0.02
    558 z          3.918873      3.919530     0.000657    Cartesian    0.02
    559 x          7.837746      7.839428     0.001682    Cartesian    0.02
    559 y          3.918873      3.920553     0.001680    Cartesian    0.04
    559 z        -11.756619    -11.762343    -0.005724    Cartesian    0.05
    560 x         -9.797182     -9.797220    -0.000037    Cartesian    0.00
    560 y          5.878309      5.877971    -0.000338    Cartesian   -0.01
    560 z         -5.878310     -5.877735     0.000574    Cartesian   -0.01
    561 x          1.959436      1.959436     0.000000    Cartesian    0.00
    561 y         13.716055     13.717271     0.001215    Cartesian    0.01
    561 z         -5.878310     -5.878400    -0.000091    Cartesian    0.00
    562 x          5.878309      5.878801     0.000492    Cartesian    0.01
    562 y         -9.797182     -9.796849     0.000334    Cartesian   -0.00
    562 z          9.797182      9.797397     0.000214    Cartesian    0.00
    563 x        -11.756619    -11.761419    -0.004800    Cartesian    0.04
    563 y          0.000000      0.000551     0.000551    Cartesian    0.00
    563 z         -3.918873     -3.918712     0.000161    Cartesian   -0.00
    564 x          3.918873      3.920553     0.001680    Cartesian    0.04
    564 y        -11.756619    -11.762825    -0.006206    Cartesian    0.05
    564 z          7.837746      7.840007     0.002261    Cartesian    0.03
    565 x         11.756619     11.761867     0.005248    Cartesian    0.04
    565 y          0.000000      0.000319     0.000319    Cartesian    0.00
    565 z         11.756619     11.762073     0.005454    Cartesian    0.05
    566 x         -9.797182     -9.799324    -0.002142    Cartesian    0.02
    566 y          9.797182      9.798664     0.001481    Cartesian    0.02
    566 z          1.959436      1.959744     0.000308    Cartesian    0.02
    567 x          9.797182      9.799415     0.002232    Cartesian    0.02
    567 y          9.797182      9.799668     0.002486    Cartesian    0.03
    567 z          9.797182      9.799668     0.002486    Cartesian    0.03
    568 x          1.959436      1.959436     0.000000    Cartesian    0.00
    568 y          1.959436      1.959989     0.000553    Cartesian    0.03
    568 z        -13.716055    -13.718399    -0.002343    Cartesian    0.02
    569 x        -11.756619    -11.762559    -0.005940    Cartesian    0.05
    569 y          3.918873      3.919470     0.000597    Cartesian    0.02
    569 z         -3.918873     -3.919546    -0.000673    Cartesian    0.02
    570 x          7.837746      7.840581     0.002835    Cartesian    0.04
    570 y         -3.918873     -3.921149    -0.002276    Cartesian    0.06
    570 z        -11.756619    -11.762130    -0.005511    Cartesian    0.05
    571 x         11.756619     11.760506     0.003887    Cartesian    0.03
    571 y          7.837746      7.839906     0.002160    Cartesian    0.03
    571 z         -7.837746     -7.840464    -0.002718    Cartesian    0.03
    572 x          3.918873      3.919845     0.000972    Cartesian    0.02
    572 y          0.000000      0.000014     0.000014    Cartesian    0.00
    572 z         15.675492     15.682095     0.006603    Cartesian    0.04
    573 x         11.756619     11.762359     0.005740    Cartesian    0.05
    573 y          3.918873      3.921016     0.002143    Cartesian    0.05
    573 z         11.756619     11.762905     0.006286    Cartesian    0.05
    574 x         -9.797182     -9.799426    -0.002243    Cartesian    0.02
    574 y          9.797182      9.798641     0.001459    Cartesian    0.01
    574 z         -1.959436     -1.959727    -0.000290    Cartesian    0.01
    575 x          5.878309      5.878188    -0.000121    Cartesian   -0.00
    575 y         13.716055     13.717049     0.000994    Cartesian    0.01
    575 z         -5.878310     -5.878404    -0.000094    Cartesian    0.00
    576 x          9.797182      9.799334     0.002152    Cartesian    0.02
    576 y          1.959436      1.959634     0.000197    Cartesian    0.01
    576 z         13.716055     13.719423     0.003368    Cartesian    0.02
    577 x          9.797182      9.799586     0.002404    Cartesian    0.02
    577 y         -5.878310     -5.879603    -0.001294    Cartesian    0.02
    577 z         -9.797182     -9.798602    -0.001419    Cartesian    0.01
    578 x          1.959436      1.959436     0.000000    Cartesian    0.00
    578 y         -1.959436     -1.959937    -0.000501    Cartesian    0.03
    578 z        -13.716055    -13.717891    -0.001836    Cartesian    0.01
    579 x          3.918873      3.919914     0.001041    Cartesian    0.03
    579 y          3.918873      3.920830     0.001957    Cartesian    0.05
    579 z         15.675492     15.682651     0.007159    Cartesian    0.05
    580 x          7.837746      7.840042     0.002296    Cartesian    0.03
    580 y         11.756619     11.761081     0.004462    Cartesian    0.04
    580 z         -7.837746     -7.840926    -0.003180    Cartesian    0.04
    581 x         -9.797182     -9.799459    -0.002277    Cartesian    0.02
    581 y         -5.878310     -5.879460    -0.001151    Cartesian    0.02
    581 z         -5.878310     -5.879460    -0.001151    Cartesian    0.02
    582 x          9.797182      9.798730     0.001547    Cartesian    0.02
    582 y         13.716055     13.718701     0.002646    Cartesian    0.02
    582 z         -1.959436     -1.959664    -0.000228    Cartesian    0.01
    583 x          5.878309      5.878941     0.000632    Cartesian    0.01
    583 y          1.959436      1.959746     0.000309    Cartesian    0.02
    583 z        -13.716055    -13.717858    -0.001802    Cartesian    0.01
    584 x          1.959436      1.959436     0.000000    Cartesian    0.00
    584 y         -9.797182     -9.799149    -0.001967    Cartesian    0.02
    584 z         -9.797182     -9.799149    -0.001967    Cartesian    0.02
    585 x        -11.756619    -11.763967    -0.007348    Cartesian    0.06
    585 y          0.000000     -0.000253    -0.000253    Cartesian    0.00
    585 z          7.837746      7.840898     0.003152    Cartesian    0.04
    586 x        -11.756619    -11.762520    -0.005901    Cartesian    0.05
    586 y         -3.918873     -3.920090    -0.001217    Cartesian    0.03
    586 z         -3.918873     -3.920090    -0.001217    Cartesian    0.03
    587 x         11.756619     11.762013     0.005394    Cartesian    0.05
    587 y         -3.918873     -3.920922    -0.002049    Cartesian    0.05
    587 z         11.756619     11.762263     0.005644    Cartesian    0.05
    588 x          3.918873      3.920662     0.001789    Cartesian    0.05
    588 y         11.756619     11.762532     0.005913    Cartesian    0.05
    588 z         11.756619     11.762532     0.005913    Cartesian    0.05
    589 x         -9.797182     -9.801282    -0.004099    Cartesian    0.04
    589 y          9.797182      9.800391     0.003208    Cartesian    0.03
    589 z          5.878309      5.880349     0.002040    Cartesian    0.03
    590 x          1.959436      1.959436     0.000000    Cartesian    0.00
    590 y          9.797182      9.799752     0.002569    Cartesian    0.03
    590 z         13.716055     13.719584     0.003529    Cartesian    0.03
    591 x          1.959436      1.959436     0.000000    Cartesian    0.00
    591 y          5.878309      5.879825     0.001516    Cartesian    0.03
    591 z        -13.716055    -13.719127    -0.003072    Cartesian    0.02
    592 x          5.878309      5.879596     0.001286    Cartesian    0.02
    592 y         -1.959436     -1.959842    -0.000405    Cartesian    0.02
    592 z        -13.716055    -13.718621    -0.002566    Cartesian    0.02
    593 x        -11.756619    -11.764216    -0.007597    Cartesian    0.06
    593 y          3.918873      3.920692     0.001819    Cartesian    0.05
    593 z          7.837746      7.841516     0.003770    Cartesian    0.05
    594 x          3.918873      3.920256     0.001383    Cartesian    0.04
    594 y         -7.837746     -7.842725    -0.004979    Cartesian    0.06
    594 z        -11.756619    -11.763661    -0.007042    Cartesian    0.06
    595 x          7.837746      7.841099     0.003353    Cartesian    0.04
    595 y          7.837746      7.841265     0.003519    Cartesian    0.04
    595 z        -11.756619    -11.762743    -0.006124    Cartesian    0.05
    596 x          3.918873      3.919928     0.001055    Cartesian    0.03
    596 y         15.675492     15.683911     0.008419    Cartesian    0.05
    596 z         -3.918873     -3.920964    -0.002091    Cartesian    0.05
    597 x          9.797182      9.800431     0.003248    Cartesian    0.03
    597 y          5.878309      5.880562     0.002253    Cartesian    0.04
    597 z         13.716055     13.720476     0.004421    Cartesian    0.03
    598 x          5.878309      5.880083     0.001774    Cartesian    0.03
    598 y         -9.797182     -9.800116    -0.002934    Cartesian    0.03
    598 z         -9.797182     -9.800116    -0.002934    Cartesian    0.03
    599 x         17.634928     17.636087     0.001158    Cartesian    0.01
    599 y          1.959436      1.959381    -0.000055    Cartesian   -0.00
    599 z          1.959436      1.959381    -0.000055    Cartesian   -0.00
    600 x         11.756619     11.763040     0.006421    Cartesian    0.05
    600 y         -7.837746     -7.841996    -0.004250    Cartesian    0.05
    600 z         -7.837746     -7.841996    -0.004250    Cartesian    0.05
    601 x          7.837746      7.841166     0.003420    Cartesian    0.04
    601 y          0.000000     -0.000099    -0.000099    Cartesian    0.00
    601 z         15.675492     15.684440     0.008948    Cartesian    0.06
    602 x          5.878309      5.880033     0.001723    Cartesian    0.03
    602 y          9.797182      9.800718     0.003535    Cartesian    0.04
    602 z         13.716055     13.720523     0.004467    Cartesian    0.03
    603 x          9.797182      9.800417     0.003234    Cartesian    0.03
    603 y         -9.797182     -9.800365    -0.003182    Cartesian    0.03
    603 z          9.797182      9.800397     0.003215    Cartesian    0.03
    604 x         -9.797182     -9.799957    -0.002774    Cartesian    0.03
    604 y          1.959436      1.960660     0.001224    Cartesian    0.06
    604 z         -9.797182     -9.799388    -0.002206    Cartesian    0.02
    605 x          5.878309      5.880022     0.001712    Cartesian    0.03
    605 y          5.878309      5.880211     0.001902    Cartesian    0.03
    605 z        -13.716055    -13.720057    -0.004002    Cartesian    0.03
    606 x         17.634928     17.638279     0.003350    Cartesian    0.02
    606 y          1.959436      1.960378     0.000942    Cartesian    0.05
    606 z         -1.959436     -1.960362    -0.000925    Cartesian    0.05
--------------------------------------------------------------------------------


  Time to end of optimisation  =      162.1100 seconds


  Peak dynamic memory used =     908.86 MB 


  Timing analysis for GULP :

--------------------------------------------------------------------------------
  Task / Subroutine                                          Time (Seconds)
--------------------------------------------------------------------------------
  Calculation of reciprocal space energy and derivatives          0.0003
  Calculation of reciprocal space energy using symmetry           0.0003
  Calculation of real space energy and derivatives                0.0027
  Calculation of real space energy using symmetry                 0.0019
  Calculation for region 1 energy and derivatives (2-b)          72.8916
  Calculation for region 2a energy                               34.2074
  Calculation for region 2b energy                                0.0054
  Calculation and manipulation of Hessian matrix                 49.7820
  Calculation of matrix inversion                                 4.4439
  Symmetry generation of equivalent positions                     0.0025
--------------------------------------------------------------------------------
  Total CPU time                                                162.1101
--------------------------------------------------------------------------------


  Dump file written as Li3OCl.grs


  Job Finished at 12:32.40  1st December   2020                               

