********************************************************************************
*                       GENERAL UTILITY LATTICE PROGRAM                        *
*                                 Julian Gale                                  *
*                       Curtin Institute for Computation                       *
*                    School of Molecular and Life Sciences                     *
*                    Curtin University, Western Australia                      *
********************************************************************************
* Version = 5.2.0 * Last modified =  10th September 2020                       *
********************************************************************************
*  optimise     - perform optimisation run                                     *
*  conp         - constant pressure calculation                                *
*  property     - calculate properties for final geometry                      *
*  defect       - perform defect calculation after bulk run                    *
*  compare      - compare initial and final structures                         *
********************************************************************************

  Job Started  at 12:29.04  1st December   2020                               

  Number of CPUs =     1


  Total number of configurations input =      1

********************************************************************************
*  Input for Configuration =   1                                               *
********************************************************************************

  Formula = ClOLi3                                                      

  Number of irreducible atoms/shells =       5


  Total number atoms/shells =       7

  Dimensionality = 3               :  Bulk   


  Symmetry :

  Crystal family                   :  Cubic       
  Crystal class  (Groth - 1921)    :  Cubic Hexakisoctahedral              

  Space group (centrosymmetric)    :  P M 3 M         

  Patterson group                  :  P m -3 m 

  Cartesian lattice vectors (Angstroms) :

        3.918873    0.000000    0.000000
        0.000000    3.918873    0.000000
        0.000000    0.000000    3.918873

  Cell parameters (Angstroms/Degrees):

  a =       3.9189    alpha =  90.0000
  b =       3.9189    beta  =  90.0000
  c =       3.9189    gamma =  90.0000

  Initial cell volume =          60.184349 Angs**3

  Temperature of configuration =   0.00     K 

  Pressure of configuration =         0.000 GPa 

  Fractional coordinates of asymmetric unit :

--------------------------------------------------------------------------------
   No.  Atomic       x           y          z         Charge      Occupancy
        Label      (Frac)      (Frac)     (Frac)        (e)         (Frac)  
--------------------------------------------------------------------------------
      1 Cl    c    0.000000    0.000000    0.000000     1.48500    1.000000    
      2 O     c    0.500000    0.500000    0.500000     0.18300    1.000000    
      3 Li    c    0.500000    0.500000    0.000000     1.00000    1.000000    
      4 Cl    s    0.000000    0.000000    0.000000    -2.48500    1.000000    
      5 O     s    0.500000    0.500000    0.500000    -2.18300    1.000000    
--------------------------------------------------------------------------------


  Constraints : 

--------------------------------------------------------------------------------
  Constraint no.      Unconstrained     Constrained    Coefficient    Offset
                         Variable         Variable
--------------------------------------------------------------------------------
           1              Strain 1        Strain 2       1.00000      0.0000
           2              Strain 1        Strain 3       1.00000      0.0000
--------------------------------------------------------------------------------


********************************************************************************
*  General input information                                                   *
********************************************************************************

  Species output for all configurations : 

--------------------------------------------------------------------------------
  Species    Type    Atomic    Atomic    Charge       Radii (Angs)     Library
                     Number     Mass       (e)     Cova   Ionic  VDW   Symbol
--------------------------------------------------------------------------------
    Li       Core        3       6.94   1.000000   0.680  0.000  1.800          
    O        Core        8      16.00   0.183000   0.730  0.000  1.360          
    O        Shell       8       0.00  -2.183000   0.730  0.000  1.360          
    Cl       Core       17      35.45   1.485000   0.990  0.000  1.650          
    Cl       Shell      17       0.00  -2.485000   0.990  0.000  1.650          
    Mg       Core       12      24.31   0.415000   1.100  0.000  0.000          
    Mg       Shell      12       0.00   1.585000   1.100  0.000  0.000          
    Ca       Core       20      40.08  -1.135000   0.990  0.000  0.000          
    Ca       Shell      20       0.00   3.135000   0.990  0.000  0.000          
    Sr       Core       38      87.62  -1.251000   1.120  0.000  0.000          
    Sr       Shell      38       0.00   3.251000   1.120  0.000  0.000          
    Ba       Core       56     137.33  -7.203000   1.340  0.000  0.000          
    Ba       Shell      56       0.00   9.203000   1.340  0.000  0.000          
--------------------------------------------------------------------------------


  Lattice summation method               =    Ewald          (3-D)
                                         =    Parry          (2-D)
                                         =    Saunders et al (1-D)
  Accuracy factor for lattice sums       =   12.000


  Analytic derivatives to be used

  Time limit = Infinity

  Maximum range for interatomic potentials =    100000.000000 Angstroms

  General interatomic potentials :

--------------------------------------------------------------------------------
Atom  Types   Potential      Parameter       Value         Units   Cutoffs(Ang)
  1     2                                                            Min /  Max 
--------------------------------------------------------------------------------
O    c O    s Spring (c-s)  Spring k 2       593.71600    eV*Ang^-2 0.000  0.800
                            Spring k 4       0.0000000    eV*Ang^-4 
--------------------------------------------------------------------------------
Cl   c Cl   s Spring (c-s)  Spring k 2       29.380000    eV*Ang^-2 0.000  0.800
                            Spring k 4       0.0000000    eV*Ang^-4 
--------------------------------------------------------------------------------
Mg   c Mg   s Spring (c-s)  Spring k 2       361.60000    eV*Ang^-2 0.000  0.800
                            Spring k 4       0.0000000    eV*Ang^-4 
--------------------------------------------------------------------------------
Ca   c Ca   s Spring (c-s)  Spring k 2       110.20000    eV*Ang^-2 0.000  0.800
                            Spring k 4       0.0000000    eV*Ang^-4 
--------------------------------------------------------------------------------
Sr   c Sr   s Spring (c-s)  Spring k 2       71.700000    eV*Ang^-2 0.000  0.800
                            Spring k 4       0.0000000    eV*Ang^-4 
--------------------------------------------------------------------------------
Ba   c Ba   s Spring (c-s)  Spring k 2       495.20000    eV*Ang^-2 0.000  0.800
                            Spring k 4       0.0000000    eV*Ang^-4 
--------------------------------------------------------------------------------
Li   c Li   c Buckingham    Buckingham A     360.53000    eV        0.000 12.000
                            Buckingham rho  0.16100000    Ang       
                            Buckingham C     0.0000000    eV*Ang^6  
--------------------------------------------------------------------------------
Li   c O    s Buckingham    Buckingham A     292.30000    eV        0.000 12.000
                            Buckingham rho  0.34700000    Ang       
                            Buckingham C     0.0000000    eV*Ang^6  
--------------------------------------------------------------------------------
Li   c Cl   s Buckingham    Buckingham A     421.04000    eV        0.000 12.000
                            Buckingham rho  0.33400000    Ang       
                            Buckingham C     0.0000000    eV*Ang^6  
--------------------------------------------------------------------------------
O    s O    s Buckingham    Buckingham A     22764.300    eV        0.000 12.000
                            Buckingham rho  0.14900000    Ang       
                            Buckingham C     13.190000    eV*Ang^6  
--------------------------------------------------------------------------------
O    s Cl   s Buckingham    Buckingham A     8286.9100    eV        0.000 12.000
                            Buckingham rho  0.25900000    Ang       
                            Buckingham C     62.200000    eV*Ang^6  
--------------------------------------------------------------------------------
Cl   s Cl   s Buckingham    Buckingham A     1227.2000    eV        0.000 12.000
                            Buckingham rho  0.32100000    Ang       
                            Buckingham C     14.530000    eV*Ang^6  
--------------------------------------------------------------------------------
O    s Mg   s Buckingham    Buckingham A     1428.5000    eV        0.000 12.000
                            Buckingham rho  0.29450000    Ang       
                            Buckingham C     0.0000000    eV*Ang^6  
--------------------------------------------------------------------------------
Mg   s Cl   s Buckingham    Buckingham A     4914.5400    eV        0.000 12.000
                            Buckingham rho  0.25700000    Ang       
                            Buckingham C     0.0000000    eV*Ang^6  
--------------------------------------------------------------------------------
O    s Ca   s Buckingham    Buckingham A     1090.4000    eV        0.000 12.000
                            Buckingham rho  0.34370000    Ang       
                            Buckingham C     0.0000000    eV*Ang^6  
--------------------------------------------------------------------------------
Cl   s Ca   s Buckingham    Buckingham A     2302.0000    eV        0.000 12.000
                            Buckingham rho  0.34020000    Ang       
                            Buckingham C     0.0000000    eV*Ang^6  
--------------------------------------------------------------------------------
O    s Sr   s Buckingham    Buckingham A     959.10000    eV        0.000 12.000
                            Buckingham rho  0.37210000    Ang       
                            Buckingham C     0.0000000    eV*Ang^6  
--------------------------------------------------------------------------------
Cl   s Sr   s Buckingham    Buckingham A     2191.0900    eV        0.000 12.000
                            Buckingham rho  0.34570000    Ang       
                            Buckingham C     0.0000000    eV*Ang^6  
--------------------------------------------------------------------------------
O    s Ba   s Buckingham    Buckingham A     905.70000    eV        0.000 12.000
                            Buckingham rho  0.39760000    Ang       
                            Buckingham C     0.0000000    eV*Ang^6  
--------------------------------------------------------------------------------
Cl   s Ba   s Buckingham    Buckingham A     2704.5500    eV        0.000 12.000
                            Buckingham rho  0.35280000    Ang       
                            Buckingham C     0.0000000    eV*Ang^6  
--------------------------------------------------------------------------------

********************************************************************************
*  Output for configuration   1                                                *
********************************************************************************


  Components of energy : 

--------------------------------------------------------------------------------
  Interatomic potentials     =           7.24802695 eV    
  Monopole - monopole (real) =         -11.53475722 eV    
  Monopole - monopole (recip)=         -33.94580548 eV    
  Monopole - monopole (total)=         -45.48056271 eV    
--------------------------------------------------------------------------------
  Total lattice energy       =         -38.23253575 eV    
--------------------------------------------------------------------------------
  Total lattice energy       =           -3688.8553 kJ/(mole unit cells)
--------------------------------------------------------------------------------


  Number of variables =        1

  Maximum number of calculations  =          1000
  Maximum Hessian update interval =            10
  Maximum step size               =   1.000000000
  Maximum parameter tolerance     =   0.000010000
  Maximum function  tolerance     =   0.000010000
  Maximum gradient  tolerance     =   0.001000000
  Maximum gradient  component     =   0.010000000

  Symmetry constrained optimisation

  Symmetry used for second derivatives

  Cell parameters to be optimised using strains

  Newton-Raphson optimiser to be used

  BFGS hessian update to be used

  Lower half triangular hessian to be used

  Start of bulk optimisation :

  Cycle:      0 Energy:       -38.232536  Gnorm:      0.000019  CPU:    0.022


  **** Optimisation achieved ****


  Final energy =     -38.23253575 eV
  Final Gnorm  =       0.00001878

  Components of energy : 

--------------------------------------------------------------------------------
  Interatomic potentials     =           7.24802695 eV    
  Monopole - monopole (real) =         -11.53475722 eV    
  Monopole - monopole (recip)=         -33.94580548 eV    
  Monopole - monopole (total)=         -45.48056271 eV    
--------------------------------------------------------------------------------
  Total lattice energy       =         -38.23253575 eV    
--------------------------------------------------------------------------------
  Total lattice energy       =           -3688.8553 kJ/(mole unit cells)
--------------------------------------------------------------------------------

  Final asymmetric unit coordinates :

--------------------------------------------------------------------------------
   No.  Atomic        x           y           z         Radius
        Label       (Frac)      (Frac)      (Frac)       (Angs) 
--------------------------------------------------------------------------------
     1  Cl    c     0.000000    0.000000    0.000000    0.000000
     2  O     c     0.500000    0.500000    0.500000    0.000000
     3  Li    c     0.500000    0.500000    0.000000    0.000000
     4  Cl    s     0.000000    0.000000    0.000000    0.000000
     5  O     s     0.500000    0.500000    0.500000    0.000000
--------------------------------------------------------------------------------

  Final Cartesian lattice vectors (Angstroms) :

        3.918873    0.000000    0.000000
        0.000000    3.918873    0.000000
        0.000000    0.000000    3.918873


  Final cell parameters and derivatives :

--------------------------------------------------------------------------------
       a            3.918873 Angstrom     dE/de1(xx)    -0.000019 eV/strain
       b            3.918873 Angstrom     dE/de2(yy)     0.000000 eV/strain
       c            3.918873 Angstrom     dE/de3(zz)     0.000000 eV/strain
       alpha       90.000000 Degrees      dE/de4(yz)     0.000000 eV/strain
       beta        90.000000 Degrees      dE/de5(xz)     0.000000 eV/strain
       gamma       90.000000 Degrees      dE/de6(xy)     0.000000 eV/strain
--------------------------------------------------------------------------------

  Primitive cell volume =            60.184349 Angs**3

  Density of cell =      1.994024 g/cm**3

  Non-primitive cell volume =            60.184349 Angs**3


  Final internal derivatives :

--------------------------------------------------------------------------------
   No.  Atomic          a             b             c           Radius
        Label          (eV)          (eV)          (eV)        (eV/Angs)
--------------------------------------------------------------------------------
      1 Cl    c       0.000000      0.000000      0.000000      0.000000
      2 O     c       0.000000      0.000000      0.000000      0.000000
      3 Li    c       0.000000      0.000000      0.000000      0.000000
      4 Cl    s       0.000000      0.000000      0.000000      0.000000
      5 O     s       0.000000      0.000000      0.000000      0.000000
--------------------------------------------------------------------------------
  Maximum abs         0.000000      0.000000      0.000000      0.000000
--------------------------------------------------------------------------------

  Comparison of initial and final structures : 

--------------------------------------------------------------------------------
  Parameter   Initial value   Final value   Difference    Units      Percent
--------------------------------------------------------------------------------
    Volume        60.184349     60.184349     0.000000    Angs**3      0.00
    a              3.918873      3.918873     0.000000    Angstroms    0.00
    b              3.918873      3.918873     0.000000    Angstroms    0.00
    c              3.918873      3.918873     0.000000    Angstroms    0.00
    alpha         90.000000     90.000000     0.000000    Degrees      0.00
    beta          90.000000     90.000000     0.000000    Degrees      0.00
    gamma         90.000000     90.000000     0.000000    Degrees      0.00
      1 x          0.000000      0.000000     0.000000    Fractional   0.00
      1 y          0.000000      0.000000     0.000000    Fractional   0.00
      1 z          0.000000      0.000000     0.000000    Fractional   0.00
      2 x          0.500000      0.500000     0.000000    Fractional   0.00
      2 y          0.500000      0.500000     0.000000    Fractional   0.00
      2 z          0.500000      0.500000     0.000000    Fractional   0.00
      3 x          0.500000      0.500000     0.000000    Fractional   0.00
      3 y          0.500000      0.500000     0.000000    Fractional   0.00
      3 z          0.000000      0.000000     0.000000    Fractional   0.00
      4 x          0.000000      0.000000     0.000000    Fractional   0.00
      4 y          0.000000      0.000000     0.000000    Fractional   0.00
      4 z          0.000000      0.000000     0.000000    Fractional   0.00
      5 x          0.500000      0.500000     0.000000    Fractional   0.00
      5 y          0.500000      0.500000     0.000000    Fractional   0.00
      5 z          0.500000      0.500000     0.000000    Fractional   0.00
--------------------------------------------------------------------------------


  Born effective charge tensors : 

-------------------------------------------------------------------------------
  Atom             x           y             z
-------------------------------------------------------------------------------
    1 Cl    x      -0.9481      0.0000      0.0000
            y       0.0000     -0.9481      0.0000
            z       0.0000      0.0000     -0.9481
-------------------------------------------------------------------------------
    2 O     x      -2.4696     -0.0000     -0.0000
            y      -0.0000     -2.4696     -0.0000
            z      -0.0000     -0.0000     -2.4696
-------------------------------------------------------------------------------
    3 Li    x       1.3129     -0.0000     -0.0000
            y      -0.0000      1.3129      0.0000
            z      -0.0000     -0.0000      0.7918
-------------------------------------------------------------------------------




  Elastic Constant Matrix: (Units=GPa)

-------------------------------------------------------------------------------
  Indices      1         2         3         4         5         6    
-------------------------------------------------------------------------------
       1     94.4615   45.0779   45.0779    0.0000   -0.0000    0.0000
       2     45.0779   94.4615   45.0779   -0.0000    0.0000   -0.0000
       3     45.0779   45.0779   94.4615   -0.0000   -0.0000   -0.0000
       4      0.0000   -0.0000   -0.0000   45.0779   -0.0000   -0.0000
       5     -0.0000    0.0000   -0.0000   -0.0000   45.0779   -0.0000
       6      0.0000   -0.0000   -0.0000   -0.0000   -0.0000   45.0779
-------------------------------------------------------------------------------


  Elastic Compliance Matrix: (Units=1/GPa)

-------------------------------------------------------------------------------
  Indices      1         2         3         4         5         6    
-------------------------------------------------------------------------------
       1    0.015305 -0.004944 -0.004944 -0.000000  0.000000 -0.000000
       2   -0.004944  0.015305 -0.004944  0.000000 -0.000000  0.000000
       3   -0.004944 -0.004944  0.015305  0.000000  0.000000  0.000000
       4   -0.000000  0.000000  0.000000  0.022184  0.000000  0.000000
       5    0.000000 -0.000000  0.000000  0.000000  0.022184  0.000000
       6   -0.000000  0.000000  0.000000  0.000000  0.000000  0.022184
-------------------------------------------------------------------------------

  Mechanical properties :

-------------------------------------------------------------------------------
  Convention :                    Reuss         Voigt         Hill
-------------------------------------------------------------------------------
  Bulk  Modulus (GPa)     =      61.53912      61.53912      61.53912
  Shear Modulus (GPa)     =      33.88682      36.92346      35.40514
-------------------------------------------------------------------------------
  Velocity S-wave (km/s)  =       4.12240       4.30314       4.21374
  Velocity P-wave (km/s)  =       7.31578       7.45327       7.38484
-------------------------------------------------------------------------------
  Compressibility (1/GPa) =    0.01624983
-------------------------------------------------------------------------------
  Stress axis :                     x             y             z
-------------------------------------------------------------------------------
  Youngs Moduli (GPa)     =      65.33688      65.33688      65.33688
-------------------------------------------------------------------------------
  Poissons Ratio (x)      =                     0.32305       0.32305
  Poissons Ratio (y)      =       0.32305                     0.32305
  Poissons Ratio (z)      =       0.32305       0.32305
-------------------------------------------------------------------------------


  Piezoelectric Strain Matrix: (Units=C/m**2)

-------------------------------------------------------------------------------
  Indices      1         2         3         4         5         6    
-------------------------------------------------------------------------------
       x    -0.00000   0.00000   0.00000   0.00000   0.00000   0.00000
       y    -0.00000  -0.00000  -0.00000   0.00000   0.00000  -0.00000
       z    -0.00000  -0.00000   0.00000   0.00000  -0.00000   0.00000
-------------------------------------------------------------------------------


  Piezoelectric Stress Matrix: (Units=10**-11 C/N)

-------------------------------------------------------------------------------
  Indices      1         2         3         4         5         6    
-------------------------------------------------------------------------------
       x    -0.00000   0.00000   0.00000   0.00000   0.00000   0.00000
       y     0.00000   0.00000  -0.00000   0.00000   0.00000  -0.00000
       z    -0.00000  -0.00000   0.00000   0.00000  -0.00000   0.00000
-------------------------------------------------------------------------------


  Static dielectric constant tensor : 

-------------------------------------------------------------------------------
              x         y         z
-------------------------------------------------------------------------------
       x    12.07041   0.00000   0.00000
       y     0.00000  12.07041   0.00000
       z     0.00000   0.00000  12.07041
--------------------------------------------------------------------------------

  High frequency dielectric constant tensor : 

-------------------------------------------------------------------------------
              x         y         z
-------------------------------------------------------------------------------
       x     1.74197  -0.00000  -0.00000
       y    -0.00000   1.74197  -0.00000
       z    -0.00000  -0.00000   1.74197
-------------------------------------------------------------------------------

  Static refractive indices : 

-------------------------------------------------------------------------------
    1 =    3.47425      2 =    3.47425      3 =    3.47425
-------------------------------------------------------------------------------

  High frequency refractive indices : 

-------------------------------------------------------------------------------
    1 =    1.31984      2 =    1.31984      3 =    1.31984
-------------------------------------------------------------------------------


  Time to end of optimisation =       0.0282 seconds

********************************************************************************
*  Defect calculation for configuration   1 :                                  *
********************************************************************************

  Total number of defects =      1

  Total charge on defect  =   1.00

  Defect centre is at   0.0000   0.0000   0.0000  Frac

  Region 1 radius =  16.0000      Number of ions =   1972

  Number of symmetry inequivalent region 1 ions  =     80

  Region 2 radius =  20.0000      Number of ions =   1960

  Number of symmetry inequivalent region 2a ions =     64

  Region 2a mode = 4 : screened electrostatics due to region 1 
                       neglect correction to region 1 forces from 2a
                       region 2a displacements based on defects only

  Region 2a ions will only interact with defects in region 1

  Vacancies:

--------------------------------------------------------------------------------
    Specification type     Symbol/Number         x          y          z
--------------------------------------------------------------------------------
    Fractional                               0.000000   0.000000   0.000000
--------------------------------------------------------------------------------


  Symmetry reduced region 1 (Relative to defect centre) :

--------------------------------------------------------------------------------
   No.   Atomic       x            y             z       Radius  Multiplicity   
         Label      (Angs)       (Angs)        (Angs)    (Angs)     
--------------------------------------------------------------------------------
     1  Li    c     -1.9594 *    -1.9594       0.0000    0.0000    12          
     2  O     c     -1.9594 *    -1.9594      -1.9594    0.0000     8          
     3  Cl    c      0.0000       0.0000       3.9189 *  0.0000     6          
     4  Li    c     -1.9594 *    -1.9594       3.9189 *  0.0000    24          
     5  Cl    c      0.0000       3.9189 *     3.9189    0.0000    12          
     6  Li    c     -1.9594 *     5.8783 *     0.0000    0.0000    24          
     7  O     c     -1.9594 *     5.8783 *    -1.9594    0.0000    24          
     8  Cl    c      3.9189 *     3.9189       3.9189    0.0000     8          
     9  Li    c     -1.9594 *     5.8783 *     3.9189 *  0.0000    48          
    10  Cl    c      0.0000       0.0000       7.8377 *  0.0000     6          
    11  Li    c     -1.9594 *    -1.9594       7.8377 *  0.0000    24          
    12  Li    c      5.8783 *     5.8783       0.0000    0.0000    12          
    13  O     c     -1.9594 *     5.8783 *     5.8783    0.0000    24          
    14  Cl    c      0.0000       3.9189 *     7.8377 *  0.0000    24          
    15  Li    c      5.8783 *     5.8783       3.9189 *  0.0000    24          
    16  Cl    c      3.9189 *     3.9189       7.8377 *  0.0000    24          
    17  Li    c     -1.9594 *     5.8783 *     7.8377 *  0.0000    48          
    18  Li    c     -1.9594 *     9.7972 *     0.0000    0.0000    24          
    19  O     c     -1.9594 *    -1.9594       9.7972 *  0.0000    24          
    20  O     c      5.8783 *     5.8783       5.8783    0.0000     8          
    21  Li    c      3.9189 *    -1.9594 *     9.7972 *  0.0000    48          
    22  Cl    c      0.0000       7.8377 *     7.8377    0.0000    12          
    23  Li    c      5.8783 *     5.8783       7.8377 *  0.0000    24          
    24  Li    c      5.8783 *     9.7972 *     0.0000    0.0000    24          
    25  O     c     -1.9594 *     5.8783 *     9.7972 *  0.0000    48          
    26  Cl    c      0.0000       0.0000      11.7566 *  0.0000     6          
    27  Cl    c      3.9189 *     7.8377 *     7.8377    0.0000    24          
    28  Li    c      5.8783 *     9.7972 *     3.9189 *  0.0000    48          
    29  Li    c     11.7566 *    -1.9594 *    -1.9594    0.0000    24          
    30  Cl    c      0.0000       3.9189 *    11.7566 *  0.0000    24          
    31  Li    c      7.8377 *    -1.9594 *     9.7972 *  0.0000    48          
    32  O     c      5.8783 *     5.8783       9.7972 *  0.0000    24          
    33  Cl    c      3.9189 *    11.7566 *     3.9189    0.0000    24          
    34  Li    c     -1.9594 *     5.8783 *    11.7566 *  0.0000    48          
    35  Cl    c      7.8377 *     7.8377       7.8377    0.0000     8          
    36  Li    c     -1.9594 *    13.7161 *     0.0000    0.0000    24          
    37  Li    c      9.7972 *     9.7972       0.0000    0.0000    12          
    38  Li    c      7.8377 *     9.7972 *     5.8783 *  0.0000    48          
    39  O     c     -1.9594 *     9.7972 *     9.7972    0.0000    24          
    40  O     c     -1.9594 *    13.7161 *    -1.9594    0.0000    24          
    41  Cl    c      0.0000       7.8377 *    11.7566 *  0.0000    24          
    42  Li    c     -1.9594 *    13.7161 *     3.9189 *  0.0000    48          
    43  Li    c      9.7972 *     9.7972       3.9189 *  0.0000    24          
    44  Li    c     11.7566 *     5.8783 *     5.8783    0.0000    24          
    45  Cl    c      3.9189 *     7.8377 *    11.7566 *  0.0000    48          
    46  Li    c      5.8783 *    13.7161 *     0.0000    0.0000    24          
    47  O     c     -1.9594 *    13.7161 *     5.8783 *  0.0000    48          
    48  O     c      9.7972 *     9.7972       5.8783 *  0.0000    24          
    49  Li    c      5.8783 *    13.7161 *     3.9189 *  0.0000    48          
    50  Li    c     11.7566 *     9.7972 *    -1.9594 *  0.0000    48          
    51  Cl    c      0.0000       0.0000      15.6755 *  0.0000     6          
    52  Li    c      7.8377 *     9.7972 *     9.7972    0.0000    24          
    53  Li    c     -1.9594 *    13.7161 *     7.8377 *  0.0000    48          
    54  Li    c     15.6755 *    -1.9594 *    -1.9594    0.0000    24          
    55  O     s     -1.9594 *    -1.9594      -1.9594    0.0000     8          
    56  Cl    s      0.0000       0.0000       3.9189 *  0.0000     6          
    57  Cl    s      0.0000       3.9189 *     3.9189    0.0000    12          
    58  O     s     -1.9594 *     5.8783 *    -1.9594    0.0000    24          
    59  Cl    s      3.9189 *     3.9189       3.9189    0.0000     8          
    60  Cl    s      0.0000       0.0000       7.8377 *  0.0000     6          
    61  O     s     -1.9594 *     5.8783 *     5.8783    0.0000    24          
    62  Cl    s      0.0000       3.9189 *     7.8377 *  0.0000    24          
    63  Cl    s      3.9189 *     3.9189       7.8377 *  0.0000    24          
    64  O     s     -1.9594 *    -1.9594       9.7972 *  0.0000    24          
    65  O     s      5.8783 *     5.8783       5.8783    0.0000     8          
    66  Cl    s      0.0000       7.8377 *     7.8377    0.0000    12          
    67  O     s     -1.9594 *     5.8783 *     9.7972 *  0.0000    48          
    68  Cl    s      0.0000       0.0000      11.7566 *  0.0000     6          
    69  Cl    s      3.9189 *     7.8377 *     7.8377    0.0000    24          
    70  Cl    s      0.0000       3.9189 *    11.7566 *  0.0000    24          
    71  O     s      5.8783 *     5.8783       9.7972 *  0.0000    24          
    72  Cl    s      3.9189 *    11.7566 *     3.9189    0.0000    24          
    73  Cl    s      7.8377 *     7.8377       7.8377    0.0000     8          
    74  O     s     -1.9594 *     9.7972 *     9.7972    0.0000    24          
    75  O     s     -1.9594 *    13.7161 *    -1.9594    0.0000    24          
    76  Cl    s      0.0000       7.8377 *    11.7566 *  0.0000    24          
    77  Cl    s      3.9189 *     7.8377 *    11.7566 *  0.0000    48          
    78  O     s     -1.9594 *    13.7161 *     5.8783 *  0.0000    48          
    79  O     s      9.7972 *     9.7972       5.8783 *  0.0000    24          
    80  Cl    s      0.0000       0.0000      15.6755 *  0.0000     6          
--------------------------------------------------------------------------------


  Constraints on symmetry reduced coordinates :

--------------------------------------------------------------------------------
  Constraint no.      Unconstrained     Constrained    Coefficient    
                         Variable         Variable
--------------------------------------------------------------------------------
           1                 1 x             1 y         1.00000
           2                 2 x             2 y         1.00000
           3                 2 x             2 z         1.00000
           4                 4 x             4 y         1.00000
           5                 5 y             5 z         1.00000
           6                 7 x             7 z         1.00000
           7                 8 x             8 y         1.00000
           8                 8 x             8 z         1.00000
           9                11 x            11 y         1.00000
          10                12 x            12 y         1.00000
          11                13 y            13 z         1.00000
          12                15 x            15 y         1.00000
          13                16 x            16 y         1.00000
          14                19 x            19 y         1.00000
          15                20 x            20 y         1.00000
          16                20 x            20 z         1.00000
          17                22 y            22 z         1.00000
          18                23 x            23 y         1.00000
          19                27 y            27 z         1.00000
          20                29 y            29 z         1.00000
          21                32 x            32 y         1.00000
          22                33 x            33 z         1.00000
          23                35 x            35 y         1.00000
          24                35 x            35 z         1.00000
          25                37 x            37 y         1.00000
          26                39 y            39 z         1.00000
          27                40 x            40 z         1.00000
          28                43 x            43 y         1.00000
          29                44 y            44 z         1.00000
          30                48 x            48 y         1.00000
          31                52 y            52 z         1.00000
          32                54 y            54 z         1.00000
          33                55 x            55 y         1.00000
          34                55 x            55 z         1.00000
          35                57 y            57 z         1.00000
          36                58 x            58 z         1.00000
          37                59 x            59 y         1.00000
          38                59 x            59 z         1.00000
          39                61 y            61 z         1.00000
          40                63 x            63 y         1.00000
          41                64 x            64 y         1.00000
          42                65 x            65 y         1.00000
          43                65 x            65 z         1.00000
          44                66 y            66 z         1.00000
          45                69 y            69 z         1.00000
          46                71 x            71 y         1.00000
          47                72 x            72 z         1.00000
          48                73 x            73 y         1.00000
          49                73 x            73 z         1.00000
          50                74 y            74 z         1.00000
          51                75 x            75 z         1.00000
          52                79 x            79 y         1.00000
--------------------------------------------------------------------------------


  Components of defect energy : 

--------------------------------------------------------------------------------
  Region 1 - region 1                   =     82.81156683 eV
  Region 1 - region 2a (unrelaxed)      =    -73.96668978 eV
  Region 1 - 2a (relaxed - correction)  =     -0.17414120 eV
  Region 1 (Total)                      =      8.67073585 eV
  Region 2a                             =      0.08708047 eV
  Region 2b                             =     -0.32844828 eV
--------------------------------------------------------------------------------
  Total defect energy                   =      8.42936805 eV
--------------------------------------------------------------------------------

  Largest displacement in region 2 =   0.0050 Angstroms


  Number of variables =      154

  Maximum number of calculations  =        1000
  Maximum Hessian update interval =          10
  Maximum step size               =   1.0000000
  Maximum parameter tolerance     =   0.0000100
  Maximum function  tolerance     =   0.0000100
  Maximum gradient  tolerance     =   0.0010000

  Symmetry adapted optimisation

  Symmetry to be used for second derivatives

  Newton-Raphson optimiser to be used

  BFGS hessian update to be used

  Lower half triangular hessian to be used

  Start of defect optimisation :

  Cycle:      0 Defect Energy:   8.429368  Gnorm:     0.484532  CPU:    7.943
  ** Hessian calculated **
  Cycle:      1 Defect Energy:   5.524909  Gnorm:     0.006994  CPU:   10.599
  Cycle:      2 Defect Energy:   5.520941  Gnorm:     0.004660  CPU:   11.264
  Cycle:      3 Defect Energy:   5.519157  Gnorm:     0.003268  CPU:   11.947
  Cycle:      4 Defect Energy:   5.518298  Gnorm:     0.002288  CPU:   12.593
  Cycle:      5 Defect Energy:   5.517891  Gnorm:     0.001602  CPU:   13.240
  Cycle:      6 Defect Energy:   5.517701  Gnorm:     0.001122  CPU:   13.900
  Cycle:      7 Defect Energy:   5.517614  Gnorm:     0.000785  CPU:   14.426
  Cycle:      8 Defect Energy:   5.517577  Gnorm:     0.000550  CPU:   14.895
  Cycle:      9 Defect Energy:   5.517563  Gnorm:     0.000385  CPU:   15.500
  Cycle:     10 Defect Energy:   5.517558  Gnorm:     0.000269  CPU:   16.158
  ** Hessian calculated **
  Cycle:     11 Defect Energy:   5.517557  Gnorm:     0.000189  CPU:   17.644


  **** Optimisation achieved ****


  Final defect energy  =        5.51755822
  Final defect Gnorm   =        0.00013206

  Components of defect energy : 

--------------------------------------------------------------------------------
  Region 1 - region 1                   =     76.80972865 eV
  Region 1 - region 2a (unrelaxed)      =    -70.89319197 eV
  Region 1 - 2a (relaxed - correction)  =     -0.14103647 eV
  Region 1 (Total)                      =      5.77550021 eV
  Region 2a                             =      0.07050629 eV
  Region 2b                             =     -0.32844828 eV
--------------------------------------------------------------------------------
  Total defect energy                   =      5.51755822 eV
--------------------------------------------------------------------------------

  Largest displacement in region 2 =   0.0050 Angstroms

  Final coordinates of region 1 :

--------------------------------------------------------------------------------
   No.  Atomic        x           y           z          Radius      Charge
        Label       (Angs)      (Angs)      (Angs)       (Angs)       (e) 
--------------------------------------------------------------------------------
     1  Li    c    -2.039502   -2.039502    0.000000    0.000000    1.000000
     2  Li    c    -2.039502    2.039502    0.000000    0.000000    1.000000
     3  Li    c     2.039502   -2.039502    0.000000    0.000000    1.000000
     4  Li    c     2.039502    2.039502    0.000000    0.000000    1.000000
     5  Li    c     0.000000   -2.039502   -2.039502    0.000000    1.000000
     6  Li    c     0.000000   -2.039502    2.039502    0.000000    1.000000
     7  Li    c     0.000000    2.039502   -2.039502    0.000000    1.000000
     8  Li    c     0.000000    2.039502    2.039502    0.000000    1.000000
     9  Li    c    -2.039502    0.000000   -2.039502    0.000000    1.000000
    10  Li    c    -2.039502    0.000000    2.039502    0.000000    1.000000
    11  Li    c     2.039502    0.000000   -2.039502    0.000000    1.000000
    12  Li    c     2.039502    0.000000    2.039502    0.000000    1.000000
    13  O     c    -1.919278   -1.919278   -1.919278    0.000000    0.183000
    14  O     c    -1.919278   -1.919278    1.919278    0.000000    0.183000
    15  O     c    -1.919278    1.919278   -1.919278    0.000000    0.183000
    16  O     c    -1.919278    1.919278    1.919278    0.000000    0.183000
    17  O     c     1.919278   -1.919278   -1.919278    0.000000    0.183000
    18  O     c     1.919278   -1.919278    1.919278    0.000000    0.183000
    19  O     c     1.919278    1.919278   -1.919278    0.000000    0.183000
    20  O     c     1.919278    1.919278    1.919278    0.000000    0.183000
    21  Cl    c     0.000000    0.000000    3.882222    0.000000    1.485000
    22  Cl    c     0.000000    0.000000   -3.882222    0.000000    1.485000
    23  Cl    c     0.000000    3.882222    0.000000    0.000000    1.485000
    24  Cl    c     0.000000   -3.882222    0.000000    0.000000    1.485000
    25  Cl    c     3.882222    0.000000    0.000000    0.000000    1.485000
    26  Cl    c    -3.882222    0.000000    0.000000    0.000000    1.485000
    27  Li    c    -1.962324   -1.962324    3.935729    0.000000    1.000000
    28  Li    c    -1.962324   -1.962324   -3.935729    0.000000    1.000000
    29  Li    c    -1.962324    1.962324    3.935729    0.000000    1.000000
    30  Li    c    -1.962324    1.962324   -3.935729    0.000000    1.000000
    31  Li    c     1.962324   -1.962324    3.935729    0.000000    1.000000
    32  Li    c     1.962324   -1.962324   -3.935729    0.000000    1.000000
    33  Li    c     1.962324    1.962324    3.935729    0.000000    1.000000
    34  Li    c     1.962324    1.962324   -3.935729    0.000000    1.000000
    35  Li    c     3.935729   -1.962324   -1.962324    0.000000    1.000000
    36  Li    c     3.935729   -1.962324    1.962324    0.000000    1.000000
    37  Li    c     3.935729    1.962324   -1.962324    0.000000    1.000000
    38  Li    c     3.935729    1.962324    1.962324    0.000000    1.000000
    39  Li    c    -3.935729   -1.962324   -1.962324    0.000000    1.000000
    40  Li    c    -3.935729   -1.962324    1.962324    0.000000    1.000000
    41  Li    c    -3.935729    1.962324   -1.962324    0.000000    1.000000
    42  Li    c    -3.935729    1.962324    1.962324    0.000000    1.000000
    43  Li    c    -1.962324    3.935729   -1.962324    0.000000    1.000000
    44  Li    c    -1.962324    3.935729    1.962324    0.000000    1.000000
    45  Li    c    -1.962324   -3.935729   -1.962324    0.000000    1.000000
    46  Li    c    -1.962324   -3.935729    1.962324    0.000000    1.000000
    47  Li    c     1.962324    3.935729   -1.962324    0.000000    1.000000
    48  Li    c     1.962324    3.935729    1.962324    0.000000    1.000000
    49  Li    c     1.962324   -3.935729   -1.962324    0.000000    1.000000
    50  Li    c     1.962324   -3.935729    1.962324    0.000000    1.000000
    51  Cl    c     0.000000    3.898379    3.898379    0.000000    1.485000
    52  Cl    c     0.000000    3.898379   -3.898379    0.000000    1.485000
    53  Cl    c     0.000000   -3.898379    3.898379    0.000000    1.485000
    54  Cl    c     0.000000   -3.898379   -3.898379    0.000000    1.485000
    55  Cl    c     3.898379    0.000000    3.898379    0.000000    1.485000
    56  Cl    c     3.898379    0.000000   -3.898379    0.000000    1.485000
    57  Cl    c     3.898379    3.898379    0.000000    0.000000    1.485000
    58  Cl    c     3.898379   -3.898379    0.000000    0.000000    1.485000
    59  Cl    c    -3.898379    0.000000    3.898379    0.000000    1.485000
    60  Cl    c    -3.898379    0.000000   -3.898379    0.000000    1.485000
    61  Cl    c    -3.898379    3.898379    0.000000    0.000000    1.485000
    62  Cl    c    -3.898379   -3.898379    0.000000    0.000000    1.485000
    63  Li    c    -1.960253    5.897566    0.000000    0.000000    1.000000
    64  Li    c    -1.960253   -5.897566    0.000000    0.000000    1.000000
    65  Li    c     1.960253    5.897566    0.000000    0.000000    1.000000
    66  Li    c     1.960253   -5.897566    0.000000    0.000000    1.000000
    67  Li    c     5.897566   -1.960253    0.000000    0.000000    1.000000
    68  Li    c     5.897566    1.960253    0.000000    0.000000    1.000000
    69  Li    c    -5.897566   -1.960253    0.000000    0.000000    1.000000
    70  Li    c    -5.897566    1.960253    0.000000    0.000000    1.000000
    71  Li    c     0.000000   -1.960253    5.897566    0.000000    1.000000
    72  Li    c     0.000000   -1.960253   -5.897566    0.000000    1.000000
    73  Li    c     0.000000    1.960253    5.897566    0.000000    1.000000
    74  Li    c     0.000000    1.960253   -5.897566    0.000000    1.000000
    75  Li    c     0.000000    5.897566   -1.960253    0.000000    1.000000
    76  Li    c     0.000000    5.897566    1.960253    0.000000    1.000000
    77  Li    c     0.000000   -5.897566   -1.960253    0.000000    1.000000
    78  Li    c     0.000000   -5.897566    1.960253    0.000000    1.000000
    79  Li    c    -1.960253    0.000000    5.897566    0.000000    1.000000
    80  Li    c    -1.960253    0.000000   -5.897566    0.000000    1.000000
    81  Li    c     1.960253    0.000000    5.897566    0.000000    1.000000
    82  Li    c     1.960253    0.000000   -5.897566    0.000000    1.000000
    83  Li    c     5.897566    0.000000   -1.960253    0.000000    1.000000
    84  Li    c     5.897566    0.000000    1.960253    0.000000    1.000000
    85  Li    c    -5.897566    0.000000   -1.960253    0.000000    1.000000
    86  Li    c    -5.897566    0.000000    1.960253    0.000000    1.000000
    87  O     c    -1.956459    5.875298   -1.956459    0.000000    0.183000
    88  O     c    -1.956459    5.875298    1.956459    0.000000    0.183000
    89  O     c    -1.956459   -5.875298   -1.956459    0.000000    0.183000
    90  O     c    -1.956459   -5.875298    1.956459    0.000000    0.183000
    91  O     c     1.956459    5.875298   -1.956459    0.000000    0.183000
    92  O     c     1.956459    5.875298    1.956459    0.000000    0.183000
    93  O     c     1.956459   -5.875298   -1.956459    0.000000    0.183000
    94  O     c     1.956459   -5.875298    1.956459    0.000000    0.183000
    95  O     c     5.875298   -1.956459   -1.956459    0.000000    0.183000
    96  O     c     5.875298   -1.956459    1.956459    0.000000    0.183000
    97  O     c     5.875298    1.956459   -1.956459    0.000000    0.183000
    98  O     c     5.875298    1.956459    1.956459    0.000000    0.183000
    99  O     c    -5.875298   -1.956459   -1.956459    0.000000    0.183000
   100  O     c    -5.875298   -1.956459    1.956459    0.000000    0.183000
   101  O     c    -5.875298    1.956459   -1.956459    0.000000    0.183000
   102  O     c    -5.875298    1.956459    1.956459    0.000000    0.183000
   103  O     c    -1.956459   -1.956459    5.875298    0.000000    0.183000
   104  O     c    -1.956459   -1.956459   -5.875298    0.000000    0.183000
   105  O     c    -1.956459    1.956459    5.875298    0.000000    0.183000
   106  O     c    -1.956459    1.956459   -5.875298    0.000000    0.183000
   107  O     c     1.956459   -1.956459    5.875298    0.000000    0.183000
   108  O     c     1.956459   -1.956459   -5.875298    0.000000    0.183000
   109  O     c     1.956459    1.956459    5.875298    0.000000    0.183000
   110  O     c     1.956459    1.956459   -5.875298    0.000000    0.183000
   111  Cl    c     3.892487    3.892487    3.892487    0.000000    1.485000
   112  Cl    c     3.892487    3.892487   -3.892487    0.000000    1.485000
   113  Cl    c     3.892487   -3.892487    3.892487    0.000000    1.485000
   114  Cl    c     3.892487   -3.892487   -3.892487    0.000000    1.485000
   115  Cl    c    -3.892487    3.892487    3.892487    0.000000    1.485000
   116  Cl    c    -3.892487    3.892487   -3.892487    0.000000    1.485000
   117  Cl    c    -3.892487   -3.892487    3.892487    0.000000    1.485000
   118  Cl    c    -3.892487   -3.892487   -3.892487    0.000000    1.485000
   119  Li    c    -1.961889    5.889594    3.921957    0.000000    1.000000
   120  Li    c    -1.961889    5.889594   -3.921957    0.000000    1.000000
   121  Li    c    -1.961889   -5.889594    3.921957    0.000000    1.000000
   122  Li    c    -1.961889   -5.889594   -3.921957    0.000000    1.000000
   123  Li    c     1.961889    5.889594    3.921957    0.000000    1.000000
   124  Li    c     1.961889    5.889594   -3.921957    0.000000    1.000000
   125  Li    c     1.961889   -5.889594    3.921957    0.000000    1.000000
   126  Li    c     1.961889   -5.889594   -3.921957    0.000000    1.000000
   127  Li    c     5.889594   -1.961889    3.921957    0.000000    1.000000
   128  Li    c     5.889594   -1.961889   -3.921957    0.000000    1.000000
   129  Li    c     5.889594    1.961889    3.921957    0.000000    1.000000
   130  Li    c     5.889594    1.961889   -3.921957    0.000000    1.000000
   131  Li    c    -5.889594   -1.961889    3.921957    0.000000    1.000000
   132  Li    c    -5.889594   -1.961889   -3.921957    0.000000    1.000000
   133  Li    c    -5.889594    1.961889    3.921957    0.000000    1.000000
   134  Li    c    -5.889594    1.961889   -3.921957    0.000000    1.000000
   135  Li    c     3.921957   -1.961889    5.889594    0.000000    1.000000
   136  Li    c     3.921957   -1.961889   -5.889594    0.000000    1.000000
   137  Li    c     3.921957    1.961889    5.889594    0.000000    1.000000
   138  Li    c     3.921957    1.961889   -5.889594    0.000000    1.000000
   139  Li    c     3.921957    5.889594   -1.961889    0.000000    1.000000
   140  Li    c     3.921957    5.889594    1.961889    0.000000    1.000000
   141  Li    c     3.921957   -5.889594   -1.961889    0.000000    1.000000
   142  Li    c     3.921957   -5.889594    1.961889    0.000000    1.000000
   143  Li    c    -3.921957   -1.961889    5.889594    0.000000    1.000000
   144  Li    c    -3.921957   -1.961889   -5.889594    0.000000    1.000000
   145  Li    c    -3.921957    1.961889    5.889594    0.000000    1.000000
   146  Li    c    -3.921957    1.961889   -5.889594    0.000000    1.000000
   147  Li    c    -3.921957    5.889594   -1.961889    0.000000    1.000000
   148  Li    c    -3.921957    5.889594    1.961889    0.000000    1.000000
   149  Li    c    -3.921957   -5.889594   -1.961889    0.000000    1.000000
   150  Li    c    -3.921957   -5.889594    1.961889    0.000000    1.000000
   151  Li    c    -1.961889    3.921957    5.889594    0.000000    1.000000
   152  Li    c    -1.961889    3.921957   -5.889594    0.000000    1.000000
   153  Li    c    -1.961889   -3.921957    5.889594    0.000000    1.000000
   154  Li    c    -1.961889   -3.921957   -5.889594    0.000000    1.000000
   155  Li    c     1.961889    3.921957    5.889594    0.000000    1.000000
   156  Li    c     1.961889    3.921957   -5.889594    0.000000    1.000000
   157  Li    c     1.961889   -3.921957    5.889594    0.000000    1.000000
   158  Li    c     1.961889   -3.921957   -5.889594    0.000000    1.000000
   159  Li    c     5.889594    3.921957   -1.961889    0.000000    1.000000
   160  Li    c     5.889594    3.921957    1.961889    0.000000    1.000000
   161  Li    c     5.889594   -3.921957   -1.961889    0.000000    1.000000
   162  Li    c     5.889594   -3.921957    1.961889    0.000000    1.000000
   163  Li    c    -5.889594    3.921957   -1.961889    0.000000    1.000000
   164  Li    c    -5.889594    3.921957    1.961889    0.000000    1.000000
   165  Li    c    -5.889594   -3.921957   -1.961889    0.000000    1.000000
   166  Li    c    -5.889594   -3.921957    1.961889    0.000000    1.000000
   167  Cl    c     0.000000    0.000000    7.829618    0.000000    1.485000
   168  Cl    c     0.000000    0.000000   -7.829618    0.000000    1.485000
   169  Cl    c     0.000000    7.829618    0.000000    0.000000    1.485000
   170  Cl    c     0.000000   -7.829618    0.000000    0.000000    1.485000
   171  Cl    c     7.829618    0.000000    0.000000    0.000000    1.485000
   172  Cl    c    -7.829618    0.000000    0.000000    0.000000    1.485000
   173  Li    c    -1.962297   -1.962297    7.846398    0.000000    1.000000
   174  Li    c    -1.962297   -1.962297   -7.846398    0.000000    1.000000
   175  Li    c    -1.962297    1.962297    7.846398    0.000000    1.000000
   176  Li    c    -1.962297    1.962297   -7.846398    0.000000    1.000000
   177  Li    c     1.962297   -1.962297    7.846398    0.000000    1.000000
   178  Li    c     1.962297   -1.962297   -7.846398    0.000000    1.000000
   179  Li    c     1.962297    1.962297    7.846398    0.000000    1.000000
   180  Li    c     1.962297    1.962297   -7.846398    0.000000    1.000000
   181  Li    c     7.846398   -1.962297   -1.962297    0.000000    1.000000
   182  Li    c     7.846398   -1.962297    1.962297    0.000000    1.000000
   183  Li    c     7.846398    1.962297   -1.962297    0.000000    1.000000
   184  Li    c     7.846398    1.962297    1.962297    0.000000    1.000000
   185  Li    c    -7.846398   -1.962297   -1.962297    0.000000    1.000000
   186  Li    c    -7.846398   -1.962297    1.962297    0.000000    1.000000
   187  Li    c    -7.846398    1.962297   -1.962297    0.000000    1.000000
   188  Li    c    -7.846398    1.962297    1.962297    0.000000    1.000000
   189  Li    c    -1.962297    7.846398   -1.962297    0.000000    1.000000
   190  Li    c    -1.962297    7.846398    1.962297    0.000000    1.000000
   191  Li    c    -1.962297   -7.846398   -1.962297    0.000000    1.000000
   192  Li    c    -1.962297   -7.846398    1.962297    0.000000    1.000000
   193  Li    c     1.962297    7.846398   -1.962297    0.000000    1.000000
   194  Li    c     1.962297    7.846398    1.962297    0.000000    1.000000
   195  Li    c     1.962297   -7.846398   -1.962297    0.000000    1.000000
   196  Li    c     1.962297   -7.846398    1.962297    0.000000    1.000000
   197  Li    c     5.888423    5.888423    0.000000    0.000000    1.000000
   198  Li    c     5.888423   -5.888423    0.000000    0.000000    1.000000
   199  Li    c    -5.888423    5.888423    0.000000    0.000000    1.000000
   200  Li    c    -5.888423   -5.888423    0.000000    0.000000    1.000000
   201  Li    c     0.000000    5.888423    5.888423    0.000000    1.000000
   202  Li    c     0.000000    5.888423   -5.888423    0.000000    1.000000
   203  Li    c     0.000000   -5.888423    5.888423    0.000000    1.000000
   204  Li    c     0.000000   -5.888423   -5.888423    0.000000    1.000000
   205  Li    c     5.888423    0.000000    5.888423    0.000000    1.000000
   206  Li    c     5.888423    0.000000   -5.888423    0.000000    1.000000
   207  Li    c    -5.888423    0.000000    5.888423    0.000000    1.000000
   208  Li    c    -5.888423    0.000000   -5.888423    0.000000    1.000000
   209  O     c    -1.957055    5.873918    5.873918    0.000000    0.183000
   210  O     c    -1.957055    5.873918   -5.873918    0.000000    0.183000
   211  O     c    -1.957055   -5.873918    5.873918    0.000000    0.183000
   212  O     c    -1.957055   -5.873918   -5.873918    0.000000    0.183000
   213  O     c     1.957055    5.873918    5.873918    0.000000    0.183000
   214  O     c     1.957055    5.873918   -5.873918    0.000000    0.183000
   215  O     c     1.957055   -5.873918    5.873918    0.000000    0.183000
   216  O     c     1.957055   -5.873918   -5.873918    0.000000    0.183000
   217  O     c     5.873918   -1.957055    5.873918    0.000000    0.183000
   218  O     c     5.873918   -1.957055   -5.873918    0.000000    0.183000
   219  O     c     5.873918    1.957055    5.873918    0.000000    0.183000
   220  O     c     5.873918    1.957055   -5.873918    0.000000    0.183000
   221  O     c     5.873918    5.873918   -1.957055    0.000000    0.183000
   222  O     c     5.873918    5.873918    1.957055    0.000000    0.183000
   223  O     c     5.873918   -5.873918   -1.957055    0.000000    0.183000
   224  O     c     5.873918   -5.873918    1.957055    0.000000    0.183000
   225  O     c    -5.873918   -1.957055    5.873918    0.000000    0.183000
   226  O     c    -5.873918   -1.957055   -5.873918    0.000000    0.183000
   227  O     c    -5.873918    1.957055    5.873918    0.000000    0.183000
   228  O     c    -5.873918    1.957055   -5.873918    0.000000    0.183000
   229  O     c    -5.873918    5.873918   -1.957055    0.000000    0.183000
   230  O     c    -5.873918    5.873918    1.957055    0.000000    0.183000
   231  O     c    -5.873918   -5.873918   -1.957055    0.000000    0.183000
   232  O     c    -5.873918   -5.873918    1.957055    0.000000    0.183000
   233  Cl    c     0.000000    3.915193    7.829408    0.000000    1.485000
   234  Cl    c     0.000000    3.915193   -7.829408    0.000000    1.485000
   235  Cl    c     0.000000    7.829408    3.915193    0.000000    1.485000
   236  Cl    c     0.000000    7.829408   -3.915193    0.000000    1.485000
   237  Cl    c     0.000000   -3.915193    7.829408    0.000000    1.485000
   238  Cl    c     0.000000   -3.915193   -7.829408    0.000000    1.485000
   239  Cl    c     0.000000   -7.829408    3.915193    0.000000    1.485000
   240  Cl    c     0.000000   -7.829408   -3.915193    0.000000    1.485000
   241  Cl    c     3.915193    0.000000    7.829408    0.000000    1.485000
   242  Cl    c     3.915193    0.000000   -7.829408    0.000000    1.485000
   243  Cl    c     3.915193    7.829408    0.000000    0.000000    1.485000
   244  Cl    c     3.915193   -7.829408    0.000000    0.000000    1.485000
   245  Cl    c     7.829408    0.000000    3.915193    0.000000    1.485000
   246  Cl    c     7.829408    0.000000   -3.915193    0.000000    1.485000
   247  Cl    c     7.829408    3.915193    0.000000    0.000000    1.485000
   248  Cl    c     7.829408   -3.915193    0.000000    0.000000    1.485000
   249  Cl    c    -3.915193    0.000000    7.829408    0.000000    1.485000
   250  Cl    c    -3.915193    0.000000   -7.829408    0.000000    1.485000
   251  Cl    c    -3.915193    7.829408    0.000000    0.000000    1.485000
   252  Cl    c    -3.915193   -7.829408    0.000000    0.000000    1.485000
   253  Cl    c    -7.829408    0.000000    3.915193    0.000000    1.485000
   254  Cl    c    -7.829408    0.000000   -3.915193    0.000000    1.485000
   255  Cl    c    -7.829408    3.915193    0.000000    0.000000    1.485000
   256  Cl    c    -7.829408   -3.915193    0.000000    0.000000    1.485000
   257  Li    c     5.883884    5.883884    3.918854    0.000000    1.000000
   258  Li    c     5.883884    5.883884   -3.918854    0.000000    1.000000
   259  Li    c     5.883884   -5.883884    3.918854    0.000000    1.000000
   260  Li    c     5.883884   -5.883884   -3.918854    0.000000    1.000000
   261  Li    c    -5.883884    5.883884    3.918854    0.000000    1.000000
   262  Li    c    -5.883884    5.883884   -3.918854    0.000000    1.000000
   263  Li    c    -5.883884   -5.883884    3.918854    0.000000    1.000000
   264  Li    c    -5.883884   -5.883884   -3.918854    0.000000    1.000000
   265  Li    c     3.918854    5.883884    5.883884    0.000000    1.000000
   266  Li    c     3.918854    5.883884   -5.883884    0.000000    1.000000
   267  Li    c     3.918854   -5.883884    5.883884    0.000000    1.000000
   268  Li    c     3.918854   -5.883884   -5.883884    0.000000    1.000000
   269  Li    c    -3.918854    5.883884    5.883884    0.000000    1.000000
   270  Li    c    -3.918854    5.883884   -5.883884    0.000000    1.000000
   271  Li    c    -3.918854   -5.883884    5.883884    0.000000    1.000000
   272  Li    c    -3.918854   -5.883884   -5.883884    0.000000    1.000000
   273  Li    c     5.883884    3.918854    5.883884    0.000000    1.000000
   274  Li    c     5.883884    3.918854   -5.883884    0.000000    1.000000
   275  Li    c     5.883884   -3.918854    5.883884    0.000000    1.000000
   276  Li    c     5.883884   -3.918854   -5.883884    0.000000    1.000000
   277  Li    c    -5.883884    3.918854    5.883884    0.000000    1.000000
   278  Li    c    -5.883884    3.918854   -5.883884    0.000000    1.000000
   279  Li    c    -5.883884   -3.918854    5.883884    0.000000    1.000000
   280  Li    c    -5.883884   -3.918854   -5.883884    0.000000    1.000000
   281  Cl    c     3.915000    3.915000    7.829087    0.000000    1.485000
   282  Cl    c     3.915000    3.915000   -7.829087    0.000000    1.485000
   283  Cl    c     3.915000    7.829087    3.915000    0.000000    1.485000
   284  Cl    c     3.915000    7.829087   -3.915000    0.000000    1.485000
   285  Cl    c     3.915000   -3.915000    7.829087    0.000000    1.485000
   286  Cl    c     3.915000   -3.915000   -7.829087    0.000000    1.485000
   287  Cl    c     3.915000   -7.829087    3.915000    0.000000    1.485000
   288  Cl    c     3.915000   -7.829087   -3.915000    0.000000    1.485000
   289  Cl    c     7.829087    3.915000    3.915000    0.000000    1.485000
   290  Cl    c     7.829087    3.915000   -3.915000    0.000000    1.485000
   291  Cl    c     7.829087   -3.915000    3.915000    0.000000    1.485000
   292  Cl    c     7.829087   -3.915000   -3.915000    0.000000    1.485000
   293  Cl    c    -3.915000    3.915000    7.829087    0.000000    1.485000
   294  Cl    c    -3.915000    3.915000   -7.829087    0.000000    1.485000
   295  Cl    c    -3.915000    7.829087    3.915000    0.000000    1.485000
   296  Cl    c    -3.915000    7.829087   -3.915000    0.000000    1.485000
   297  Cl    c    -3.915000   -3.915000    7.829087    0.000000    1.485000
   298  Cl    c    -3.915000   -3.915000   -7.829087    0.000000    1.485000
   299  Cl    c    -3.915000   -7.829087    3.915000    0.000000    1.485000
   300  Cl    c    -3.915000   -7.829087   -3.915000    0.000000    1.485000
   301  Cl    c    -7.829087    3.915000    3.915000    0.000000    1.485000
   302  Cl    c    -7.829087    3.915000   -3.915000    0.000000    1.485000
   303  Cl    c    -7.829087   -3.915000    3.915000    0.000000    1.485000
   304  Cl    c    -7.829087   -3.915000   -3.915000    0.000000    1.485000
   305  Li    c    -1.960235    5.881913    7.842519    0.000000    1.000000
   306  Li    c    -1.960235    5.881913   -7.842519    0.000000    1.000000
   307  Li    c    -1.960235   -5.881913    7.842519    0.000000    1.000000
   308  Li    c    -1.960235   -5.881913   -7.842519    0.000000    1.000000
   309  Li    c     1.960235    5.881913    7.842519    0.000000    1.000000
   310  Li    c     1.960235    5.881913   -7.842519    0.000000    1.000000
   311  Li    c     1.960235   -5.881913    7.842519    0.000000    1.000000
   312  Li    c     1.960235   -5.881913   -7.842519    0.000000    1.000000
   313  Li    c     5.881913   -1.960235    7.842519    0.000000    1.000000
   314  Li    c     5.881913   -1.960235   -7.842519    0.000000    1.000000
   315  Li    c     5.881913    1.960235    7.842519    0.000000    1.000000
   316  Li    c     5.881913    1.960235   -7.842519    0.000000    1.000000
   317  Li    c    -5.881913   -1.960235    7.842519    0.000000    1.000000
   318  Li    c    -5.881913   -1.960235   -7.842519    0.000000    1.000000
   319  Li    c    -5.881913    1.960235    7.842519    0.000000    1.000000
   320  Li    c    -5.881913    1.960235   -7.842519    0.000000    1.000000
   321  Li    c     7.842519   -1.960235    5.881913    0.000000    1.000000
   322  Li    c     7.842519   -1.960235   -5.881913    0.000000    1.000000
   323  Li    c     7.842519    1.960235    5.881913    0.000000    1.000000
   324  Li    c     7.842519    1.960235   -5.881913    0.000000    1.000000
   325  Li    c    -7.842519   -1.960235    5.881913    0.000000    1.000000
   326  Li    c    -7.842519   -1.960235   -5.881913    0.000000    1.000000
   327  Li    c    -7.842519    1.960235    5.881913    0.000000    1.000000
   328  Li    c    -7.842519    1.960235   -5.881913    0.000000    1.000000
   329  Li    c    -1.960235    7.842519    5.881913    0.000000    1.000000
   330  Li    c    -1.960235    7.842519   -5.881913    0.000000    1.000000
   331  Li    c    -1.960235   -7.842519    5.881913    0.000000    1.000000
   332  Li    c    -1.960235   -7.842519   -5.881913    0.000000    1.000000
   333  Li    c     1.960235    7.842519    5.881913    0.000000    1.000000
   334  Li    c     1.960235    7.842519   -5.881913    0.000000    1.000000
   335  Li    c     1.960235   -7.842519    5.881913    0.000000    1.000000
   336  Li    c     1.960235   -7.842519   -5.881913    0.000000    1.000000
   337  Li    c     7.842519    5.881913   -1.960235    0.000000    1.000000
   338  Li    c     7.842519    5.881913    1.960235    0.000000    1.000000
   339  Li    c     7.842519   -5.881913   -1.960235    0.000000    1.000000
   340  Li    c     7.842519   -5.881913    1.960235    0.000000    1.000000
   341  Li    c    -7.842519    5.881913   -1.960235    0.000000    1.000000
   342  Li    c    -7.842519    5.881913    1.960235    0.000000    1.000000
   343  Li    c    -7.842519   -5.881913   -1.960235    0.000000    1.000000
   344  Li    c    -7.842519   -5.881913    1.960235    0.000000    1.000000
   345  Li    c     5.881913    7.842519   -1.960235    0.000000    1.000000
   346  Li    c     5.881913    7.842519    1.960235    0.000000    1.000000
   347  Li    c     5.881913   -7.842519   -1.960235    0.000000    1.000000
   348  Li    c     5.881913   -7.842519    1.960235    0.000000    1.000000
   349  Li    c    -5.881913    7.842519   -1.960235    0.000000    1.000000
   350  Li    c    -5.881913    7.842519    1.960235    0.000000    1.000000
   351  Li    c    -5.881913   -7.842519   -1.960235    0.000000    1.000000
   352  Li    c    -5.881913   -7.842519    1.960235    0.000000    1.000000
   353  Li    c    -1.960790    9.805597    0.000000    0.000000    1.000000
   354  Li    c    -1.960790   -9.805597    0.000000    0.000000    1.000000
   355  Li    c     1.960790    9.805597    0.000000    0.000000    1.000000
   356  Li    c     1.960790   -9.805597    0.000000    0.000000    1.000000
   357  Li    c     9.805597   -1.960790    0.000000    0.000000    1.000000
   358  Li    c     9.805597    1.960790    0.000000    0.000000    1.000000
   359  Li    c    -9.805597   -1.960790    0.000000    0.000000    1.000000
   360  Li    c    -9.805597    1.960790    0.000000    0.000000    1.000000
   361  Li    c     0.000000   -1.960790    9.805597    0.000000    1.000000
   362  Li    c     0.000000   -1.960790   -9.805597    0.000000    1.000000
   363  Li    c     0.000000    1.960790    9.805597    0.000000    1.000000
   364  Li    c     0.000000    1.960790   -9.805597    0.000000    1.000000
   365  Li    c     0.000000    9.805597   -1.960790    0.000000    1.000000
   366  Li    c     0.000000    9.805597    1.960790    0.000000    1.000000
   367  Li    c     0.000000   -9.805597   -1.960790    0.000000    1.000000
   368  Li    c     0.000000   -9.805597    1.960790    0.000000    1.000000
   369  Li    c    -1.960790    0.000000    9.805597    0.000000    1.000000
   370  Li    c    -1.960790    0.000000   -9.805597    0.000000    1.000000
   371  Li    c     1.960790    0.000000    9.805597    0.000000    1.000000
   372  Li    c     1.960790    0.000000   -9.805597    0.000000    1.000000
   373  Li    c     9.805597    0.000000   -1.960790    0.000000    1.000000
   374  Li    c     9.805597    0.000000    1.960790    0.000000    1.000000
   375  Li    c    -9.805597    0.000000   -1.960790    0.000000    1.000000
   376  Li    c    -9.805597    0.000000    1.960790    0.000000    1.000000
   377  O     c    -1.959160   -1.959160    9.797077    0.000000    0.183000
   378  O     c    -1.959160   -1.959160   -9.797077    0.000000    0.183000
   379  O     c    -1.959160    1.959160    9.797077    0.000000    0.183000
   380  O     c    -1.959160    1.959160   -9.797077    0.000000    0.183000
   381  O     c     1.959160   -1.959160    9.797077    0.000000    0.183000
   382  O     c     1.959160   -1.959160   -9.797077    0.000000    0.183000
   383  O     c     1.959160    1.959160    9.797077    0.000000    0.183000
   384  O     c     1.959160    1.959160   -9.797077    0.000000    0.183000
   385  O     c    -1.959160    9.797077   -1.959160    0.000000    0.183000
   386  O     c    -1.959160    9.797077    1.959160    0.000000    0.183000
   387  O     c    -1.959160   -9.797077   -1.959160    0.000000    0.183000
   388  O     c    -1.959160   -9.797077    1.959160    0.000000    0.183000
   389  O     c     1.959160    9.797077   -1.959160    0.000000    0.183000
   390  O     c     1.959160    9.797077    1.959160    0.000000    0.183000
   391  O     c     1.959160   -9.797077   -1.959160    0.000000    0.183000
   392  O     c     1.959160   -9.797077    1.959160    0.000000    0.183000
   393  O     c     9.797077   -1.959160   -1.959160    0.000000    0.183000
   394  O     c     9.797077   -1.959160    1.959160    0.000000    0.183000
   395  O     c     9.797077    1.959160   -1.959160    0.000000    0.183000
   396  O     c     9.797077    1.959160    1.959160    0.000000    0.183000
   397  O     c    -9.797077   -1.959160   -1.959160    0.000000    0.183000
   398  O     c    -9.797077   -1.959160    1.959160    0.000000    0.183000
   399  O     c    -9.797077    1.959160   -1.959160    0.000000    0.183000
   400  O     c    -9.797077    1.959160    1.959160    0.000000    0.183000
   401  O     c     5.872328    5.872328    5.872328    0.000000    0.183000
   402  O     c     5.872328    5.872328   -5.872328    0.000000    0.183000
   403  O     c     5.872328   -5.872328    5.872328    0.000000    0.183000
   404  O     c     5.872328   -5.872328   -5.872328    0.000000    0.183000
   405  O     c    -5.872328    5.872328    5.872328    0.000000    0.183000
   406  O     c    -5.872328    5.872328   -5.872328    0.000000    0.183000
   407  O     c    -5.872328   -5.872328    5.872328    0.000000    0.183000
   408  O     c    -5.872328   -5.872328   -5.872328    0.000000    0.183000
   409  Li    c     3.920550   -1.960431    9.805507    0.000000    1.000000
   410  Li    c     3.920550   -1.960431   -9.805507    0.000000    1.000000
   411  Li    c     3.920550    1.960431    9.805507    0.000000    1.000000
   412  Li    c     3.920550    1.960431   -9.805507    0.000000    1.000000
   413  Li    c    -3.920550   -1.960431    9.805507    0.000000    1.000000
   414  Li    c    -3.920550   -1.960431   -9.805507    0.000000    1.000000
   415  Li    c    -3.920550    1.960431    9.805507    0.000000    1.000000
   416  Li    c    -3.920550    1.960431   -9.805507    0.000000    1.000000
   417  Li    c    -1.960431    3.920550    9.805507    0.000000    1.000000
   418  Li    c    -1.960431    3.920550   -9.805507    0.000000    1.000000
   419  Li    c    -1.960431   -3.920550    9.805507    0.000000    1.000000
   420  Li    c    -1.960431   -3.920550   -9.805507    0.000000    1.000000
   421  Li    c     1.960431    3.920550    9.805507    0.000000    1.000000
   422  Li    c     1.960431    3.920550   -9.805507    0.000000    1.000000
   423  Li    c     1.960431   -3.920550    9.805507    0.000000    1.000000
   424  Li    c     1.960431   -3.920550   -9.805507    0.000000    1.000000
   425  Li    c    -1.960431    9.805507    3.920550    0.000000    1.000000
   426  Li    c    -1.960431    9.805507   -3.920550    0.000000    1.000000
   427  Li    c    -1.960431   -9.805507    3.920550    0.000000    1.000000
   428  Li    c    -1.960431   -9.805507   -3.920550    0.000000    1.000000
   429  Li    c     1.960431    9.805507    3.920550    0.000000    1.000000
   430  Li    c     1.960431    9.805507   -3.920550    0.000000    1.000000
   431  Li    c     1.960431   -9.805507    3.920550    0.000000    1.000000
   432  Li    c     1.960431   -9.805507   -3.920550    0.000000    1.000000
   433  Li    c     9.805507   -1.960431    3.920550    0.000000    1.000000
   434  Li    c     9.805507   -1.960431   -3.920550    0.000000    1.000000
   435  Li    c     9.805507    1.960431    3.920550    0.000000    1.000000
   436  Li    c     9.805507    1.960431   -3.920550    0.000000    1.000000
   437  Li    c    -9.805507   -1.960431    3.920550    0.000000    1.000000
   438  Li    c    -9.805507   -1.960431   -3.920550    0.000000    1.000000
   439  Li    c    -9.805507    1.960431    3.920550    0.000000    1.000000
   440  Li    c    -9.805507    1.960431   -3.920550    0.000000    1.000000
   441  Li    c     3.920550    9.805507   -1.960431    0.000000    1.000000
   442  Li    c     3.920550    9.805507    1.960431    0.000000    1.000000
   443  Li    c     3.920550   -9.805507   -1.960431    0.000000    1.000000
   444  Li    c     3.920550   -9.805507    1.960431    0.000000    1.000000
   445  Li    c    -3.920550    9.805507   -1.960431    0.000000    1.000000
   446  Li    c    -3.920550    9.805507    1.960431    0.000000    1.000000
   447  Li    c    -3.920550   -9.805507   -1.960431    0.000000    1.000000
   448  Li    c    -3.920550   -9.805507    1.960431    0.000000    1.000000
   449  Li    c     9.805507    3.920550   -1.960431    0.000000    1.000000
   450  Li    c     9.805507    3.920550    1.960431    0.000000    1.000000
   451  Li    c     9.805507   -3.920550   -1.960431    0.000000    1.000000
   452  Li    c     9.805507   -3.920550    1.960431    0.000000    1.000000
   453  Li    c    -9.805507    3.920550   -1.960431    0.000000    1.000000
   454  Li    c    -9.805507    3.920550    1.960431    0.000000    1.000000
   455  Li    c    -9.805507   -3.920550   -1.960431    0.000000    1.000000
   456  Li    c    -9.805507   -3.920550    1.960431    0.000000    1.000000
   457  Cl    c     0.000000    7.832826    7.832826    0.000000    1.485000
   458  Cl    c     0.000000    7.832826   -7.832826    0.000000    1.485000
   459  Cl    c     0.000000   -7.832826    7.832826    0.000000    1.485000
   460  Cl    c     0.000000   -7.832826   -7.832826    0.000000    1.485000
   461  Cl    c     7.832826    0.000000    7.832826    0.000000    1.485000
   462  Cl    c     7.832826    0.000000   -7.832826    0.000000    1.485000
   463  Cl    c     7.832826    7.832826    0.000000    0.000000    1.485000
   464  Cl    c     7.832826   -7.832826    0.000000    0.000000    1.485000
   465  Cl    c    -7.832826    0.000000    7.832826    0.000000    1.485000
   466  Cl    c    -7.832826    0.000000   -7.832826    0.000000    1.485000
   467  Cl    c    -7.832826    7.832826    0.000000    0.000000    1.485000
   468  Cl    c    -7.832826   -7.832826    0.000000    0.000000    1.485000
   469  Li    c     5.879336    5.879336    7.839240    0.000000    1.000000
   470  Li    c     5.879336    5.879336   -7.839240    0.000000    1.000000
   471  Li    c     5.879336   -5.879336    7.839240    0.000000    1.000000
   472  Li    c     5.879336   -5.879336   -7.839240    0.000000    1.000000
   473  Li    c    -5.879336    5.879336    7.839240    0.000000    1.000000
   474  Li    c    -5.879336    5.879336   -7.839240    0.000000    1.000000
   475  Li    c    -5.879336   -5.879336    7.839240    0.000000    1.000000
   476  Li    c    -5.879336   -5.879336   -7.839240    0.000000    1.000000
   477  Li    c     7.839240    5.879336    5.879336    0.000000    1.000000
   478  Li    c     7.839240    5.879336   -5.879336    0.000000    1.000000
   479  Li    c     7.839240   -5.879336    5.879336    0.000000    1.000000
   480  Li    c     7.839240   -5.879336   -5.879336    0.000000    1.000000
   481  Li    c    -7.839240    5.879336    5.879336    0.000000    1.000000
   482  Li    c    -7.839240    5.879336   -5.879336    0.000000    1.000000
   483  Li    c    -7.839240   -5.879336    5.879336    0.000000    1.000000
   484  Li    c    -7.839240   -5.879336   -5.879336    0.000000    1.000000
   485  Li    c     5.879336    7.839240    5.879336    0.000000    1.000000
   486  Li    c     5.879336    7.839240   -5.879336    0.000000    1.000000
   487  Li    c     5.879336   -7.839240    5.879336    0.000000    1.000000
   488  Li    c     5.879336   -7.839240   -5.879336    0.000000    1.000000
   489  Li    c    -5.879336    7.839240    5.879336    0.000000    1.000000
   490  Li    c    -5.879336    7.839240   -5.879336    0.000000    1.000000
   491  Li    c    -5.879336   -7.839240    5.879336    0.000000    1.000000
   492  Li    c    -5.879336   -7.839240   -5.879336    0.000000    1.000000
   493  Li    c     5.880812    9.803554    0.000000    0.000000    1.000000
   494  Li    c     5.880812   -9.803554    0.000000    0.000000    1.000000
   495  Li    c     9.803554    5.880812    0.000000    0.000000    1.000000
   496  Li    c     9.803554   -5.880812    0.000000    0.000000    1.000000
   497  Li    c    -5.880812    9.803554    0.000000    0.000000    1.000000
   498  Li    c    -5.880812   -9.803554    0.000000    0.000000    1.000000
   499  Li    c    -9.803554    5.880812    0.000000    0.000000    1.000000
   500  Li    c    -9.803554   -5.880812    0.000000    0.000000    1.000000
   501  Li    c     0.000000    5.880812    9.803554    0.000000    1.000000
   502  Li    c     0.000000    5.880812   -9.803554    0.000000    1.000000
   503  Li    c     0.000000    9.803554    5.880812    0.000000    1.000000
[...]
  Parameter   Initial value   Final value   Difference    Units      Percent
--------------------------------------------------------------------------------
      1 x         -1.959436     -2.039502    -0.080065    Cartesian    4.09
      1 y         -1.959436     -2.039502    -0.080065    Cartesian    4.09
      1 z          0.000000      0.000000     0.000000    Cartesian    0.00
      2 x         -1.959436     -1.919278     0.040159    Cartesian   -2.05
      2 y         -1.959436     -1.919278     0.040159    Cartesian   -2.05
      2 z         -1.959436     -1.919278     0.040159    Cartesian   -2.05
      3 x          0.000000      0.000000     0.000000    Cartesian    0.00
      3 y          0.000000      0.000000     0.000000    Cartesian    0.00
      3 z          3.918873      3.882222    -0.036651    Cartesian   -0.94
      4 x         -1.959436     -1.962324    -0.002887    Cartesian    0.15
      4 y         -1.959436     -1.962324    -0.002887    Cartesian    0.15
      4 z          3.918873      3.935729     0.016856    Cartesian    0.43
      5 x          0.000000      0.000000     0.000000    Cartesian    0.00
      5 y          3.918873      3.898379    -0.020494    Cartesian   -0.52
      5 z          3.918873      3.898379    -0.020494    Cartesian   -0.52
      6 x         -1.959436     -1.960253    -0.000816    Cartesian    0.04
      6 y          5.878309      5.897566     0.019256    Cartesian    0.33
      6 z          0.000000      0.000000     0.000000    Cartesian    0.00
      7 x         -1.959436     -1.956459     0.002978    Cartesian   -0.15
      7 y          5.878309      5.875298    -0.003011    Cartesian   -0.05
      7 z         -1.959436     -1.956459     0.002978    Cartesian   -0.15
      8 x          3.918873      3.892487    -0.026386    Cartesian   -0.67
      8 y          3.918873      3.892487    -0.026386    Cartesian   -0.67
      8 z          3.918873      3.892487    -0.026386    Cartesian   -0.67
      9 x         -1.959436     -1.961889    -0.002453    Cartesian    0.13
      9 y          5.878309      5.889594     0.011285    Cartesian    0.19
      9 z          3.918873      3.921957     0.003084    Cartesian    0.08
     10 x          0.000000      0.000000     0.000000    Cartesian    0.00
     10 y          0.000000      0.000000     0.000000    Cartesian    0.00
     10 z          7.837746      7.829618    -0.008128    Cartesian   -0.10
     11 x         -1.959436     -1.962297    -0.002861    Cartesian    0.15
     11 y         -1.959436     -1.962297    -0.002861    Cartesian    0.15
     11 z          7.837746      7.846398     0.008652    Cartesian    0.11
     12 x          5.878309      5.888423     0.010113    Cartesian    0.17
     12 y          5.878309      5.888423     0.010113    Cartesian    0.17
     12 z          0.000000      0.000000     0.000000    Cartesian    0.00
     13 x         -1.959436     -1.957055     0.002382    Cartesian   -0.12
     13 y          5.878309      5.873918    -0.004391    Cartesian   -0.07
     13 z          5.878309      5.873918    -0.004391    Cartesian   -0.07
     14 x          0.000000      0.000000     0.000000    Cartesian    0.00
     14 y          3.918873      3.915193    -0.003680    Cartesian   -0.09
     14 z          7.837746      7.829408    -0.008338    Cartesian   -0.11
     15 x          5.878309      5.883884     0.005575    Cartesian    0.09
     15 y          5.878309      5.883884     0.005575    Cartesian    0.09
     15 z          3.918873      3.918854    -0.000019    Cartesian   -0.00
     16 x          3.918873      3.915000    -0.003873    Cartesian   -0.10
     16 y          3.918873      3.915000    -0.003873    Cartesian   -0.10
     16 z          7.837746      7.829087    -0.008659    Cartesian   -0.11
     17 x         -1.959436     -1.960235    -0.000798    Cartesian    0.04
     17 y          5.878309      5.881913     0.003604    Cartesian    0.06
     17 z          7.837746      7.842519     0.004773    Cartesian    0.06
     18 x         -1.959436     -1.960790    -0.001353    Cartesian    0.07
     18 y          9.797182      9.805597     0.008414    Cartesian    0.09
     18 z          0.000000      0.000000     0.000000    Cartesian    0.00
     19 x         -1.959436     -1.959160     0.000277    Cartesian   -0.01
     19 y         -1.959436     -1.959160     0.000277    Cartesian   -0.01
     19 z          9.797182      9.797077    -0.000106    Cartesian   -0.00
     20 x          5.878309      5.872328    -0.005982    Cartesian   -0.10
     20 y          5.878309      5.872328    -0.005982    Cartesian   -0.10
     20 z          5.878309      5.872328    -0.005982    Cartesian   -0.10
     21 x          3.918873      3.920550     0.001677    Cartesian    0.04
     21 y         -1.959436     -1.960431    -0.000995    Cartesian    0.05
     21 z          9.797182      9.805507     0.008324    Cartesian    0.08
     22 x          0.000000      0.000000     0.000000    Cartesian    0.00
     22 y          7.837746      7.832826    -0.004920    Cartesian   -0.06
     22 z          7.837746      7.832826    -0.004920    Cartesian   -0.06
     23 x          5.878309      5.879336     0.001027    Cartesian    0.02
     23 y          5.878309      5.879336     0.001027    Cartesian    0.02
     23 z          7.837746      7.839240     0.001494    Cartesian    0.02
     24 x          5.878309      5.880812     0.002503    Cartesian    0.04
     24 y          9.797182      9.803554     0.006372    Cartesian    0.07
     24 z          0.000000      0.000000     0.000000    Cartesian    0.00
     25 x         -1.959436     -1.959009     0.000427    Cartesian   -0.02
     25 y          5.878309      5.877391    -0.000919    Cartesian   -0.02
     25 z          9.797182      9.796273    -0.000910    Cartesian   -0.01
     26 x          0.000000      0.000000     0.000000    Cartesian    0.00
     26 y          0.000000      0.000000     0.000000    Cartesian    0.00
     26 z         11.756619     11.752914    -0.003705    Cartesian   -0.03
     27 x          3.918873      3.915863    -0.003010    Cartesian   -0.08
     27 y          7.837746      7.832020    -0.005726    Cartesian   -0.07
     27 z          7.837746      7.832020    -0.005726    Cartesian   -0.07
     28 x          5.878309      5.881140     0.002830    Cartesian    0.05
     28 y          9.797182      9.802031     0.004848    Cartesian    0.05
     28 z          3.918873      3.919689     0.000816    Cartesian    0.02
     29 x         11.756619     11.761911     0.005292    Cartesian    0.05
     29 y         -1.959436     -1.959533    -0.000097    Cartesian    0.00
     29 z         -1.959436     -1.959533    -0.000097    Cartesian    0.00
     30 x          0.000000      0.000000     0.000000    Cartesian    0.00
     30 y          3.918873      3.917413    -0.001460    Cartesian   -0.04
     30 z         11.756619     11.753279    -0.003340    Cartesian   -0.03
     31 x          7.837746      7.840125     0.002379    Cartesian    0.03
     31 y         -1.959436     -1.959348     0.000089    Cartesian   -0.00
     31 z          9.797182      9.801997     0.004814    Cartesian    0.05
     32 x          5.878309      5.877294    -0.001015    Cartesian   -0.02
     32 y          5.878309      5.877294    -0.001015    Cartesian   -0.02
     32 z          9.797182      9.795514    -0.001669    Cartesian   -0.02
     33 x          3.918873      3.918008    -0.000865    Cartesian   -0.02
     33 y         11.756619     11.753085    -0.003534    Cartesian   -0.03
     33 z          3.918873      3.918008    -0.000865    Cartesian   -0.02
     34 x         -1.959436     -1.960815    -0.001379    Cartesian    0.07
     34 y          5.878309      5.881659     0.003350    Cartesian    0.06
     34 z         11.756619     11.760564     0.003945    Cartesian    0.03
     35 x          7.837746      7.832929    -0.004817    Cartesian   -0.06
     35 y          7.837746      7.832929    -0.004817    Cartesian   -0.06
     35 z          7.837746      7.832929    -0.004817    Cartesian   -0.06
     36 x         -1.959436     -1.959351     0.000085    Cartesian   -0.00
     36 y         13.716055     13.723553     0.007497    Cartesian    0.05
     36 z          0.000000      0.000000     0.000000    Cartesian    0.00
     37 x          9.797182      9.801202     0.004019    Cartesian    0.04
     37 y          9.797182      9.801202     0.004019    Cartesian    0.04
     37 z          0.000000      0.000000     0.000000    Cartesian    0.00
     38 x          7.837746      7.838847     0.001101    Cartesian    0.01
     38 y          9.797182      9.798369     0.001186    Cartesian    0.01
     38 z          5.878309      5.880426     0.002116    Cartesian    0.04
     39 x         -1.959436     -1.959228     0.000208    Cartesian   -0.01
     39 y          9.797182      9.797016    -0.000167    Cartesian   -0.00
     39 z          9.797182      9.797016    -0.000167    Cartesian   -0.00
     40 x         -1.959436     -1.959992    -0.000555    Cartesian    0.03
     40 y         13.716055     13.716679     0.000624    Cartesian    0.00
     40 z         -1.959436     -1.959992    -0.000555    Cartesian    0.03
     41 x          0.000000      0.000000     0.000000    Cartesian    0.00
     41 y          7.837746      7.836295    -0.001451    Cartesian   -0.02
     41 z         11.756619     11.753418    -0.003201    Cartesian   -0.03
     42 x         -1.959436     -1.959970    -0.000533    Cartesian    0.03
     42 y         13.716055     13.719589     0.003534    Cartesian    0.03
     42 z          3.918873      3.919599     0.000726    Cartesian    0.02
     43 x          9.797182      9.799247     0.002065    Cartesian    0.02
     43 y          9.797182      9.799247     0.002065    Cartesian    0.02
     43 z          3.918873      3.919074     0.000201    Cartesian    0.01
     44 x         11.756619     11.758983     0.002364    Cartesian    0.02
     44 y          5.878309      5.879081     0.000771    Cartesian    0.01
     44 z          5.878309      5.879081     0.000771    Cartesian    0.01
     45 x          3.918873      3.918032    -0.000841    Cartesian   -0.02
     45 y          7.837746      7.835561    -0.002185    Cartesian   -0.03
     45 z         11.756619     11.752822    -0.003797    Cartesian   -0.03
     46 x          5.878309      5.880678     0.002369    Cartesian    0.04
     46 y         13.716055     13.719215     0.003160    Cartesian    0.02
     46 z          0.000000      0.000000     0.000000    Cartesian    0.00
     47 x         -1.959436     -1.959403     0.000034    Cartesian   -0.00
     47 y         13.716055     13.715284    -0.000771    Cartesian   -0.01
     47 z          5.878309      5.878248    -0.000061    Cartesian   -0.00
     48 x          9.797182      9.795020    -0.002162    Cartesian   -0.02
     48 y          9.797182      9.795020    -0.002162    Cartesian   -0.02
     48 z          5.878309      5.877299    -0.001011    Cartesian   -0.02
     49 x          5.878309      5.880443     0.002133    Cartesian    0.04
     49 y         13.716055     13.721380     0.005325    Cartesian    0.04
     49 z          3.918873      3.919894     0.001021    Cartesian    0.03
     50 x         11.756619     11.759855     0.003236    Cartesian    0.03
     50 y          9.797182      9.800678     0.003496    Cartesian    0.04
     50 z         -1.959436     -1.960314    -0.000878    Cartesian    0.04
     51 x          0.000000      0.000000     0.000000    Cartesian    0.00
     51 y          0.000000      0.000000     0.000000    Cartesian    0.00
     51 z         15.675492     15.669053    -0.006439    Cartesian   -0.04
     52 x          7.837746      7.839903     0.002157    Cartesian    0.03
     52 y          9.797182      9.801643     0.004460    Cartesian    0.05
     52 z          9.797182      9.801643     0.004460    Cartesian    0.05
     53 x         -1.959436     -1.960279    -0.000843    Cartesian    0.04
     53 y         13.716055     13.722685     0.006629    Cartesian    0.05
     53 z          7.837746      7.840207     0.002461    Cartesian    0.03
     54 x         15.675492     15.680587     0.005095    Cartesian    0.03
     54 y         -1.959436     -1.961529    -0.002092    Cartesian    0.11
     54 z         -1.959436     -1.961529    -0.002092    Cartesian    0.11
     55 x         -1.959436     -1.919242     0.040194    Cartesian   -2.05
     55 y         -1.959436     -1.919242     0.040194    Cartesian   -2.05
     55 z         -1.959436     -1.919242     0.040194    Cartesian   -2.05
     56 x          0.000000      0.000000     0.000000    Cartesian    0.00
     56 y          0.000000      0.000000     0.000000    Cartesian    0.00
     56 z          3.918873      3.877269    -0.041604    Cartesian   -1.06
     57 x          0.000000      0.000000     0.000000    Cartesian    0.00
     57 y          3.918873      3.888026    -0.030847    Cartesian   -0.79
     57 z          3.918873      3.888026    -0.030847    Cartesian   -0.79
     58 x         -1.959436     -1.956452     0.002984    Cartesian   -0.15
     58 y          5.878309      5.875273    -0.003036    Cartesian   -0.05
     58 z         -1.959436     -1.956452     0.002984    Cartesian   -0.15
     59 x          3.918873      3.887138    -0.031735    Cartesian   -0.81
     59 y          3.918873      3.887138    -0.031735    Cartesian   -0.81
     59 z          3.918873      3.887138    -0.031735    Cartesian   -0.81
     60 x          0.000000      0.000000     0.000000    Cartesian    0.00
     60 y          0.000000      0.000000     0.000000    Cartesian    0.00
     60 z          7.837746      7.825501    -0.012245    Cartesian   -0.16
     61 x         -1.959436     -1.957052     0.002384    Cartesian   -0.12
     61 y          5.878309      5.873908    -0.004401    Cartesian   -0.07
     61 z          5.878309      5.873908    -0.004401    Cartesian   -0.07
     62 x          0.000000      0.000000     0.000000    Cartesian    0.00
     62 y          3.918873      3.913771    -0.005102    Cartesian   -0.13
     62 z          7.837746      7.826330    -0.011416    Cartesian   -0.15
     63 x          3.918873      3.913761    -0.005112    Cartesian   -0.13
     63 y          3.918873      3.913761    -0.005112    Cartesian   -0.13
     63 z          7.837746      7.826231    -0.011515    Cartesian   -0.15
     64 x         -1.959436     -1.959158     0.000278    Cartesian   -0.01
     64 y         -1.959436     -1.959158     0.000278    Cartesian   -0.01
     64 z          9.797182      9.797066    -0.000116    Cartesian   -0.00
     65 x          5.878309      5.872319    -0.005990    Cartesian   -0.10
     65 y          5.878309      5.872319    -0.005990    Cartesian   -0.10
     65 z          5.878309      5.872319    -0.005990    Cartesian   -0.10
     66 x          0.000000      0.000000     0.000000    Cartesian    0.00
     66 y          7.837746      7.830890    -0.006856    Cartesian   -0.09
     66 z          7.837746      7.830890    -0.006856    Cartesian   -0.09
     67 x         -1.959436     -1.959008     0.000428    Cartesian   -0.02
     67 y          5.878309      5.877387    -0.000922    Cartesian   -0.02
     67 z          9.797182      9.796266    -0.000917    Cartesian   -0.01
     68 x          0.000000      0.000000     0.000000    Cartesian    0.00
     68 y          0.000000      0.000000     0.000000    Cartesian    0.00
     68 z         11.756619     11.750962    -0.005657    Cartesian   -0.05
     69 x          3.918873      3.915202    -0.003671    Cartesian   -0.09
     69 y          7.837746      7.830320    -0.007426    Cartesian   -0.09
     69 z          7.837746      7.830320    -0.007426    Cartesian   -0.09
     70 x          0.000000      0.000000     0.000000    Cartesian    0.00
     70 y          3.918873      3.916835    -0.002038    Cartesian   -0.05
     70 z         11.756619     11.751534    -0.005085    Cartesian   -0.04
     71 x          5.878309      5.877292    -0.001018    Cartesian   -0.02
     71 y          5.878309      5.877292    -0.001018    Cartesian   -0.02
     71 z          9.797182      9.795509    -0.001674    Cartesian   -0.02
     72 x          3.918873      3.917526    -0.001347    Cartesian   -0.03
     72 y         11.756619     11.751448    -0.005171    Cartesian   -0.04
     72 z          3.918873      3.917526    -0.001347    Cartesian   -0.03
     73 x          7.837746      7.831516    -0.006230    Cartesian   -0.08
     73 y          7.837746      7.831516    -0.006230    Cartesian   -0.08
     73 z          7.837746      7.831516    -0.006230    Cartesian   -0.08
     74 x         -1.959436     -1.959228     0.000209    Cartesian   -0.01
     74 y          9.797182      9.797012    -0.000171    Cartesian   -0.00
     74 z          9.797182      9.797012    -0.000171    Cartesian   -0.00
     75 x         -1.959436     -1.959993    -0.000556    Cartesian    0.03
     75 y         13.716055     13.716672     0.000616    Cartesian    0.00
     75 z         -1.959436     -1.959993    -0.000556    Cartesian    0.03
     76 x          0.000000      0.000000     0.000000    Cartesian    0.00
     76 y          7.837746      7.835573    -0.002173    Cartesian   -0.03
     76 z         11.756619     11.752066    -0.004553    Cartesian   -0.04
     77 x          3.918873      3.917854    -0.001019    Cartesian   -0.03
     77 y          7.837746      7.834902    -0.002844    Cartesian   -0.04
     77 z         11.756619     11.751687    -0.004932    Cartesian   -0.04
     78 x         -1.959436     -1.959402     0.000035    Cartesian   -0.00
     78 y         13.716055     13.715282    -0.000773    Cartesian   -0.01
     78 z          5.878309      5.878246    -0.000064    Cartesian   -0.00
     79 x          9.797182      9.795017    -0.002165    Cartesian   -0.02
     79 y          9.797182      9.795017    -0.002165    Cartesian   -0.02
     79 z          5.878309      5.877295    -0.001015    Cartesian   -0.02
     80 x          0.000000      0.000000     0.000000    Cartesian    0.00
     80 y          0.000000      0.000000     0.000000    Cartesian    0.00
     80 z         15.675492     15.667176    -0.008316    Cartesian   -0.05
--------------------------------------------------------------------------------


  Time to end of optimisation  =       18.3347 seconds


  Peak dynamic memory used =     597.99 MB 


  Timing analysis for GULP :

--------------------------------------------------------------------------------
  Task / Subroutine                                          Time (Seconds)
--------------------------------------------------------------------------------
  Calculation of reciprocal space energy and derivatives          0.0005
  Calculation of reciprocal space energy using symmetry           0.0004
  Calculation of real space energy and derivatives                0.0042
  Calculation of real space energy using symmetry                 0.0035
  Calculation for region 1 energy and derivatives (2-b)          13.5555
  Calculation for region 2a energy                                3.6834
  Calculation for region 2b energy                                0.0002
  Calculation and manipulation of Hessian matrix                  0.2823
  Calculation of matrix inversion                                 0.0036
  Symmetry generation of equivalent positions                     0.0068
--------------------------------------------------------------------------------
  Total CPU time                                                 18.3348
--------------------------------------------------------------------------------


  Dump file written as Li3OCl.grs


  Job Finished at 12:29.24  1st December   2020                               

