********************************************************************************
*                       GENERAL UTILITY LATTICE PROGRAM                        *
*                                 Julian Gale                                  *
*                       Curtin Institute for Computation                       *
*                    School of Molecular and Life Sciences                     *
*                    Curtin University, Western Australia                      *
********************************************************************************
* Version = 5.2.0 * Last modified =  10th September 2020                       *
********************************************************************************
*  optimise     - perform optimisation run                                     *
*  conp         - constant pressure calculation                                *
*  property     - calculate properties for final geometry                      *
*  defect       - perform defect calculation after bulk run                    *
*  compare      - compare initial and final structures                         *
********************************************************************************

  Job Started  at 12:29.04  1st December   2020                               

  Number of CPUs =     1


  Total number of configurations input =      1

********************************************************************************
*  Input for Configuration =   1                                               *
********************************************************************************

  Formula = ClOLi3                                                      

  Number of irreducible atoms/shells =       5


  Total number atoms/shells =       7

  Dimensionality = 3               :  Bulk   


  Symmetry :

  Crystal family                   :  Cubic       
  Crystal class  (Groth - 1921)    :  Cubic Hexakisoctahedral              

  Space group (centrosymmetric)    :  P M 3 M         

  Patterson group                  :  P m -3 m 

  Cartesian lattice vectors (Angstroms) :

        3.918873    0.000000    0.000000
        0.000000    3.918873    0.000000
        0.000000    0.000000    3.918873

  Cell parameters (Angstroms/Degrees):

  a =       3.9189    alpha =  90.0000
  b =       3.9189    beta  =  90.0000
  c =       3.9189    gamma =  90.0000

  Initial cell volume =          60.184349 Angs**3

  Temperature of configuration =   0.00     K 

  Pressure of configuration =         0.000 GPa 

  Fractional coordinates of asymmetric unit :

--------------------------------------------------------------------------------
   No.  Atomic       x           y          z         Charge      Occupancy
        Label      (Frac)      (Frac)     (Frac)        (e)         (Frac)  
--------------------------------------------------------------------------------
      1 Cl    c    0.000000    0.000000    0.000000     1.48500    1.000000    
      2 O     c    0.500000    0.500000    0.500000     0.18300    1.000000    
      3 Li    c    0.500000    0.500000    0.000000     1.00000    1.000000    
      4 Cl    s    0.000000    0.000000    0.000000    -2.48500    1.000000    
      5 O     s    0.500000    0.500000    0.500000    -2.18300    1.000000    
--------------------------------------------------------------------------------


  Constraints : 

--------------------------------------------------------------------------------
  Constraint no.      Unconstrained     Constrained    Coefficient    Offset
                         Variable         Variable
--------------------------------------------------------------------------------
           1              Strain 1        Strain 2       1.00000      0.0000
           2              Strain 1        Strain 3       1.00000      0.0000
--------------------------------------------------------------------------------


********************************************************************************
*  General input information                                                   *
********************************************************************************

  Species output for all configurations : 

--------------------------------------------------------------------------------
  Species    Type    Atomic    Atomic    Charge       Radii (Angs)     Library
                     Number     Mass       (e)     Cova   Ionic  VDW   Symbol
--------------------------------------------------------------------------------
    Li       Core        3       6.94   1.000000   0.680  0.000  1.800          
    O        Core        8      16.00   0.183000   0.730  0.000  1.360          
    O        Shell       8       0.00  -2.183000   0.730  0.000  1.360          
    Cl       Core       17      35.45   1.485000   0.990  0.000  1.650          
    Cl       Shell      17       0.00  -2.485000   0.990  0.000  1.650          
    Mg       Core       12      24.31   0.415000   1.100  0.000  0.000          
    Mg       Shell      12       0.00   1.585000   1.100  0.000  0.000          
    Ca       Core       20      40.08  -1.135000   0.990  0.000  0.000          
    Ca       Shell      20       0.00   3.135000   0.990  0.000  0.000          
    Sr       Core       38      87.62  -1.251000   1.120  0.000  0.000          
    Sr       Shell      38       0.00   3.251000   1.120  0.000  0.000          
    Ba       Core       56     137.33  -7.203000   1.340  0.000  0.000          
    Ba       Shell      56       0.00   9.203000   1.340  0.000  0.000          
--------------------------------------------------------------------------------


  Lattice summation method               =    Ewald          (3-D)
                                         =    Parry          (2-D)
                                         =    Saunders et al (1-D)
  Accuracy factor for lattice sums       =   12.000


  Analytic derivatives to be used

  Time limit = Infinity

  Maximum range for interatomic potentials =    100000.000000 Angstroms

  General interatomic potentials :

--------------------------------------------------------------------------------
Atom  Types   Potential      Parameter       Value         Units   Cutoffs(Ang)
  1     2                                                            Min /  Max 
--------------------------------------------------------------------------------
O    c O    s Spring (c-s)  Spring k 2       593.71600    eV*Ang^-2 0.000  0.800
                            Spring k 4       0.0000000    eV*Ang^-4 
--------------------------------------------------------------------------------
Cl   c Cl   s Spring (c-s)  Spring k 2       29.380000    eV*Ang^-2 0.000  0.800
                            Spring k 4       0.0000000    eV*Ang^-4 
--------------------------------------------------------------------------------
Mg   c Mg   s Spring (c-s)  Spring k 2       361.60000    eV*Ang^-2 0.000  0.800
                            Spring k 4       0.0000000    eV*Ang^-4 
--------------------------------------------------------------------------------
Ca   c Ca   s Spring (c-s)  Spring k 2       110.20000    eV*Ang^-2 0.000  0.800
                            Spring k 4       0.0000000    eV*Ang^-4 
--------------------------------------------------------------------------------
Sr   c Sr   s Spring (c-s)  Spring k 2       71.700000    eV*Ang^-2 0.000  0.800
                            Spring k 4       0.0000000    eV*Ang^-4 
--------------------------------------------------------------------------------
Ba   c Ba   s Spring (c-s)  Spring k 2       495.20000    eV*Ang^-2 0.000  0.800
                            Spring k 4       0.0000000    eV*Ang^-4 
--------------------------------------------------------------------------------
Li   c Li   c Buckingham    Buckingham A     360.53000    eV        0.000 12.000
                            Buckingham rho  0.16100000    Ang       
                            Buckingham C     0.0000000    eV*Ang^6  
--------------------------------------------------------------------------------
Li   c O    s Buckingham    Buckingham A     292.30000    eV        0.000 12.000
                            Buckingham rho  0.34700000    Ang       
                            Buckingham C     0.0000000    eV*Ang^6  
--------------------------------------------------------------------------------
Li   c Cl   s Buckingham    Buckingham A     421.04000    eV        0.000 12.000
                            Buckingham rho  0.33400000    Ang       
                            Buckingham C     0.0000000    eV*Ang^6  
--------------------------------------------------------------------------------
O    s O    s Buckingham    Buckingham A     22764.300    eV        0.000 12.000
                            Buckingham rho  0.14900000    Ang       
                            Buckingham C     13.190000    eV*Ang^6  
--------------------------------------------------------------------------------
O    s Cl   s Buckingham    Buckingham A     8286.9100    eV        0.000 12.000
                            Buckingham rho  0.25900000    Ang       
                            Buckingham C     62.200000    eV*Ang^6  
--------------------------------------------------------------------------------
Cl   s Cl   s Buckingham    Buckingham A     1227.2000    eV        0.000 12.000
                            Buckingham rho  0.32100000    Ang       
                            Buckingham C     14.530000    eV*Ang^6  
--------------------------------------------------------------------------------
O    s Mg   s Buckingham    Buckingham A     1428.5000    eV        0.000 12.000
                            Buckingham rho  0.29450000    Ang       
                            Buckingham C     0.0000000    eV*Ang^6  
--------------------------------------------------------------------------------
Mg   s Cl   s Buckingham    Buckingham A     4914.5400    eV        0.000 12.000
                            Buckingham rho  0.25700000    Ang       
                            Buckingham C     0.0000000    eV*Ang^6  
--------------------------------------------------------------------------------
O    s Ca   s Buckingham    Buckingham A     1090.4000    eV        0.000 12.000
                            Buckingham rho  0.34370000    Ang       
                            Buckingham C     0.0000000    eV*Ang^6  
--------------------------------------------------------------------------------
Cl   s Ca   s Buckingham    Buckingham A     2302.0000    eV        0.000 12.000
                            Buckingham rho  0.34020000    Ang       
                            Buckingham C     0.0000000    eV*Ang^6  
--------------------------------------------------------------------------------
O    s Sr   s Buckingham    Buckingham A     959.10000    eV        0.000 12.000
                            Buckingham rho  0.37210000    Ang       
                            Buckingham C     0.0000000    eV*Ang^6  
--------------------------------------------------------------------------------
Cl   s Sr   s Buckingham    Buckingham A     2191.0900    eV        0.000 12.000
                            Buckingham rho  0.34570000    Ang       
                            Buckingham C     0.0000000    eV*Ang^6  
--------------------------------------------------------------------------------
O    s Ba   s Buckingham    Buckingham A     905.70000    eV        0.000 12.000
                            Buckingham rho  0.39760000    Ang       
                            Buckingham C     0.0000000    eV*Ang^6  
--------------------------------------------------------------------------------
Cl   s Ba   s Buckingham    Buckingham A     2704.5500    eV        0.000 12.000
                            Buckingham rho  0.35280000    Ang       
                            Buckingham C     0.0000000    eV*Ang^6  
--------------------------------------------------------------------------------

********************************************************************************
*  Output for configuration   1                                                *
********************************************************************************


  Components of energy : 

--------------------------------------------------------------------------------
  Interatomic potentials     =           7.24802695 eV    
  Monopole - monopole (real) =         -11.53475722 eV    
  Monopole - monopole (recip)=         -33.94580548 eV    
  Monopole - monopole (total)=         -45.48056271 eV    
--------------------------------------------------------------------------------
  Total lattice energy       =         -38.23253575 eV    
--------------------------------------------------------------------------------
  Total lattice energy       =           -3688.8553 kJ/(mole unit cells)
--------------------------------------------------------------------------------


  Number of variables =        1

  Maximum number of calculations  =          1000
  Maximum Hessian update interval =            10
  Maximum step size               =   1.000000000
  Maximum parameter tolerance     =   0.000010000
  Maximum function  tolerance     =   0.000010000
  Maximum gradient  tolerance     =   0.001000000
  Maximum gradient  component     =   0.010000000

  Symmetry constrained optimisation

  Symmetry used for second derivatives

  Cell parameters to be optimised using strains

  Newton-Raphson optimiser to be used

  BFGS hessian update to be used

  Lower half triangular hessian to be used

  Start of bulk optimisation :

  Cycle:      0 Energy:       -38.232536  Gnorm:      0.000019  CPU:    0.006


  **** Optimisation achieved ****


  Final energy =     -38.23253575 eV
  Final Gnorm  =       0.00001878

  Components of energy : 

--------------------------------------------------------------------------------
  Interatomic potentials     =           7.24802695 eV    
  Monopole - monopole (real) =         -11.53475722 eV    
  Monopole - monopole (recip)=         -33.94580548 eV    
  Monopole - monopole (total)=         -45.48056271 eV    
--------------------------------------------------------------------------------
  Total lattice energy       =         -38.23253575 eV    
--------------------------------------------------------------------------------
  Total lattice energy       =           -3688.8553 kJ/(mole unit cells)
--------------------------------------------------------------------------------

  Final asymmetric unit coordinates :

--------------------------------------------------------------------------------
   No.  Atomic        x           y           z         Radius
        Label       (Frac)      (Frac)      (Frac)       (Angs) 
--------------------------------------------------------------------------------
     1  Cl    c     0.000000    0.000000    0.000000    0.000000
     2  O     c     0.500000    0.500000    0.500000    0.000000
     3  Li    c     0.500000    0.500000    0.000000    0.000000
     4  Cl    s     0.000000    0.000000    0.000000    0.000000
     5  O     s     0.500000    0.500000    0.500000    0.000000
--------------------------------------------------------------------------------

  Final Cartesian lattice vectors (Angstroms) :

        3.918873    0.000000    0.000000
        0.000000    3.918873    0.000000
        0.000000    0.000000    3.918873


  Final cell parameters and derivatives :

--------------------------------------------------------------------------------
       a            3.918873 Angstrom     dE/de1(xx)    -0.000019 eV/strain
       b            3.918873 Angstrom     dE/de2(yy)     0.000000 eV/strain
       c            3.918873 Angstrom     dE/de3(zz)     0.000000 eV/strain
       alpha       90.000000 Degrees      dE/de4(yz)     0.000000 eV/strain
       beta        90.000000 Degrees      dE/de5(xz)     0.000000 eV/strain
       gamma       90.000000 Degrees      dE/de6(xy)     0.000000 eV/strain
--------------------------------------------------------------------------------

  Primitive cell volume =            60.184349 Angs**3

  Density of cell =      1.994024 g/cm**3

  Non-primitive cell volume =            60.184349 Angs**3


  Final internal derivatives :

--------------------------------------------------------------------------------
   No.  Atomic          a             b             c           Radius
        Label          (eV)          (eV)          (eV)        (eV/Angs)
--------------------------------------------------------------------------------
      1 Cl    c       0.000000      0.000000      0.000000      0.000000
      2 O     c       0.000000      0.000000      0.000000      0.000000
      3 Li    c       0.000000      0.000000      0.000000      0.000000
      4 Cl    s       0.000000      0.000000      0.000000      0.000000
      5 O     s       0.000000      0.000000      0.000000      0.000000
--------------------------------------------------------------------------------
  Maximum abs         0.000000      0.000000      0.000000      0.000000
--------------------------------------------------------------------------------

  Comparison of initial and final structures : 

--------------------------------------------------------------------------------
  Parameter   Initial value   Final value   Difference    Units      Percent
--------------------------------------------------------------------------------
    Volume        60.184349     60.184349     0.000000    Angs**3      0.00
    a              3.918873      3.918873     0.000000    Angstroms    0.00
    b              3.918873      3.918873     0.000000    Angstroms    0.00
    c              3.918873      3.918873     0.000000    Angstroms    0.00
    alpha         90.000000     90.000000     0.000000    Degrees      0.00
    beta          90.000000     90.000000     0.000000    Degrees      0.00
    gamma         90.000000     90.000000     0.000000    Degrees      0.00
      1 x          0.000000      0.000000     0.000000    Fractional   0.00
      1 y          0.000000      0.000000     0.000000    Fractional   0.00
      1 z          0.000000      0.000000     0.000000    Fractional   0.00
      2 x          0.500000      0.500000     0.000000    Fractional   0.00
      2 y          0.500000      0.500000     0.000000    Fractional   0.00
      2 z          0.500000      0.500000     0.000000    Fractional   0.00
      3 x          0.500000      0.500000     0.000000    Fractional   0.00
      3 y          0.500000      0.500000     0.000000    Fractional   0.00
      3 z          0.000000      0.000000     0.000000    Fractional   0.00
      4 x          0.000000      0.000000     0.000000    Fractional   0.00
      4 y          0.000000      0.000000     0.000000    Fractional   0.00
      4 z          0.000000      0.000000     0.000000    Fractional   0.00
      5 x          0.500000      0.500000     0.000000    Fractional   0.00
      5 y          0.500000      0.500000     0.000000    Fractional   0.00
      5 z          0.500000      0.500000     0.000000    Fractional   0.00
--------------------------------------------------------------------------------


  Born effective charge tensors : 

-------------------------------------------------------------------------------
  Atom             x           y             z
-------------------------------------------------------------------------------
    1 Cl    x      -0.9481      0.0000      0.0000
            y       0.0000     -0.9481      0.0000
            z       0.0000      0.0000     -0.9481
-------------------------------------------------------------------------------
    2 O     x      -2.4696     -0.0000     -0.0000
            y      -0.0000     -2.4696     -0.0000
            z      -0.0000     -0.0000     -2.4696
-------------------------------------------------------------------------------
    3 Li    x       1.3129     -0.0000     -0.0000
            y      -0.0000      1.3129      0.0000
            z      -0.0000     -0.0000      0.7918
-------------------------------------------------------------------------------




  Elastic Constant Matrix: (Units=GPa)

-------------------------------------------------------------------------------
  Indices      1         2         3         4         5         6    
-------------------------------------------------------------------------------
       1     94.4615   45.0779   45.0779    0.0000   -0.0000    0.0000
       2     45.0779   94.4615   45.0779   -0.0000    0.0000   -0.0000
       3     45.0779   45.0779   94.4615   -0.0000   -0.0000   -0.0000
       4      0.0000   -0.0000   -0.0000   45.0779   -0.0000   -0.0000
       5     -0.0000    0.0000   -0.0000   -0.0000   45.0779   -0.0000
       6      0.0000   -0.0000   -0.0000   -0.0000   -0.0000   45.0779
-------------------------------------------------------------------------------


  Elastic Compliance Matrix: (Units=1/GPa)

-------------------------------------------------------------------------------
  Indices      1         2         3         4         5         6    
-------------------------------------------------------------------------------
       1    0.015305 -0.004944 -0.004944 -0.000000  0.000000 -0.000000
       2   -0.004944  0.015305 -0.004944  0.000000 -0.000000  0.000000
       3   -0.004944 -0.004944  0.015305  0.000000  0.000000  0.000000
       4   -0.000000  0.000000  0.000000  0.022184  0.000000  0.000000
       5    0.000000 -0.000000  0.000000  0.000000  0.022184  0.000000
       6   -0.000000  0.000000  0.000000  0.000000  0.000000  0.022184
-------------------------------------------------------------------------------

  Mechanical properties :

-------------------------------------------------------------------------------
  Convention :                    Reuss         Voigt         Hill
-------------------------------------------------------------------------------
  Bulk  Modulus (GPa)     =      61.53912      61.53912      61.53912
  Shear Modulus (GPa)     =      33.88682      36.92346      35.40514
-------------------------------------------------------------------------------
  Velocity S-wave (km/s)  =       4.12240       4.30314       4.21374
  Velocity P-wave (km/s)  =       7.31578       7.45327       7.38484
-------------------------------------------------------------------------------
  Compressibility (1/GPa) =    0.01624983
-------------------------------------------------------------------------------
  Stress axis :                     x             y             z
-------------------------------------------------------------------------------
  Youngs Moduli (GPa)     =      65.33688      65.33688      65.33688
-------------------------------------------------------------------------------
  Poissons Ratio (x)      =                     0.32305       0.32305
  Poissons Ratio (y)      =       0.32305                     0.32305
  Poissons Ratio (z)      =       0.32305       0.32305
-------------------------------------------------------------------------------


  Piezoelectric Strain Matrix: (Units=C/m**2)

-------------------------------------------------------------------------------
  Indices      1         2         3         4         5         6    
-------------------------------------------------------------------------------
       x    -0.00000   0.00000   0.00000   0.00000   0.00000   0.00000
       y    -0.00000  -0.00000  -0.00000   0.00000   0.00000  -0.00000
       z    -0.00000  -0.00000   0.00000   0.00000  -0.00000   0.00000
-------------------------------------------------------------------------------


  Piezoelectric Stress Matrix: (Units=10**-11 C/N)

-------------------------------------------------------------------------------
  Indices      1         2         3         4         5         6    
-------------------------------------------------------------------------------
       x    -0.00000   0.00000   0.00000   0.00000   0.00000   0.00000
       y     0.00000   0.00000  -0.00000   0.00000   0.00000  -0.00000
       z    -0.00000  -0.00000   0.00000   0.00000  -0.00000   0.00000
-------------------------------------------------------------------------------


  Static dielectric constant tensor : 

-------------------------------------------------------------------------------
              x         y         z
-------------------------------------------------------------------------------
       x    12.07041   0.00000   0.00000
       y     0.00000  12.07041   0.00000
       z     0.00000   0.00000  12.07041
--------------------------------------------------------------------------------

  High frequency dielectric constant tensor : 

-------------------------------------------------------------------------------
              x         y         z
-------------------------------------------------------------------------------
       x     1.74197  -0.00000  -0.00000
       y    -0.00000   1.74197  -0.00000
       z    -0.00000  -0.00000   1.74197
-------------------------------------------------------------------------------

  Static refractive indices : 

-------------------------------------------------------------------------------
    1 =    3.47425      2 =    3.47425      3 =    3.47425
-------------------------------------------------------------------------------

  High frequency refractive indices : 

-------------------------------------------------------------------------------
    1 =    1.31984      2 =    1.31984      3 =    1.31984
-------------------------------------------------------------------------------


  Time to end of optimisation =       0.0079 seconds

********************************************************************************
*  Defect calculation for configuration   1 :                                  *
********************************************************************************

  Total number of defects =      1

  Total charge on defect  =   1.00

  Defect centre is at   0.5000   0.5000   0.0000  Frac

  Region 1 radius =  16.0000      Number of ions =   2034

  Number of symmetry inequivalent region 1 ions  =    196

  Region 2 radius =  20.0000      Number of ions =   1870

  Number of symmetry inequivalent region 2a ions =    153

  Region 2a mode = 4 : screened electrostatics due to region 1 
                       neglect correction to region 1 forces from 2a
                       region 2a displacements based on defects only

  Region 2a ions will only interact with defects in region 1

  Impurities:

--------------------------------------------------------------------------------
    Specification type     Symbol/Number         x          y          z
--------------------------------------------------------------------------------
    Frac/Symbol             Ca               0.500000   0.500000   0.000000
--------------------------------------------------------------------------------


  Symmetry reduced region 1 (Relative to defect centre) :

--------------------------------------------------------------------------------
   No.   Atomic       x            y             z       Radius  Multiplicity   
         Label      (Angs)       (Angs)        (Angs)    (Angs)     
--------------------------------------------------------------------------------
     1  Ca    c      0.0000       0.0000       0.0000    0.0000     1    Defect
     2  O     c      0.0000       0.0000      -1.9594 *  0.0000     2          
     3  Cl    c      1.9594 *     1.9594       0.0000    0.0000     4          
     4  Li    c      1.9594 *     0.0000      -1.9594 *  0.0000     8          
     5  Li    c      0.0000       0.0000       3.9189 *  0.0000     2          
     6  Li    c      0.0000       3.9189 *     0.0000    0.0000     4          
     7  O     c      0.0000       3.9189 *    -1.9594 *  0.0000     8          
     8  Cl    c      1.9594 *     1.9594       3.9189 *  0.0000     8          
     9  Li    c      1.9594 *     3.9189 *    -1.9594 *  0.0000    16          
    10  Li    c      0.0000       3.9189 *     3.9189 *  0.0000     8          
    11  Li    c      3.9189 *     3.9189       0.0000    0.0000     4          
    12  O     c      0.0000       0.0000       5.8783 *  0.0000     2          
    13  O     c      3.9189 *     3.9189      -1.9594 *  0.0000     8          
    14  Cl    c      1.9594 *     5.8783 *     0.0000    0.0000     8          
    15  Li    c      1.9594 *     0.0000       5.8783 *  0.0000     8          
    16  Li    c      5.8783 *     0.0000      -1.9594 *  0.0000     8          
    17  Li    c      3.9189 *     3.9189       3.9189 *  0.0000     8          
    18  O     c      0.0000       3.9189 *     5.8783 *  0.0000     8          
    19  Cl    c      1.9594 *     5.8783 *     3.9189 *  0.0000    16          
    20  Li    c      1.9594 *     3.9189 *     5.8783 *  0.0000    16          
    21  Li    c      5.8783 *     3.9189 *    -1.9594 *  0.0000    16          
    22  Li    c      0.0000       7.8377 *     0.0000    0.0000     4          
    23  Li    c      0.0000       0.0000       7.8377 *  0.0000     2          
    24  O     c      0.0000       7.8377 *    -1.9594 *  0.0000     8          
    25  O     c      3.9189 *     3.9189       5.8783 *  0.0000     8          
    26  Li    c      1.9594 *     7.8377 *    -1.9594 *  0.0000    16          
    27  Cl    c      1.9594 *     1.9594       7.8377 *  0.0000     8          
    28  Cl    c      5.8783 *     5.8783       0.0000    0.0000     4          
    29  Li    c      5.8783 *     0.0000       5.8783 *  0.0000     8          
    30  Li    c      0.0000       7.8377 *     3.9189 *  0.0000     8          
    31  Li    c      3.9189 *     7.8377 *     0.0000    0.0000     8          
    32  Li    c      0.0000       3.9189 *     7.8377 *  0.0000     8          
    33  O     c      3.9189 *     7.8377 *    -1.9594 *  0.0000    16          
    34  Cl    c      5.8783 *     5.8783       3.9189 *  0.0000     8          
    35  Li    c      5.8783 *     3.9189 *     5.8783 *  0.0000    16          
    36  Li    c      3.9189 *     7.8377 *     3.9189 *  0.0000    16          
    37  Li    c      3.9189 *     3.9189       7.8377 *  0.0000     8          
    38  O     c      0.0000       0.0000       9.7972 *  0.0000     2          
    39  O     c      0.0000       7.8377 *     5.8783 *  0.0000     8          
    40  Cl    c      1.9594 *     5.8783 *     7.8377 *  0.0000    16          
    41  Cl    c      1.9594 *     9.7972 *     0.0000    0.0000     8          
    42  Li    c      1.9594 *     0.0000       9.7972 *  0.0000     8          
    43  Li    c      1.9594 *     7.8377 *     5.8783 *  0.0000    16          
    44  Li    c      5.8783 *     7.8377 *    -1.9594 *  0.0000    16          
    45  Li    c      9.7972 *     0.0000      -1.9594 *  0.0000     8          
    46  O     c      0.0000       3.9189 *     9.7972 *  0.0000     8          
    47  O     c      3.9189 *     7.8377 *     5.8783 *  0.0000    16          
    48  Li    c      1.9594 *     3.9189 *     9.7972 *  0.0000    16          
    49  Cl    c      1.9594 *     9.7972 *     3.9189 *  0.0000    16          
    50  Li    c      9.7972 *     3.9189 *    -1.9594 *  0.0000    16          
    51  Li    c      7.8377 *     7.8377       0.0000    0.0000     4          
    52  Li    c      0.0000       7.8377 *     7.8377 *  0.0000     8          
    53  O     c      7.8377 *     7.8377      -1.9594 *  0.0000     8          
    54  O     c      3.9189 *     3.9189       9.7972 *  0.0000     8          
    55  Cl    c      5.8783 *     5.8783       7.8377 *  0.0000     8          
    56  Cl    c      5.8783 *     9.7972 *     0.0000    0.0000     8          
    57  Li    c      5.8783 *     0.0000       9.7972 *  0.0000     8          
    58  Li    c      5.8783 *     7.8377 *     5.8783 *  0.0000    16          
    59  Li    c      9.7972 *     0.0000       5.8783 *  0.0000     8          
    60  Li    c      0.0000     -11.7566 *     0.0000    0.0000     4          
    61  Li    c      3.9189 *     7.8377 *     7.8377 *  0.0000    16          
    62  Li    c      7.8377 *     7.8377       3.9189 *  0.0000     8          
    63  Li    c      0.0000       0.0000      11.7566 *  0.0000     2          
    64  O     c      0.0000     -11.7566 *    -1.9594 *  0.0000     8          
    65  Li    c      1.9594 *   -11.7566 *    -1.9594 *  0.0000    16          
    66  Cl    c      5.8783 *     9.7972 *     3.9189 *  0.0000    16          
    67  Li    c      5.8783 *     3.9189 *     9.7972 *  0.0000    16          
    68  Li    c      9.7972 *     3.9189 *     5.8783 *  0.0000    16          
    69  Cl    c      1.9594 *     1.9594      11.7566 *  0.0000     8          
    70  Li    c      0.0000     -11.7566 *     3.9189 *  0.0000     8          
    71  Li    c      3.9189 *   -11.7566 *     0.0000    0.0000     8          
    72  Li    c      0.0000       3.9189 *    11.7566 *  0.0000     8          
    73  O     c      3.9189 *   -11.7566 *    -1.9594 *  0.0000    16          
    74  O     c      0.0000       7.8377 *     9.7972 *  0.0000     8          
    75  O     c      7.8377 *     7.8377       5.8783 *  0.0000     8          
    76  Li    c      1.9594 *     7.8377 *     9.7972 *  0.0000    16          
    77  Li    c      9.7972 *     7.8377 *    -1.9594 *  0.0000    16          
    78  Cl    c      1.9594 *     9.7972 *     7.8377 *  0.0000    16          
    79  Li    c      3.9189 *   -11.7566 *     3.9189 *  0.0000    16          
    80  Li    c      3.9189 *     3.9189      11.7566 *  0.0000     8          
    81  O     c      0.0000     -11.7566 *     5.8783 *  0.0000     8          
    82  O     c      3.9189 *     7.8377 *     9.7972 *  0.0000    16          
    83  Li    c      1.9594 *   -11.7566 *     5.8783 *  0.0000    16          
    84  Li    c      5.8783 *   -11.7566 *    -1.9594 *  0.0000    16          
    85  Cl    c      1.9594 *     5.8783 *    11.7566 *  0.0000    16          
    86  Li    c      7.8377 *     7.8377       7.8377 *  0.0000     8          
    87  O     c      3.9189 *   -11.7566 *     5.8783 *  0.0000    16          
    88  O     c      0.0000       0.0000      13.7161 *  0.0000     2          
    89  Cl    c      1.9594 *   -13.7161 *     0.0000    0.0000     8          
    90  Li    c    -13.7161 *     0.0000      -1.9594 *  0.0000     8          
    91  Cl    c      9.7972 *     9.7972       0.0000    0.0000     4          
    92  Li    c      1.9594 *     0.0000      13.7161 *  0.0000     8          
    93  Li    c      5.8783 *     7.8377 *     9.7972 *  0.0000    16          
    94  Li    c      9.7972 *     0.0000       9.7972 *  0.0000     8          
    95  Li    c      9.7972 *     7.8377 *     5.8783 *  0.0000    16          
    96  Cl    c      5.8783 *     9.7972 *     7.8377 *  0.0000    16          
    97  Li    c      7.8377 *   -11.7566 *     0.0000    0.0000     8          
    98  Li    c      0.0000     -11.7566 *     7.8377 *  0.0000     8          
    99  Li    c      0.0000       7.8377 *    11.7566 *  0.0000     8          
   100  O     c      7.8377 *   -11.7566 *    -1.9594 *  0.0000    16          
   101  O     c      0.0000       3.9189 *    13.7161 *  0.0000     8          
   102  Cl    c      1.9594 *   -13.7161 *     3.9189 *  0.0000    16          
   103  Li    c    -13.7161 *     3.9189 *    -1.9594 *  0.0000    16          
   104  Li    c      5.8783 *   -11.7566 *     5.8783 *  0.0000    16          
   105  Cl    c      9.7972 *     9.7972       3.9189 *  0.0000     8          
   106  Li    c      9.7972 *     3.9189 *     9.7972 *  0.0000    16          
   107  Li    c      1.9594 *     3.9189 *    13.7161 *  0.0000    16          
   108  Cl    c      5.8783 *     5.8783      11.7566 *  0.0000     8          
   109  Li    c      7.8377 *   -11.7566 *     3.9189 *  0.0000    16          
   110  Li    c      3.9189 *   -11.7566 *     7.8377 *  0.0000    16          
   111  Li    c      3.9189 *     7.8377 *    11.7566 *  0.0000    16          
   112  O     c      7.8377 *     7.8377       9.7972 *  0.0000     8          
   113  O     c      3.9189 *     3.9189      13.7161 *  0.0000     8          
   114  Cl    c      5.8783 *   -13.7161 *     0.0000    0.0000     8          
   115  Li    c    -13.7161 *     0.0000       5.8783 *  0.0000     8          
   116  Li    c      5.8783 *     0.0000      13.7161 *  0.0000     8          
   117  O     c      0.0000     -11.7566 *     9.7972 *  0.0000     8          
   118  O     c      7.8377 *   -11.7566 *     5.8783 *  0.0000    16          
   119  Cl    c      5.8783 *   -13.7161 *     3.9189 *  0.0000    16          
   120  Li    c      9.7972 *   -11.7566 *    -1.9594 *  0.0000    16          
   121  Li    c    -13.7161 *     3.9189 *     5.8783 *  0.0000    16          
   122  Li    c      1.9594 *   -11.7566 *     9.7972 *  0.0000    16          
   123  Cl    c      1.9594 *     9.7972 *    11.7566 *  0.0000    16          
   124  Li    c      5.8783 *     3.9189 *    13.7161 *  0.0000    16          
   125  Li    c      0.0000       0.0000      15.6755 *  0.0000     2          
   126  Li    c      0.0000      15.6755 *     0.0000    0.0000     4          
   127  O     c      3.9189 *   -11.7566 *     9.7972 *  0.0000    16          
   128  O     c      0.0000       7.8377 *    13.7161 *  0.0000     8          
   129  O     c      0.0000      15.6755 *    -1.9594 *  0.0000     8          
   130  Li    c    -13.7161 *     7.8377 *    -1.9594 *  0.0000    16          
   131  Cl    c      1.9594 *   -13.7161 *     7.8377 *  0.0000    16          
   132  Li    c      1.9594 *     7.8377 *    13.7161 *  0.0000    16          
   133  Li    c      9.7972 *     7.8377 *     9.7972 *  0.0000    16          
   134  Cl    c      9.7972 *     9.7972       7.8377 *  0.0000     8          
   135  Li    c      1.9594 *    15.6755 *    -1.9594 *  0.0000    16          
   136  Cl    c      1.9594 *     1.9594      15.6755 *  0.0000     8          
   137  Ca    s      0.0000       0.0000       0.0000    0.0000     1    Defect
   138  O     s      0.0000       0.0000      -1.9594 *  0.0000     2          
   139  Cl    s      1.9594 *     1.9594       0.0000    0.0000     4          
   140  O     s      0.0000       3.9189 *    -1.9594 *  0.0000     8          
   141  Cl    s      1.9594 *     1.9594       3.9189 *  0.0000     8          
   142  O     s      0.0000       0.0000       5.8783 *  0.0000     2          
   143  O     s      3.9189 *     3.9189      -1.9594 *  0.0000     8          
   144  Cl    s      1.9594 *     5.8783 *     0.0000    0.0000     8          
   145  O     s      0.0000       3.9189 *     5.8783 *  0.0000     8          
   146  Cl    s      1.9594 *     5.8783 *     3.9189 *  0.0000    16          
   147  O     s      0.0000       7.8377 *    -1.9594 *  0.0000     8          
   148  O     s      3.9189 *     3.9189       5.8783 *  0.0000     8          
   149  Cl    s      1.9594 *     1.9594       7.8377 *  0.0000     8          
   150  Cl    s      5.8783 *     5.8783       0.0000    0.0000     4          
   151  O     s      3.9189 *     7.8377 *    -1.9594 *  0.0000    16          
   152  Cl    s      5.8783 *     5.8783       3.9189 *  0.0000     8          
   153  O     s      0.0000       0.0000       9.7972 *  0.0000     2          
   154  O     s      0.0000       7.8377 *     5.8783 *  0.0000     8          
   155  Cl    s      1.9594 *     5.8783 *     7.8377 *  0.0000    16          
   156  Cl    s      1.9594 *     9.7972 *     0.0000    0.0000     8          
   157  O     s      0.0000       3.9189 *     9.7972 *  0.0000     8          
   158  O     s      3.9189 *     7.8377 *     5.8783 *  0.0000    16          
   159  Cl    s      1.9594 *     9.7972 *     3.9189 *  0.0000    16          
   160  O     s      7.8377 *     7.8377      -1.9594 *  0.0000     8          
   161  O     s      3.9189 *     3.9189       9.7972 *  0.0000     8          
   162  Cl    s      5.8783 *     5.8783       7.8377 *  0.0000     8          
   163  Cl    s      5.8783 *     9.7972 *     0.0000    0.0000     8          
   164  O     s      0.0000     -11.7566 *    -1.9594 *  0.0000     8          
   165  Cl    s      5.8783 *     9.7972 *     3.9189 *  0.0000    16          
   166  Cl    s      1.9594 *     1.9594      11.7566 *  0.0000     8          
   167  O     s      3.9189 *   -11.7566 *    -1.9594 *  0.0000    16          
   168  O     s      0.0000       7.8377 *     9.7972 *  0.0000     8          
   169  O     s      7.8377 *     7.8377       5.8783 *  0.0000     8          
   170  Cl    s      1.9594 *     9.7972 *     7.8377 *  0.0000    16          
   171  O     s      0.0000     -11.7566 *     5.8783 *  0.0000     8          
   172  O     s      3.9189 *     7.8377 *     9.7972 *  0.0000    16          
   173  Cl    s      1.9594 *     5.8783 *    11.7566 *  0.0000    16          
   174  O     s      3.9189 *   -11.7566 *     5.8783 *  0.0000    16          
   175  O     s      0.0000       0.0000      13.7161 *  0.0000     2          
   176  Cl    s      1.9594 *   -13.7161 *     0.0000    0.0000     8          
   177  Cl    s      9.7972 *     9.7972       0.0000    0.0000     4          
   178  Cl    s      5.8783 *     9.7972 *     7.8377 *  0.0000    16          
   179  O     s      7.8377 *   -11.7566 *    -1.9594 *  0.0000    16          
   180  O     s      0.0000       3.9189 *    13.7161 *  0.0000     8          
   181  Cl    s      1.9594 *   -13.7161 *     3.9189 *  0.0000    16          
   182  Cl    s      9.7972 *     9.7972       3.9189 *  0.0000     8          
   183  Cl    s      5.8783 *     5.8783      11.7566 *  0.0000     8          
   184  O     s      7.8377 *     7.8377       9.7972 *  0.0000     8          
   185  O     s      3.9189 *     3.9189      13.7161 *  0.0000     8          
   186  Cl    s      5.8783 *   -13.7161 *     0.0000    0.0000     8          
   187  O     s      0.0000     -11.7566 *     9.7972 *  0.0000     8          
   188  O     s      7.8377 *   -11.7566 *     5.8783 *  0.0000    16          
   189  Cl    s      5.8783 *   -13.7161 *     3.9189 *  0.0000    16          
   190  Cl    s      1.9594 *     9.7972 *    11.7566 *  0.0000    16          
   191  O     s      3.9189 *   -11.7566 *     9.7972 *  0.0000    16          
   192  O     s      0.0000       7.8377 *    13.7161 *  0.0000     8          
   193  O     s      0.0000      15.6755 *    -1.9594 *  0.0000     8          
   194  Cl    s      1.9594 *   -13.7161 *     7.8377 *  0.0000    16          
   195  Cl    s      9.7972 *     9.7972       7.8377 *  0.0000     8          
   196  Cl    s      1.9594 *     1.9594      15.6755 *  0.0000     8          
--------------------------------------------------------------------------------


  Constraints on symmetry reduced coordinates :

--------------------------------------------------------------------------------
  Constraint no.      Unconstrained     Constrained    Coefficient    
                         Variable         Variable
--------------------------------------------------------------------------------
           1                 3 x             3 y         1.00000
           2                 8 x             8 y         1.00000
           3                11 x            11 y         1.00000
           4                13 x            13 y         1.00000
           5                17 x            17 y         1.00000
           6                25 x            25 y         1.00000
           7                27 x            27 y         1.00000
           8                28 x            28 y         1.00000
           9                34 x            34 y         1.00000
          10                37 x            37 y         1.00000
          11                51 x            51 y         1.00000
          12                53 x            53 y         1.00000
          13                54 x            54 y         1.00000
          14                55 x            55 y         1.00000
          15                62 x            62 y         1.00000
          16                69 x            69 y         1.00000
          17                75 x            75 y         1.00000
          18                80 x            80 y         1.00000
          19                86 x            86 y         1.00000
          20                91 x            91 y         1.00000
          21               105 x           105 y         1.00000
          22               108 x           108 y         1.00000
          23               112 x           112 y         1.00000
          24               113 x           113 y         1.00000
          25               134 x           134 y         1.00000
          26               136 x           136 y         1.00000
          27               139 x           139 y         1.00000
          28               141 x           141 y         1.00000
          29               143 x           143 y         1.00000
          30               148 x           148 y         1.00000
          31               149 x           149 y         1.00000
          32               150 x           150 y         1.00000
          33               152 x           152 y         1.00000
          34               160 x           160 y         1.00000
          35               161 x           161 y         1.00000
          36               162 x           162 y         1.00000
          37               166 x           166 y         1.00000
          38               169 x           169 y         1.00000
          39               177 x           177 y         1.00000
          40               182 x           182 y         1.00000
          41               183 x           183 y         1.00000
          42               184 x           184 y         1.00000
          43               185 x           185 y         1.00000
          44               195 x           195 y         1.00000
          45               196 x           196 y         1.00000
--------------------------------------------------------------------------------


  Components of defect energy : 

--------------------------------------------------------------------------------
  Region 1 - region 1                   =    -21.39460106 eV
  Region 1 - region 2a (unrelaxed)      =     17.04107169 eV
  Region 1 - 2a (relaxed - correction)  =     -0.15918559 eV
  Region 1 (Total)                      =     -4.51271496 eV
  Region 2a                             =      0.07959844 eV
  Region 2b                             =     -0.33005010 eV
--------------------------------------------------------------------------------
  Total defect energy                   =     -4.76316661 eV
--------------------------------------------------------------------------------

  Largest displacement in region 2 =   0.0049 Angstroms


  Number of variables =      439

  Maximum number of calculations  =        1000
  Maximum Hessian update interval =          10
  Maximum step size               =   1.0000000
  Maximum parameter tolerance     =   0.0000100
  Maximum function  tolerance     =   0.0000100
  Maximum gradient  tolerance     =   0.0010000

  Symmetry adapted optimisation

  Symmetry to be used for second derivatives

  Newton-Raphson optimiser to be used

  BFGS hessian update to be used

  Lower half triangular hessian to be used

  Start of defect optimisation :

  Cycle:      0 Defect Energy:  -4.763167  Gnorm:     0.110831  CPU:    9.488
  ** Hessian calculated **
  Cycle:      1 Defect Energy:  -8.195213  Gnorm:     0.005731  CPU:   17.290
  Cycle:      2 Defect Energy:  -8.222093  Gnorm:     0.004177  CPU:   18.917
  Cycle:      3 Defect Energy:  -8.236422  Gnorm:     0.002898  CPU:   20.447
  Cycle:      4 Defect Energy:  -8.243473  Gnorm:     0.002030  CPU:   21.401
  Cycle:      5 Defect Energy:  -8.246986  Gnorm:     0.001423  CPU:   22.894
  Cycle:      6 Defect Energy:  -8.248739  Gnorm:     0.000997  CPU:   24.467
  Cycle:      7 Defect Energy:  -8.249613  Gnorm:     0.000699  CPU:   26.073
  Cycle:      8 Defect Energy:  -8.250050  Gnorm:     0.000489  CPU:   27.596
  Cycle:      9 Defect Energy:  -8.250269  Gnorm:     0.000343  CPU:   29.091
  Cycle:     10 Defect Energy:  -8.250380  Gnorm:     0.000240  CPU:   30.942
  ** Hessian calculated **
  Cycle:     11 Defect Energy:  -8.250436  Gnorm:     0.000168  CPU:   35.985
  Cycle:     12 Defect Energy:  -8.250465  Gnorm:     0.000118  CPU:   37.662
  Cycle:     13 Defect Energy:  -8.250481  Gnorm:     0.000082  CPU:   39.296
  Cycle:     14 Defect Energy:  -8.250489  Gnorm:     0.000058  CPU:   40.897


  **** Optimisation achieved ****


  Final defect energy  =       -8.25049334
  Final defect Gnorm   =        0.00004035

  Components of defect energy : 

--------------------------------------------------------------------------------
  Region 1 - region 1                   =    -25.21976461 eV
  Region 1 - region 2a (unrelaxed)      =     17.36347549 eV
  Region 1 - 2a (relaxed - correction)  =     -0.12829547 eV
  Region 1 (Total)                      =     -7.98458459 eV
  Region 2a                             =      0.06414135 eV
  Region 2b                             =     -0.33005010 eV
--------------------------------------------------------------------------------
  Total defect energy                   =     -8.25049334 eV
--------------------------------------------------------------------------------

  Largest displacement in region 2 =   0.0049 Angstroms

  Final coordinates of region 1 :

--------------------------------------------------------------------------------
   No.  Atomic        x           y           z          Radius      Charge
        Label       (Angs)      (Angs)      (Angs)       (Angs)       (e) 
--------------------------------------------------------------------------------
     1  Ca    c     1.959436    1.959436    0.000000    0.000000   -1.135000
     2  O     c     1.959436    1.959436   -2.097631    0.000000    0.183000
     3  O     c     1.959436    1.959436    2.097631    0.000000    0.183000
     4  Cl    c     4.002414    4.002414    0.000000    0.000000    1.485000
     5  Cl    c     4.002414   -0.083541    0.000000    0.000000    1.485000
     6  Cl    c    -0.083541    4.002414    0.000000    0.000000    1.485000
     7  Cl    c    -0.083541   -0.083541    0.000000    0.000000    1.485000
     8  Li    c     4.022551    1.959436   -2.271277    0.000000    1.000000
     9  Li    c     4.022551    1.959436    2.271277    0.000000    1.000000
    10  Li    c    -0.103678    1.959436   -2.271277    0.000000    1.000000
    11  Li    c    -0.103678    1.959436    2.271277    0.000000    1.000000
    12  Li    c     1.959436    4.022551   -2.271277    0.000000    1.000000
    13  Li    c     1.959436    4.022551    2.271277    0.000000    1.000000
    14  Li    c     1.959436   -0.103678   -2.271277    0.000000    1.000000
    15  Li    c     1.959436   -0.103678    2.271277    0.000000    1.000000
    16  Li    c     1.959436    1.959436    4.047122    0.000000    1.000000
    17  Li    c     1.959436    1.959436   -4.047122    0.000000    1.000000
    18  Li    c     1.959436    5.865600    0.000000    0.000000    1.000000
    19  Li    c     1.959436   -1.946727    0.000000    0.000000    1.000000
    20  Li    c     5.865600    1.959436    0.000000    0.000000    1.000000
    21  Li    c    -1.946727    1.959436    0.000000    0.000000    1.000000
    22  O     c     1.959436    5.879748   -1.994431    0.000000    0.183000
    23  O     c     1.959436    5.879748    1.994431    0.000000    0.183000
    24  O     c     1.959436   -1.960875   -1.994431    0.000000    0.183000
    25  O     c     1.959436   -1.960875    1.994431    0.000000    0.183000
    26  O     c     5.879748    1.959436   -1.994431    0.000000    0.183000
    27  O     c     5.879748    1.959436    1.994431    0.000000    0.183000
    28  O     c    -1.960875    1.959436   -1.994431    0.000000    0.183000
    29  O     c    -1.960875    1.959436    1.994431    0.000000    0.183000
    30  Cl    c     3.920312    3.920312    3.948605    0.000000    1.485000
    31  Cl    c     3.920312    3.920312   -3.948605    0.000000    1.485000
    32  Cl    c     3.920312   -0.001439    3.948605    0.000000    1.485000
    33  Cl    c     3.920312   -0.001439   -3.948605    0.000000    1.485000
    34  Cl    c    -0.001439    3.920312    3.948605    0.000000    1.485000
    35  Cl    c    -0.001439    3.920312   -3.948605    0.000000    1.485000
    36  Cl    c    -0.001439   -0.001439    3.948605    0.000000    1.485000
    37  Cl    c    -0.001439   -0.001439   -3.948605    0.000000    1.485000
    38  Li    c     3.937638    5.916677   -1.966461    0.000000    1.000000
    39  Li    c     3.937638    5.916677    1.966461    0.000000    1.000000
    40  Li    c     3.937638   -1.997804   -1.966461    0.000000    1.000000
    41  Li    c     3.937638   -1.997804    1.966461    0.000000    1.000000
    42  Li    c    -0.018765    5.916677   -1.966461    0.000000    1.000000
    43  Li    c    -0.018765    5.916677    1.966461    0.000000    1.000000
    44  Li    c    -0.018765   -1.997804   -1.966461    0.000000    1.000000
    45  Li    c    -0.018765   -1.997804    1.966461    0.000000    1.000000
    46  Li    c     5.916677    3.937638   -1.966461    0.000000    1.000000
    47  Li    c     5.916677    3.937638    1.966461    0.000000    1.000000
    48  Li    c     5.916677   -0.018765   -1.966461    0.000000    1.000000
    49  Li    c     5.916677   -0.018765    1.966461    0.000000    1.000000
    50  Li    c    -1.997804    3.937638   -1.966461    0.000000    1.000000
    51  Li    c    -1.997804    3.937638    1.966461    0.000000    1.000000
    52  Li    c    -1.997804   -0.018765   -1.966461    0.000000    1.000000
    53  Li    c    -1.997804   -0.018765    1.966461    0.000000    1.000000
    54  Li    c     1.959436    6.013744    3.977489    0.000000    1.000000
    55  Li    c     1.959436    6.013744   -3.977489    0.000000    1.000000
    56  Li    c     1.959436   -2.094871    3.977489    0.000000    1.000000
    57  Li    c     1.959436   -2.094871   -3.977489    0.000000    1.000000
    58  Li    c     6.013744    1.959436    3.977489    0.000000    1.000000
    59  Li    c     6.013744    1.959436   -3.977489    0.000000    1.000000
    60  Li    c    -2.094871    1.959436    3.977489    0.000000    1.000000
    61  Li    c    -2.094871    1.959436   -3.977489    0.000000    1.000000
    62  Li    c     5.908681    5.908681    0.000000    0.000000    1.000000
    63  Li    c     5.908681   -1.989808    0.000000    0.000000    1.000000
    64  Li    c    -1.989808    5.908681    0.000000    0.000000    1.000000
    65  Li    c    -1.989808   -1.989808    0.000000    0.000000    1.000000
    66  O     c     1.959436    1.959436    5.921059    0.000000    0.183000
    67  O     c     1.959436    1.959436   -5.921059    0.000000    0.183000
    68  O     c     5.889489    5.889489   -1.970688    0.000000    0.183000
    69  O     c     5.889489    5.889489    1.970688    0.000000    0.183000
    70  O     c     5.889489   -1.970616   -1.970688    0.000000    0.183000
    71  O     c     5.889489   -1.970616    1.970688    0.000000    0.183000
    72  O     c    -1.970616    5.889489   -1.970688    0.000000    0.183000
    73  O     c    -1.970616    5.889489    1.970688    0.000000    0.183000
    74  O     c    -1.970616   -1.970616   -1.970688    0.000000    0.183000
    75  O     c    -1.970616   -1.970616    1.970688    0.000000    0.183000
    76  Cl    c     3.909045    7.822338    0.000000    0.000000    1.485000
    77  Cl    c     3.909045   -3.903465    0.000000    0.000000    1.485000
    78  Cl    c     7.822338    3.909045    0.000000    0.000000    1.485000
    79  Cl    c     7.822338    0.009828    0.000000    0.000000    1.485000
    80  Cl    c     0.009828    7.822338    0.000000    0.000000    1.485000
    81  Cl    c     0.009828   -3.903465    0.000000    0.000000    1.485000
    82  Cl    c    -3.903465    3.909045    0.000000    0.000000    1.485000
    83  Cl    c    -3.903465    0.009828    0.000000    0.000000    1.485000
    84  Li    c     3.941765    1.959436    5.933966    0.000000    1.000000
    85  Li    c     3.941765    1.959436   -5.933966    0.000000    1.000000
    86  Li    c    -0.022892    1.959436    5.933966    0.000000    1.000000
    87  Li    c    -0.022892    1.959436   -5.933966    0.000000    1.000000
    88  Li    c     1.959436    3.941765    5.933966    0.000000    1.000000
    89  Li    c     1.959436    3.941765   -5.933966    0.000000    1.000000
    90  Li    c     1.959436   -0.022892    5.933966    0.000000    1.000000
    91  Li    c     1.959436   -0.022892   -5.933966    0.000000    1.000000
    92  Li    c     7.852903    1.959436   -1.942291    0.000000    1.000000
    93  Li    c     7.852903    1.959436    1.942291    0.000000    1.000000
    94  Li    c    -3.934030    1.959436   -1.942291    0.000000    1.000000
    95  Li    c    -3.934030    1.959436    1.942291    0.000000    1.000000
    96  Li    c     1.959436    7.852903   -1.942291    0.000000    1.000000
    97  Li    c     1.959436    7.852903    1.942291    0.000000    1.000000
    98  Li    c     1.959436   -3.934030   -1.942291    0.000000    1.000000
    99  Li    c     1.959436   -3.934030    1.942291    0.000000    1.000000
   100  Li    c     5.893035    5.893035    3.933575    0.000000    1.000000
   101  Li    c     5.893035    5.893035   -3.933575    0.000000    1.000000
   102  Li    c     5.893035   -1.974162    3.933575    0.000000    1.000000
   103  Li    c     5.893035   -1.974162   -3.933575    0.000000    1.000000
   104  Li    c    -1.974162    5.893035    3.933575    0.000000    1.000000
   105  Li    c    -1.974162    5.893035   -3.933575    0.000000    1.000000
   106  Li    c    -1.974162   -1.974162    3.933575    0.000000    1.000000
   107  Li    c    -1.974162   -1.974162   -3.933575    0.000000    1.000000
   108  O     c     1.959436    5.898921    5.901418    0.000000    0.183000
   109  O     c     1.959436    5.898921   -5.901418    0.000000    0.183000
   110  O     c     1.959436   -1.980048    5.901418    0.000000    0.183000
   111  O     c     1.959436   -1.980048   -5.901418    0.000000    0.183000
   112  O     c     5.898921    1.959436    5.901418    0.000000    0.183000
   113  O     c     5.898921    1.959436   -5.901418    0.000000    0.183000
   114  O     c    -1.980048    1.959436    5.901418    0.000000    0.183000
   115  O     c    -1.980048    1.959436   -5.901418    0.000000    0.183000
   116  Cl    c     3.916613    7.837030    3.925028    0.000000    1.485000
   117  Cl    c     3.916613    7.837030   -3.925028    0.000000    1.485000
   118  Cl    c     3.916613   -3.918157    3.925028    0.000000    1.485000
   119  Cl    c     3.916613   -3.918157   -3.925028    0.000000    1.485000
   120  Cl    c     7.837030    3.916613    3.925028    0.000000    1.485000
   121  Cl    c     7.837030    3.916613   -3.925028    0.000000    1.485000
   122  Cl    c     7.837030    0.002260    3.925028    0.000000    1.485000
   123  Cl    c     7.837030    0.002260   -3.925028    0.000000    1.485000
   124  Cl    c     0.002260    7.837030    3.925028    0.000000    1.485000
   125  Cl    c     0.002260    7.837030   -3.925028    0.000000    1.485000
   126  Cl    c     0.002260   -3.918157    3.925028    0.000000    1.485000
   127  Cl    c     0.002260   -3.918157   -3.925028    0.000000    1.485000
   128  Cl    c    -3.918157    3.916613    3.925028    0.000000    1.485000
   129  Cl    c    -3.918157    3.916613   -3.925028    0.000000    1.485000
   130  Cl    c    -3.918157    0.002260    3.925028    0.000000    1.485000
   131  Cl    c    -3.918157    0.002260   -3.925028    0.000000    1.485000
   132  Li    c     3.927975    5.896113    5.910538    0.000000    1.000000
   133  Li    c     3.927975    5.896113   -5.910538    0.000000    1.000000
   134  Li    c     3.927975   -1.977240    5.910538    0.000000    1.000000
   135  Li    c     3.927975   -1.977240   -5.910538    0.000000    1.000000
   136  Li    c    -0.009102    5.896113    5.910538    0.000000    1.000000
   137  Li    c    -0.009102    5.896113   -5.910538    0.000000    1.000000
   138  Li    c    -0.009102   -1.977240    5.910538    0.000000    1.000000
   139  Li    c    -0.009102   -1.977240   -5.910538    0.000000    1.000000
   140  Li    c     5.896113    3.927975    5.910538    0.000000    1.000000
   141  Li    c     5.896113    3.927975   -5.910538    0.000000    1.000000
   142  Li    c     5.896113   -0.009102    5.910538    0.000000    1.000000
   143  Li    c     5.896113   -0.009102   -5.910538    0.000000    1.000000
   144  Li    c    -1.977240    3.927975    5.910538    0.000000    1.000000
   145  Li    c    -1.977240    3.927975   -5.910538    0.000000    1.000000
   146  Li    c    -1.977240   -0.009102    5.910538    0.000000    1.000000
   147  Li    c    -1.977240   -0.009102   -5.910538    0.000000    1.000000
   148  Li    c     7.851722    5.897126   -1.971717    0.000000    1.000000
   149  Li    c     7.851722    5.897126    1.971717    0.000000    1.000000
   150  Li    c     7.851722   -1.978253   -1.971717    0.000000    1.000000
   151  Li    c     7.851722   -1.978253    1.971717    0.000000    1.000000
   152  Li    c    -3.932849    5.897126   -1.971717    0.000000    1.000000
   153  Li    c    -3.932849    5.897126    1.971717    0.000000    1.000000
   154  Li    c    -3.932849   -1.978253   -1.971717    0.000000    1.000000
   155  Li    c    -3.932849   -1.978253    1.971717    0.000000    1.000000
   156  Li    c     5.897126    7.851722   -1.971717    0.000000    1.000000
   157  Li    c     5.897126    7.851722    1.971717    0.000000    1.000000
   158  Li    c     5.897126   -3.932849   -1.971717    0.000000    1.000000
   159  Li    c     5.897126   -3.932849    1.971717    0.000000    1.000000
   160  Li    c    -1.978253    7.851722   -1.971717    0.000000    1.000000
   161  Li    c    -1.978253    7.851722    1.971717    0.000000    1.000000
   162  Li    c    -1.978253   -3.932849   -1.971717    0.000000    1.000000
   163  Li    c    -1.978253   -3.932849    1.971717    0.000000    1.000000
   164  Li    c     1.959436    9.821147    0.000000    0.000000    1.000000
   165  Li    c     9.821147    1.959436    0.000000    0.000000    1.000000
   166  Li    c     1.959436   -5.902274    0.000000    0.000000    1.000000
   167  Li    c    -5.902274    1.959436    0.000000    0.000000    1.000000
   168  Li    c     1.959436    1.959436    7.864468    0.000000    1.000000
   169  Li    c     1.959436    1.959436   -7.864468    0.000000    1.000000
   170  O     c     1.959436    9.797122   -1.959540    0.000000    0.183000
   171  O     c     1.959436    9.797122    1.959540    0.000000    0.183000
   172  O     c     9.797122    1.959436   -1.959540    0.000000    0.183000
   173  O     c     9.797122    1.959436    1.959540    0.000000    0.183000
   174  O     c     1.959436   -5.878249   -1.959540    0.000000    0.183000
   175  O     c     1.959436   -5.878249    1.959540    0.000000    0.183000
   176  O     c    -5.878249    1.959436   -1.959540    0.000000    0.183000
   177  O     c    -5.878249    1.959436    1.959540    0.000000    0.183000
   178  O     c     5.881716    5.881716    5.886802    0.000000    0.183000
   179  O     c     5.881716    5.881716   -5.886802    0.000000    0.183000
   180  O     c     5.881716   -1.962843    5.886802    0.000000    0.183000
   181  O     c     5.881716   -1.962843   -5.886802    0.000000    0.183000
   182  O     c    -1.962843    5.881716    5.886802    0.000000    0.183000
   183  O     c    -1.962843    5.881716   -5.886802    0.000000    0.183000
   184  O     c    -1.962843   -1.962843    5.886802    0.000000    0.183000
   185  O     c    -1.962843   -1.962843   -5.886802    0.000000    0.183000
   186  Li    c     3.921127    9.808617   -1.964146    0.000000    1.000000
   187  Li    c     3.921127    9.808617    1.964146    0.000000    1.000000
   188  Li    c    -0.002254    9.808617   -1.964146    0.000000    1.000000
   189  Li    c    -0.002254    9.808617    1.964146    0.000000    1.000000
   190  Li    c     9.808617    3.921127   -1.964146    0.000000    1.000000
   191  Li    c     9.808617    3.921127    1.964146    0.000000    1.000000
   192  Li    c     9.808617   -0.002254   -1.964146    0.000000    1.000000
   193  Li    c     9.808617   -0.002254    1.964146    0.000000    1.000000
   194  Li    c     3.921127   -5.889744   -1.964146    0.000000    1.000000
   195  Li    c     3.921127   -5.889744    1.964146    0.000000    1.000000
   196  Li    c    -0.002254   -5.889744   -1.964146    0.000000    1.000000
   197  Li    c    -0.002254   -5.889744    1.964146    0.000000    1.000000
   198  Li    c    -5.889744    3.921127   -1.964146    0.000000    1.000000
   199  Li    c    -5.889744    3.921127    1.964146    0.000000    1.000000
   200  Li    c    -5.889744   -0.002254   -1.964146    0.000000    1.000000
   201  Li    c    -5.889744   -0.002254    1.964146    0.000000    1.000000
   202  Cl    c     3.922823    3.922823    7.840626    0.000000    1.485000
   203  Cl    c     3.922823    3.922823   -7.840626    0.000000    1.485000
   204  Cl    c     3.922823   -0.003950    7.840626    0.000000    1.485000
   205  Cl    c     3.922823   -0.003950   -7.840626    0.000000    1.485000
   206  Cl    c    -0.003950    3.922823    7.840626    0.000000    1.485000
   207  Cl    c    -0.003950    3.922823   -7.840626    0.000000    1.485000
   208  Cl    c    -0.003950   -0.003950    7.840626    0.000000    1.485000
   209  Cl    c    -0.003950   -0.003950   -7.840626    0.000000    1.485000
   210  Cl    c     7.835417    7.835417    0.000000    0.000000    1.485000
   211  Cl    c     7.835417   -3.916544    0.000000    0.000000    1.485000
   212  Cl    c    -3.916544    7.835417    0.000000    0.000000    1.485000
   213  Cl    c    -3.916544   -3.916544    0.000000    0.000000    1.485000
   214  Li    c     7.866782    1.959436    5.941852    0.000000    1.000000
   215  Li    c     7.866782    1.959436   -5.941852    0.000000    1.000000
   216  Li    c    -3.947909    1.959436    5.941852    0.000000    1.000000
   217  Li    c    -3.947909    1.959436   -5.941852    0.000000    1.000000
   218  Li    c     1.959436    7.866782    5.941852    0.000000    1.000000
   219  Li    c     1.959436    7.866782   -5.941852    0.000000    1.000000
   220  Li    c     1.959436   -3.947909    5.941852    0.000000    1.000000
   221  Li    c     1.959436   -3.947909   -5.941852    0.000000    1.000000
   222  Li    c     1.959436    9.797590    3.926238    0.000000    1.000000
   223  Li    c     1.959436    9.797590   -3.926238    0.000000    1.000000
   224  Li    c     9.797590    1.959436    3.926238    0.000000    1.000000
   225  Li    c     9.797590    1.959436   -3.926238    0.000000    1.000000
   226  Li    c     1.959436   -5.878717    3.926238    0.000000    1.000000
   227  Li    c     1.959436   -5.878717   -3.926238    0.000000    1.000000
   228  Li    c    -5.878717    1.959436    3.926238    0.000000    1.000000
   229  Li    c    -5.878717    1.959436   -3.926238    0.000000    1.000000
   230  Li    c     5.881830    9.805235    0.000000    0.000000    1.000000
   231  Li    c     9.805235    5.881830    0.000000    0.000000    1.000000
   232  Li    c     9.805235   -1.962957    0.000000    0.000000    1.000000
   233  Li    c    -1.962957    9.805235    0.000000    0.000000    1.000000
   234  Li    c     5.881830   -5.886362    0.000000    0.000000    1.000000
   235  Li    c    -1.962957   -5.886362    0.000000    0.000000    1.000000
   236  Li    c    -5.886362    5.881830    0.000000    0.000000    1.000000
   237  Li    c    -5.886362   -1.962957    0.000000    0.000000    1.000000
   238  Li    c     1.959436    5.894765    7.863109    0.000000    1.000000
   239  Li    c     1.959436    5.894765   -7.863109    0.000000    1.000000
   240  Li    c     1.959436   -1.975892    7.863109    0.000000    1.000000
   241  Li    c     1.959436   -1.975892   -7.863109    0.000000    1.000000
   242  Li    c     5.894765    1.959436    7.863109    0.000000    1.000000
   243  Li    c     5.894765    1.959436   -7.863109    0.000000    1.000000
   244  Li    c    -1.975892    1.959436    7.863109    0.000000    1.000000
   245  Li    c    -1.975892    1.959436   -7.863109    0.000000    1.000000
   246  O     c     5.878701    9.797346   -1.960394    0.000000    0.183000
   247  O     c     5.878701    9.797346    1.960394    0.000000    0.183000
   248  O     c     9.797346    5.878701   -1.960394    0.000000    0.183000
   249  O     c     9.797346    5.878701    1.960394    0.000000    0.183000
   250  O     c     9.797346   -1.959828   -1.960394    0.000000    0.183000
   251  O     c     9.797346   -1.959828    1.960394    0.000000    0.183000
   252  O     c    -1.959828    9.797346   -1.960394    0.000000    0.183000
   253  O     c    -1.959828    9.797346    1.960394    0.000000    0.183000
   254  O     c     5.878701   -5.878473   -1.960394    0.000000    0.183000
   255  O     c     5.878701   -5.878473    1.960394    0.000000    0.183000
   256  O     c    -1.959828   -5.878473   -1.960394    0.000000    0.183000
   257  O     c    -1.959828   -5.878473    1.960394    0.000000    0.183000
   258  O     c    -5.878473    5.878701   -1.960394    0.000000    0.183000
   259  O     c    -5.878473    5.878701    1.960394    0.000000    0.183000
   260  O     c    -5.878473   -1.959828   -1.960394    0.000000    0.183000
   261  O     c    -5.878473   -1.959828    1.960394    0.000000    0.183000
   262  Cl    c     7.838100    7.838100    3.921805    0.000000    1.485000
   263  Cl    c     7.838100    7.838100   -3.921805    0.000000    1.485000
   264  Cl    c     7.838100   -3.919227    3.921805    0.000000    1.485000
   265  Cl    c     7.838100   -3.919227   -3.921805    0.000000    1.485000
   266  Cl    c    -3.919227    7.838100    3.921805    0.000000    1.485000
   267  Cl    c    -3.919227    7.838100   -3.921805    0.000000    1.485000
   268  Cl    c    -3.919227   -3.919227    3.921805    0.000000    1.485000
   269  Cl    c    -3.919227   -3.919227   -3.921805    0.000000    1.485000
   270  Li    c     7.847505    5.886909    5.889163    0.000000    1.000000
   271  Li    c     7.847505    5.886909   -5.889163    0.000000    1.000000
   272  Li    c     7.847505   -1.968036    5.889163    0.000000    1.000000
   273  Li    c     7.847505   -1.968036   -5.889163    0.000000    1.000000
   274  Li    c    -3.928632    5.886909    5.889163    0.000000    1.000000
   275  Li    c    -3.928632    5.886909   -5.889163    0.000000    1.000000
   276  Li    c    -3.928632   -1.968036    5.889163    0.000000    1.000000
   277  Li    c    -3.928632   -1.968036   -5.889163    0.000000    1.000000
   278  Li    c     5.886909    7.847505    5.889163    0.000000    1.000000
   279  Li    c     5.886909    7.847505   -5.889163    0.000000    1.000000
   280  Li    c     5.886909   -3.928632    5.889163    0.000000    1.000000
   281  Li    c     5.886909   -3.928632   -5.889163    0.000000    1.000000
   282  Li    c    -1.968036    7.847505    5.889163    0.000000    1.000000
   283  Li    c    -1.968036    7.847505   -5.889163    0.000000    1.000000
   284  Li    c    -1.968036   -3.928632    5.889163    0.000000    1.000000
   285  Li    c    -1.968036   -3.928632   -5.889163    0.000000    1.000000
   286  Li    c     5.884250    9.810491    3.923876    0.000000    1.000000
   287  Li    c     5.884250    9.810491   -3.923876    0.000000    1.000000
   288  Li    c     9.810491    5.884250    3.923876    0.000000    1.000000
   289  Li    c     9.810491    5.884250   -3.923876    0.000000    1.000000
   290  Li    c     9.810491   -1.965377    3.923876    0.000000    1.000000
   291  Li    c     9.810491   -1.965377   -3.923876    0.000000    1.000000
   292  Li    c    -1.965377    9.810491    3.923876    0.000000    1.000000
   293  Li    c    -1.965377    9.810491   -3.923876    0.000000    1.000000
   294  Li    c     5.884250   -5.891618    3.923876    0.000000    1.000000
   295  Li    c     5.884250   -5.891618   -3.923876    0.000000    1.000000
   296  Li    c    -1.965377   -5.891618    3.923876    0.000000    1.000000
   297  Li    c    -1.965377   -5.891618   -3.923876    0.000000    1.000000
   298  Li    c    -5.891618    5.884250    3.923876    0.000000    1.000000
   299  Li    c    -5.891618    5.884250   -3.923876    0.000000    1.000000
   300  Li    c    -5.891618   -1.965377    3.923876    0.000000    1.000000
   301  Li    c    -5.891618   -1.965377   -3.923876    0.000000    1.000000
   302  Li    c     5.889535    5.889535    7.852464    0.000000    1.000000
   303  Li    c     5.889535    5.889535   -7.852464    0.000000    1.000000
   304  Li    c     5.889535   -1.970662    7.852464    0.000000    1.000000
   305  Li    c     5.889535   -1.970662   -7.852464    0.000000    1.000000
   306  Li    c    -1.970662    5.889535    7.852464    0.000000    1.000000
   307  Li    c    -1.970662    5.889535   -7.852464    0.000000    1.000000
   308  Li    c    -1.970662   -1.970662    7.852464    0.000000    1.000000
   309  Li    c    -1.970662   -1.970662   -7.852464    0.000000    1.000000
   310  O     c     1.959436    1.959436    9.806902    0.000000    0.183000
   311  O     c     1.959436    1.959436   -9.806902    0.000000    0.183000
   312  O     c     1.959436    9.803046    5.888124    0.000000    0.183000
   313  O     c     1.959436    9.803046   -5.888124    0.000000    0.183000
   314  O     c     9.803046    1.959436    5.888124    0.000000    0.183000
   315  O     c     9.803046    1.959436   -5.888124    0.000000    0.183000
   316  O     c     1.959436   -5.884173    5.888124    0.000000    0.183000
   317  O     c     1.959436   -5.884173   -5.888124    0.000000    0.183000
   318  O     c    -5.884173    1.959436    5.888124    0.000000    0.183000
   319  O     c    -5.884173    1.959436   -5.888124    0.000000    0.183000
   320  Cl    c     3.920773    7.841018    7.842946    0.000000    1.485000
   321  Cl    c     3.920773    7.841018   -7.842946    0.000000    1.485000
   322  Cl    c     3.920773   -3.922145    7.842946    0.000000    1.485000
   323  Cl    c     3.920773   -3.922145   -7.842946    0.000000    1.485000
   324  Cl    c     7.841018    3.920773    7.842946    0.000000    1.485000
   325  Cl    c     7.841018    3.920773   -7.842946    0.000000    1.485000
   326  Cl    c     7.841018   -0.001900    7.842946    0.000000    1.485000
   327  Cl    c     7.841018   -0.001900   -7.842946    0.000000    1.485000
   328  Cl    c    -0.001900    7.841018    7.842946    0.000000    1.485000
   329  Cl    c    -0.001900    7.841018   -7.842946    0.000000    1.485000
   330  Cl    c    -0.001900   -3.922145    7.842946    0.000000    1.485000
   331  Cl    c    -0.001900   -3.922145   -7.842946    0.000000    1.485000
   332  Cl    c    -3.922145    3.920773    7.842946    0.000000    1.485000
   333  Cl    c    -3.922145    3.920773   -7.842946    0.000000    1.485000
   334  Cl    c    -3.922145   -0.001900    7.842946    0.000000    1.485000
   335  Cl    c    -3.922145   -0.001900   -7.842946    0.000000    1.485000
   336  Cl    c     3.918211   11.749745    0.000000    0.000000    1.485000
   337  Cl    c     3.918211   -7.830872    0.000000    0.000000    1.485000
   338  Cl    c    11.749745    3.918211    0.000000    0.000000    1.485000
   339  Cl    c    11.749745    0.000662    0.000000    0.000000    1.485000
   340  Cl    c     0.000662   11.749745    0.000000    0.000000    1.485000
   341  Cl    c     0.000662   -7.830872    0.000000    0.000000    1.485000
   342  Cl    c    -7.830872    3.918211    0.000000    0.000000    1.485000
   343  Cl    c    -7.830872    0.000662    0.000000    0.000000    1.485000
   344  Li    c     3.922147    1.959436    9.815641    0.000000    1.000000
   345  Li    c     3.922147    1.959436   -9.815641    0.000000    1.000000
   346  Li    c    -0.003274    1.959436    9.815641    0.000000    1.000000
   347  Li    c    -0.003274    1.959436   -9.815641    0.000000    1.000000
   348  Li    c     1.959436    3.922147    9.815641    0.000000    1.000000
   349  Li    c     1.959436    3.922147   -9.815641    0.000000    1.000000
   350  Li    c     1.959436   -0.003274    9.815641    0.000000    1.000000
   351  Li    c     1.959436   -0.003274   -9.815641    0.000000    1.000000
   352  Li    c     3.922441    9.811456    5.885874    0.000000    1.000000
   353  Li    c     3.922441    9.811456   -5.885874    0.000000    1.000000
   354  Li    c     3.922441   -5.892583    5.885874    0.000000    1.000000
   355  Li    c     3.922441   -5.892583   -5.885874    0.000000    1.000000
   356  Li    c    -0.003568    9.811456    5.885874    0.000000    1.000000
   357  Li    c    -0.003568    9.811456   -5.885874    0.000000    1.000000
   358  Li    c    -0.003568   -5.892583    5.885874    0.000000    1.000000
   359  Li    c    -0.003568   -5.892583   -5.885874    0.000000    1.000000
   360  Li    c     9.811456    3.922441    5.885874    0.000000    1.000000
   361  Li    c     9.811456    3.922441   -5.885874    0.000000    1.000000
   362  Li    c     9.811456   -0.003568    5.885874    0.000000    1.000000
   363  Li    c     9.811456   -0.003568   -5.885874    0.000000    1.000000
   364  Li    c    -5.892583    3.922441    5.885874    0.000000    1.000000
   365  Li    c    -5.892583    3.922441   -5.885874    0.000000    1.000000
   366  Li    c    -5.892583   -0.003568    5.885874    0.000000    1.000000
   367  Li    c    -5.892583   -0.003568   -5.885874    0.000000    1.000000
   368  Li    c     7.844030    9.809282   -1.960171    0.000000    1.000000
   369  Li    c     7.844030    9.809282    1.960171    0.000000    1.000000
   370  Li    c    -3.925157    9.809282   -1.960171    0.000000    1.000000
   371  Li    c    -3.925157    9.809282    1.960171    0.000000    1.000000
   372  Li    c     9.809282    7.844030   -1.960171    0.000000    1.000000
   373  Li    c     9.809282    7.844030    1.960171    0.000000    1.000000
   374  Li    c     9.809282   -3.925157   -1.960171    0.000000    1.000000
   375  Li    c     9.809282   -3.925157    1.960171    0.000000    1.000000
   376  Li    c     7.844030   -5.890409   -1.960171    0.000000    1.000000
   377  Li    c     7.844030   -5.890409    1.960171    0.000000    1.000000
   378  Li    c    -3.925157   -5.890409   -1.960171    0.000000    1.000000
   379  Li    c    -3.925157   -5.890409    1.960171    0.000000    1.000000
   380  Li    c    -5.890409    7.844030   -1.960171    0.000000    1.000000
   381  Li    c    -5.890409    7.844030    1.960171    0.000000    1.000000
   382  Li    c    -5.890409   -3.925157   -1.960171    0.000000    1.000000
   383  Li    c    -5.890409   -3.925157    1.960171    0.000000    1.000000
   384  Li    c    11.761912    1.959436   -1.968094    0.000000    1.000000
   385  Li    c    11.761912    1.959436    1.968094    0.000000    1.000000
[...]
    116 y          1.959436      1.959436     0.000000    Cartesian    0.00
    116 z         13.716055     13.721077     0.005022    Cartesian    0.04
    117 x          1.959436      1.959436     0.000000    Cartesian    0.00
    117 y         -9.797182     -9.795851     0.001331    Cartesian   -0.01
    117 z          9.797182      9.797156    -0.000027    Cartesian   -0.00
    118 x          9.797182      9.795542    -0.001641    Cartesian   -0.02
    118 y         -9.797182     -9.795205     0.001977    Cartesian   -0.02
    118 z          5.878309      5.876515    -0.001794    Cartesian   -0.03
    119 x          7.837746      7.835805    -0.001941    Cartesian   -0.02
    119 y        -11.756619    -11.751740     0.004879    Cartesian   -0.04
    119 z          3.918873      3.917502    -0.001371    Cartesian   -0.03
    120 x         11.756619     11.759763     0.003144    Cartesian    0.03
    120 y         -9.797182     -9.802438    -0.005255    Cartesian    0.05
    120 z         -1.959436     -1.960154    -0.000717    Cartesian    0.04
    121 x        -11.756619    -11.759757    -0.003138    Cartesian    0.03
    121 y          5.878309      5.880294     0.001985    Cartesian    0.03
    121 z          5.878309      5.880374     0.002065    Cartesian    0.04
    122 x          3.918873      3.919486     0.000613    Cartesian    0.02
    122 y         -9.797182     -9.800799    -0.003616    Cartesian    0.04
    122 z          9.797182      9.798411     0.001228    Cartesian    0.01
    123 x          3.918873      3.918423    -0.000450    Cartesian   -0.01
    123 y         11.756619     11.754589    -0.002030    Cartesian   -0.02
    123 z         11.756619     11.754700    -0.001919    Cartesian   -0.02
    124 x          7.837746      7.840090     0.002344    Cartesian    0.03
    124 y          5.878309      5.879813     0.001504    Cartesian    0.03
    124 z         13.716055     13.722426     0.006370    Cartesian    0.05
    125 x          1.959436      1.959436     0.000000    Cartesian    0.00
    125 y          1.959436      1.959436     0.000000    Cartesian    0.00
    125 z         15.675492     15.678193     0.002701    Cartesian    0.02
    126 x          1.959436      1.959436     0.000000    Cartesian    0.00
    126 y         17.634928     17.639157     0.004228    Cartesian    0.02
    126 z          0.000000      0.000000     0.000000    Cartesian    0.00
    127 x          5.878309      5.877059    -0.001251    Cartesian   -0.02
    127 y         -9.797182     -9.794906     0.002277    Cartesian   -0.02
    127 z          9.797182      9.795037    -0.002146    Cartesian   -0.02
    128 x          1.959436      1.959436     0.000000    Cartesian    0.00
    128 y          9.797182      9.796367    -0.000816    Cartesian   -0.01
    128 z         13.716055     13.715118    -0.000938    Cartesian   -0.01
    129 x          1.959436      1.959436     0.000000    Cartesian    0.00
    129 y         17.634928     17.633049    -0.001879    Cartesian   -0.01
    129 z         -1.959436     -1.958528     0.000909    Cartesian   -0.05
    130 x        -11.756619    -11.760851    -0.004232    Cartesian    0.04
    130 y          9.797182      9.801444     0.004262    Cartesian    0.04
    130 z         -1.959436     -1.960386    -0.000949    Cartesian    0.05
    131 x          3.918873      3.917871    -0.001002    Cartesian   -0.03
    131 y        -11.756619    -11.750987     0.005632    Cartesian   -0.05
    131 z          7.837746      7.835017    -0.002729    Cartesian   -0.03
    132 x          3.918873      3.919755     0.000882    Cartesian    0.02
    132 y          9.797182      9.800174     0.002992    Cartesian    0.03
    132 z         13.716055     13.721985     0.005929    Cartesian    0.04
    133 x         11.756619     11.760079     0.003460    Cartesian    0.03
    133 y          9.797182      9.801102     0.003920    Cartesian    0.04
    133 z          9.797182      9.802914     0.005731    Cartesian    0.06
    134 x         11.756619     11.753053    -0.003566    Cartesian   -0.03
    134 y         11.756619     11.753053    -0.003566    Cartesian   -0.03
    134 z          7.837746      7.834892    -0.002854    Cartesian   -0.04
    135 x          3.918873      3.919504     0.000631    Cartesian    0.02
    135 y         17.634928     17.641778     0.006849    Cartesian    0.04
    135 z         -1.959436     -1.960248    -0.000812    Cartesian    0.04
    136 x          3.918873      3.917977    -0.000896    Cartesian   -0.02
    136 y          3.918873      3.917977    -0.000896    Cartesian   -0.02
    136 z         15.675492     15.668539    -0.006953    Cartesian   -0.04
    137 x          1.959436      1.959436     0.000000    Cartesian    0.00
    137 y          1.959436      1.959436     0.000000    Cartesian    0.00
    137 z          0.000000      0.000000     0.000000    Cartesian    0.00
    138 x          1.959436      1.959436     0.000000    Cartesian    0.00
    138 y          1.959436      1.959436     0.000000    Cartesian    0.00
    138 z         -1.959436     -2.097128    -0.137691    Cartesian    7.03
    139 x          3.918873      3.977164     0.058291    Cartesian    1.49
    139 y          3.918873      3.977164     0.058291    Cartesian    1.49
    139 z          0.000000      0.000000     0.000000    Cartesian    0.00
    140 x          1.959436      1.959436     0.000000    Cartesian    0.00
    140 y          5.878309      5.879656     0.001346    Cartesian    0.02
    140 z         -1.959436     -1.994501    -0.035064    Cartesian    1.79
    141 x          3.918873      3.908462    -0.010411    Cartesian   -0.27
    141 y          3.918873      3.908462    -0.010411    Cartesian   -0.27
    141 z          3.918873      3.933407     0.014534    Cartesian    0.37
    142 x          1.959436      1.959436     0.000000    Cartesian    0.00
    142 y          1.959436      1.959436     0.000000    Cartesian    0.00
    142 z          5.878309      5.920964     0.042655    Cartesian    0.73
    143 x          5.878309      5.889489     0.011180    Cartesian    0.19
    143 y          5.878309      5.889489     0.011180    Cartesian    0.19
    143 z         -1.959436     -1.970696    -0.011260    Cartesian    0.57
    144 x          3.918873      3.905783    -0.013090    Cartesian   -0.33
    144 y          7.837746      7.817069    -0.020677    Cartesian   -0.26
    144 z          0.000000      0.000000     0.000000    Cartesian    0.00
    145 x          1.959436      1.959436     0.000000    Cartesian    0.00
    145 y          5.878309      5.898936     0.020626    Cartesian    0.35
    145 z          5.878309      5.901393     0.023083    Cartesian    0.39
    146 x          3.918873      3.912734    -0.006139    Cartesian   -0.16
    146 y          7.837746      7.831736    -0.006010    Cartesian   -0.08
    146 z          3.918873      3.923274     0.004401    Cartesian    0.11
    147 x          1.959436      1.959436     0.000000    Cartesian    0.00
    147 y          9.797182      9.797106    -0.000076    Cartesian   -0.00
    147 z         -1.959436     -1.959531    -0.000095    Cartesian    0.00
    148 x          5.878309      5.881709     0.003400    Cartesian    0.06
    148 y          5.878309      5.881709     0.003400    Cartesian    0.06
    148 z          5.878309      5.886798     0.008488    Cartesian    0.14
    149 x          3.918873      3.921973     0.003100    Cartesian    0.08
    149 y          3.918873      3.921973     0.003100    Cartesian    0.08
    149 z          7.837746      7.836281    -0.001465    Cartesian   -0.02
    150 x          7.837746      7.832272    -0.005474    Cartesian   -0.07
    150 y          7.837746      7.832272    -0.005474    Cartesian   -0.07
    150 z          0.000000      0.000000     0.000000    Cartesian    0.00
    151 x          5.878309      5.878698     0.000388    Cartesian    0.01
    151 y          9.797182      9.797331     0.000148    Cartesian    0.00
    151 z         -1.959436     -1.960393    -0.000957    Cartesian    0.05
    152 x          7.837746      7.836029    -0.001717    Cartesian   -0.02
    152 y          7.837746      7.836029    -0.001717    Cartesian   -0.02
    152 z          3.918873      3.920660     0.001787    Cartesian    0.05
    153 x          1.959436      1.959436     0.000000    Cartesian    0.00
    153 y          1.959436      1.959436     0.000000    Cartesian    0.00
    153 z          9.797182      9.806888     0.009706    Cartesian    0.10
    154 x          1.959436      1.959436     0.000000    Cartesian    0.00
    154 y          9.797182      9.803022     0.005839    Cartesian    0.06
    154 z          5.878309      5.888132     0.009823    Cartesian    0.17
    155 x          3.918873      3.919324     0.000451    Cartesian    0.01
    155 y          7.837746      7.838848     0.001102    Cartesian    0.01
    155 z          7.837746      7.840091     0.002345    Cartesian    0.03
    156 x          3.918873      3.917693    -0.001180    Cartesian   -0.03
    156 y         11.756619     11.747139    -0.009480    Cartesian   -0.08
    156 z          0.000000      0.000000     0.000000    Cartesian    0.00
    157 x          1.959436      1.959436     0.000000    Cartesian    0.00
    157 y          5.878309      5.881551     0.003241    Cartesian    0.06
    157 z          9.797182      9.803884     0.006702    Cartesian    0.07
    158 x          5.878309      5.879664     0.001354    Cartesian    0.02
    158 y          9.797182      9.799761     0.002578    Cartesian    0.03
    158 z          5.878309      5.880379     0.002069    Cartesian    0.04
    159 x          3.918873      3.917999    -0.000874    Cartesian   -0.02
    159 y         11.756619     11.749110    -0.007509    Cartesian   -0.06
    159 z          3.918873      3.917856    -0.001017    Cartesian   -0.03
    160 x          9.797182      9.798562     0.001379    Cartesian    0.01
    160 y          9.797182      9.798562     0.001379    Cartesian    0.01
    160 z         -1.959436     -1.958769     0.000668    Cartesian   -0.03
    161 x          5.878309      5.881246     0.002937    Cartesian    0.05
    161 y          5.878309      5.881246     0.002937    Cartesian    0.05
    161 z          9.797182      9.802171     0.004988    Cartesian    0.05
    162 x          7.837746      7.835976    -0.001770    Cartesian   -0.02
    162 y          7.837746      7.835976    -0.001770    Cartesian   -0.02
    162 z          7.837746      7.836350    -0.001396    Cartesian   -0.02
    163 x          7.837746      7.835112    -0.002634    Cartesian   -0.03
    163 y         11.756619     11.751236    -0.005383    Cartesian   -0.05
    163 z          0.000000      0.000000     0.000000    Cartesian    0.00
    164 x          1.959436      1.959436     0.000000    Cartesian    0.00
    164 y         -9.797182     -9.796086     0.001096    Cartesian   -0.01
    164 z         -1.959436     -1.959696    -0.000259    Cartesian    0.01
    165 x          7.837746      7.834838    -0.002908    Cartesian   -0.04
    165 y         11.756619     11.751670    -0.004949    Cartesian   -0.04
    165 z          3.918873      3.915863    -0.003010    Cartesian   -0.08
    166 x          3.918873      3.919442     0.000569    Cartesian    0.01
    166 y          3.918873      3.919442     0.000569    Cartesian    0.01
    166 z         11.756619     11.752537    -0.004082    Cartesian   -0.03
    167 x          5.878309      5.877521    -0.000788    Cartesian   -0.01
    167 y         -9.797182     -9.796786     0.000397    Cartesian   -0.00
    167 z         -1.959436     -1.959028     0.000409    Cartesian   -0.02
    168 x          1.959436      1.959436     0.000000    Cartesian    0.00
    168 y          9.797182      9.801498     0.004316    Cartesian    0.04
    168 z          9.797182      9.801375     0.004193    Cartesian    0.04
    169 x          9.797182      9.797819     0.000637    Cartesian    0.01
    169 y          9.797182      9.797819     0.000637    Cartesian    0.01
    169 z          5.878309      5.878274    -0.000036    Cartesian   -0.00
    170 x          3.918873      3.918464    -0.000409    Cartesian   -0.01
    170 y         11.756619     11.752998    -0.003621    Cartesian   -0.03
    170 z          7.837746      7.836211    -0.001535    Cartesian   -0.02
    171 x          1.959436      1.959436     0.000000    Cartesian    0.00
    171 y         -9.797182     -9.797426    -0.000243    Cartesian    0.00
    171 z          5.878309      5.877036    -0.001274    Cartesian   -0.02
    172 x          5.878309      5.879817     0.001508    Cartesian    0.03
    172 y          9.797182      9.798944     0.001761    Cartesian    0.02
    172 z          9.797182      9.799384     0.002201    Cartesian    0.02
    173 x          3.918873      3.919105     0.000232    Cartesian    0.01
    173 y          7.837746      7.836952    -0.000794    Cartesian   -0.01
    173 z         11.756619     11.753801    -0.002818    Cartesian   -0.02
    174 x          5.878309      5.878974     0.000664    Cartesian    0.01
    174 y         -9.797182     -9.797156     0.000027    Cartesian   -0.00
    174 z          5.878309      5.878265    -0.000044    Cartesian   -0.00
    175 x          1.959436      1.959436     0.000000    Cartesian    0.00
    175 y          1.959436      1.959436     0.000000    Cartesian    0.00
    175 z         13.716055     13.715716    -0.000340    Cartesian   -0.00
    176 x          3.918873      3.919103     0.000230    Cartesian    0.01
    176 y        -11.756619    -11.751172     0.005447    Cartesian   -0.05
    176 z          0.000000      0.000000     0.000000    Cartesian    0.00
    177 x         11.756619     11.754380    -0.002239    Cartesian   -0.02
    177 y         11.756619     11.754380    -0.002239    Cartesian   -0.02
    177 z          0.000000      0.000000     0.000000    Cartesian    0.00
    178 x          7.837746      7.836184    -0.001562    Cartesian   -0.02
    178 y         11.756619     11.753771    -0.002848    Cartesian   -0.02
    178 z          7.837746      7.835855    -0.001891    Cartesian   -0.02
    179 x          9.797182      9.798290     0.001108    Cartesian    0.01
    179 y         -9.797182     -9.798190    -0.001008    Cartesian    0.01
    179 z         -1.959436     -1.959083     0.000353    Cartesian   -0.02
    180 x          1.959436      1.959436     0.000000    Cartesian    0.00
    180 y          5.878309      5.879696     0.001387    Cartesian    0.02
    180 z         13.716055     13.716088     0.000033    Cartesian    0.00
    181 x          3.918873      3.918584    -0.000289    Cartesian   -0.01
    181 y        -11.756619    -11.752076     0.004543    Cartesian   -0.04
    181 z          3.918873      3.918067    -0.000806    Cartesian   -0.02
    182 x         11.756619     11.754153    -0.002466    Cartesian   -0.02
    182 y         11.756619     11.754153    -0.002466    Cartesian   -0.02
    182 z          3.918873      3.917231    -0.001642    Cartesian   -0.04
    183 x          7.837746      7.837192    -0.000554    Cartesian   -0.01
    183 y          7.837746      7.837192    -0.000554    Cartesian   -0.01
    183 z         11.756619     11.754514    -0.002105    Cartesian   -0.02
    184 x          9.797182      9.797788     0.000605    Cartesian    0.01
    184 y          9.797182      9.797788     0.000605    Cartesian    0.01
    184 z          9.797182      9.797934     0.000751    Cartesian    0.01
    185 x          5.878309      5.879037     0.000727    Cartesian    0.01
    185 y          5.878309      5.879037     0.000727    Cartesian    0.01
    185 z         13.716055     13.716540     0.000484    Cartesian    0.00
    186 x          7.837746      7.835432    -0.002314    Cartesian   -0.03
    186 y        -11.756619    -11.751203     0.005416    Cartesian   -0.05
    186 z          0.000000      0.000000     0.000000    Cartesian    0.00
    187 x          1.959436      1.959436     0.000000    Cartesian    0.00
    187 y         -9.797182     -9.795843     0.001339    Cartesian   -0.01
    187 z          9.797182      9.797157    -0.000025    Cartesian   -0.00
    188 x          9.797182      9.795538    -0.001644    Cartesian   -0.02
    188 y         -9.797182     -9.795201     0.001982    Cartesian   -0.02
    188 z          5.878309      5.876513    -0.001797    Cartesian   -0.03
    189 x          7.837746      7.835260    -0.002486    Cartesian   -0.03
    189 y        -11.756619    -11.750396     0.006223    Cartesian   -0.05
    189 z          3.918873      3.917283    -0.001590    Cartesian   -0.04
    190 x          3.918873      3.917990    -0.000883    Cartesian   -0.02
    190 y         11.756619     11.753750    -0.002869    Cartesian   -0.02
    190 z         11.756619     11.753668    -0.002951    Cartesian   -0.03
    191 x          5.878309      5.877056    -0.001253    Cartesian   -0.02
    191 y         -9.797182     -9.794899     0.002283    Cartesian   -0.02
    191 z          9.797182      9.795032    -0.002150    Cartesian   -0.02
    192 x          1.959436      1.959436     0.000000    Cartesian    0.00
    192 y          9.797182      9.796365    -0.000818    Cartesian   -0.01
    192 z         13.716055     13.715113    -0.000943    Cartesian   -0.01
    193 x          1.959436      1.959436     0.000000    Cartesian    0.00
    193 y         17.634928     17.633046    -0.001883    Cartesian   -0.01
    193 z         -1.959436     -1.958526     0.000910    Cartesian   -0.05
    194 x          3.918873      3.917643    -0.001230    Cartesian   -0.03
    194 y        -11.756619    -11.749549     0.007070    Cartesian   -0.06
    194 z          7.837746      7.834292    -0.003454    Cartesian   -0.04
    195 x         11.756619     11.752013    -0.004606    Cartesian   -0.04
    195 y         11.756619     11.752013    -0.004606    Cartesian   -0.04
    195 z          7.837746      7.834087    -0.003659    Cartesian   -0.05
    196 x          3.918873      3.917718    -0.001155    Cartesian   -0.03
    196 y          3.918873      3.917718    -0.001155    Cartesian   -0.03
    196 z         15.675492     15.666820    -0.008672    Cartesian   -0.06
--------------------------------------------------------------------------------


  Time to end of optimisation  =       42.5848 seconds


  Peak dynamic memory used =     693.58 MB 


  Timing analysis for GULP :

--------------------------------------------------------------------------------
  Task / Subroutine                                          Time (Seconds)
--------------------------------------------------------------------------------
  Calculation of reciprocal space energy and derivatives          0.0002
  Calculation of reciprocal space energy using symmetry           0.0001
  Calculation of real space energy and derivatives                0.0015
  Calculation of real space energy using symmetry                 0.0011
  Calculation for region 1 energy and derivatives (2-b)          29.3271
  Calculation for region 2a energy                               10.6332
  Calculation for region 2b energy                                0.0002
  Calculation and manipulation of Hessian matrix                  2.1426
  Calculation of matrix inversion                                 0.1010
  Symmetry generation of equivalent positions                     0.0018
--------------------------------------------------------------------------------
  Total CPU time                                                 42.5853
--------------------------------------------------------------------------------


  Dump file written as Li3OCl.grs


  Job Finished at 12:29.50  1st December   2020                               

