********************************************************************************
*                       GENERAL UTILITY LATTICE PROGRAM                        *
*                                 Julian Gale                                  *
*                       Curtin Institute for Computation                       *
*                    School of Molecular and Life Sciences                     *
*                    Curtin University, Western Australia                      *
********************************************************************************
* Version = 5.2.0 * Last modified =  10th September 2020                       *
********************************************************************************
*  optimise     - perform optimisation run                                     *
*  conp         - constant pressure calculation                                *
*  property     - calculate properties for final geometry                      *
*  defect       - perform defect calculation after bulk run                    *
*  compare      - compare initial and final structures                         *
********************************************************************************

  Job Started  at 12:29.56  1st December   2020                               

  Number of CPUs =     1


  Total number of configurations input =      1

********************************************************************************
*  Input for Configuration =   1                                               *
********************************************************************************

  Formula = ClOLi3                                                      

  Number of irreducible atoms/shells =       5


  Total number atoms/shells =       7

  Dimensionality = 3               :  Bulk   


  Symmetry :

  Crystal family                   :  Cubic       
  Crystal class  (Groth - 1921)    :  Cubic Hexakisoctahedral              

  Space group (centrosymmetric)    :  P M 3 M         

  Patterson group                  :  P m -3 m 

  Cartesian lattice vectors (Angstroms) :

        3.918873    0.000000    0.000000
        0.000000    3.918873    0.000000
        0.000000    0.000000    3.918873

  Cell parameters (Angstroms/Degrees):

  a =       3.9189    alpha =  90.0000
  b =       3.9189    beta  =  90.0000
  c =       3.9189    gamma =  90.0000

  Initial cell volume =          60.184349 Angs**3

  Temperature of configuration =   0.00     K 

  Pressure of configuration =         0.000 GPa 

  Fractional coordinates of asymmetric unit :

--------------------------------------------------------------------------------
   No.  Atomic       x           y          z         Charge      Occupancy
        Label      (Frac)      (Frac)     (Frac)        (e)         (Frac)  
--------------------------------------------------------------------------------
      1 Cl    c    0.000000    0.000000    0.000000     1.48500    1.000000    
      2 O     c    0.500000    0.500000    0.500000     0.18300    1.000000    
      3 Li    c    0.500000    0.500000    0.000000     1.00000    1.000000    
      4 Cl    s    0.000000    0.000000    0.000000    -2.48500    1.000000    
      5 O     s    0.500000    0.500000    0.500000    -2.18300    1.000000    
--------------------------------------------------------------------------------


  Constraints : 

--------------------------------------------------------------------------------
  Constraint no.      Unconstrained     Constrained    Coefficient    Offset
                         Variable         Variable
--------------------------------------------------------------------------------
           1              Strain 1        Strain 2       1.00000      0.0000
           2              Strain 1        Strain 3       1.00000      0.0000
--------------------------------------------------------------------------------


********************************************************************************
*  General input information                                                   *
********************************************************************************

  Species output for all configurations : 

--------------------------------------------------------------------------------
  Species    Type    Atomic    Atomic    Charge       Radii (Angs)     Library
                     Number     Mass       (e)     Cova   Ionic  VDW   Symbol
--------------------------------------------------------------------------------
    Li       Core        3       6.94   1.000000   0.680  0.000  1.800          
    O        Core        8      16.00   0.183000   0.730  0.000  1.360          
    O        Shell       8       0.00  -2.183000   0.730  0.000  1.360          
    Cl       Core       17      35.45   1.485000   0.990  0.000  1.650          
    Cl       Shell      17       0.00  -2.485000   0.990  0.000  1.650          
    Mg       Core       12      24.31   0.415000   1.100  0.000  0.000          
    Mg       Shell      12       0.00   1.585000   1.100  0.000  0.000          
    Ca       Core       20      40.08  -1.135000   0.990  0.000  0.000          
    Ca       Shell      20       0.00   3.135000   0.990  0.000  0.000          
    Sr       Core       38      87.62  -1.251000   1.120  0.000  0.000          
    Sr       Shell      38       0.00   3.251000   1.120  0.000  0.000          
    Ba       Core       56     137.33  -7.203000   1.340  0.000  0.000          
    Ba       Shell      56       0.00   9.203000   1.340  0.000  0.000          
--------------------------------------------------------------------------------


  Lattice summation method               =    Ewald          (3-D)
                                         =    Parry          (2-D)
                                         =    Saunders et al (1-D)
  Accuracy factor for lattice sums       =   12.000


  Analytic derivatives to be used

  Time limit = Infinity

  Maximum range for interatomic potentials =    100000.000000 Angstroms

  General interatomic potentials :

--------------------------------------------------------------------------------
Atom  Types   Potential      Parameter       Value         Units   Cutoffs(Ang)
  1     2                                                            Min /  Max 
--------------------------------------------------------------------------------
O    c O    s Spring (c-s)  Spring k 2       593.71600    eV*Ang^-2 0.000  0.800
                            Spring k 4       0.0000000    eV*Ang^-4 
--------------------------------------------------------------------------------
Cl   c Cl   s Spring (c-s)  Spring k 2       29.380000    eV*Ang^-2 0.000  0.800
                            Spring k 4       0.0000000    eV*Ang^-4 
--------------------------------------------------------------------------------
Mg   c Mg   s Spring (c-s)  Spring k 2       361.60000    eV*Ang^-2 0.000  0.800
                            Spring k 4       0.0000000    eV*Ang^-4 
--------------------------------------------------------------------------------
Ca   c Ca   s Spring (c-s)  Spring k 2       110.20000    eV*Ang^-2 0.000  0.800
                            Spring k 4       0.0000000    eV*Ang^-4 
--------------------------------------------------------------------------------
Sr   c Sr   s Spring (c-s)  Spring k 2       71.700000    eV*Ang^-2 0.000  0.800
                            Spring k 4       0.0000000    eV*Ang^-4 
--------------------------------------------------------------------------------
Ba   c Ba   s Spring (c-s)  Spring k 2       495.20000    eV*Ang^-2 0.000  0.800
                            Spring k 4       0.0000000    eV*Ang^-4 
--------------------------------------------------------------------------------
Li   c Li   c Buckingham    Buckingham A     360.53000    eV        0.000 12.000
                            Buckingham rho  0.16100000    Ang       
                            Buckingham C     0.0000000    eV*Ang^6  
--------------------------------------------------------------------------------
Li   c O    s Buckingham    Buckingham A     292.30000    eV        0.000 12.000
                            Buckingham rho  0.34700000    Ang       
                            Buckingham C     0.0000000    eV*Ang^6  
--------------------------------------------------------------------------------
Li   c Cl   s Buckingham    Buckingham A     421.04000    eV        0.000 12.000
                            Buckingham rho  0.33400000    Ang       
                            Buckingham C     0.0000000    eV*Ang^6  
--------------------------------------------------------------------------------
O    s O    s Buckingham    Buckingham A     22764.300    eV        0.000 12.000
                            Buckingham rho  0.14900000    Ang       
                            Buckingham C     13.190000    eV*Ang^6  
--------------------------------------------------------------------------------
O    s Cl   s Buckingham    Buckingham A     8286.9100    eV        0.000 12.000
                            Buckingham rho  0.25900000    Ang       
                            Buckingham C     62.200000    eV*Ang^6  
--------------------------------------------------------------------------------
Cl   s Cl   s Buckingham    Buckingham A     1227.2000    eV        0.000 12.000
                            Buckingham rho  0.32100000    Ang       
                            Buckingham C     14.530000    eV*Ang^6  
--------------------------------------------------------------------------------
O    s Mg   s Buckingham    Buckingham A     1428.5000    eV        0.000 12.000
                            Buckingham rho  0.29450000    Ang       
                            Buckingham C     0.0000000    eV*Ang^6  
--------------------------------------------------------------------------------
Mg   s Cl   s Buckingham    Buckingham A     4914.5400    eV        0.000 12.000
                            Buckingham rho  0.25700000    Ang       
                            Buckingham C     0.0000000    eV*Ang^6  
--------------------------------------------------------------------------------
O    s Ca   s Buckingham    Buckingham A     1090.4000    eV        0.000 12.000
                            Buckingham rho  0.34370000    Ang       
                            Buckingham C     0.0000000    eV*Ang^6  
--------------------------------------------------------------------------------
Cl   s Ca   s Buckingham    Buckingham A     2302.0000    eV        0.000 12.000
                            Buckingham rho  0.34020000    Ang       
                            Buckingham C     0.0000000    eV*Ang^6  
--------------------------------------------------------------------------------
O    s Sr   s Buckingham    Buckingham A     959.10000    eV        0.000 12.000
                            Buckingham rho  0.37210000    Ang       
                            Buckingham C     0.0000000    eV*Ang^6  
--------------------------------------------------------------------------------
Cl   s Sr   s Buckingham    Buckingham A     2191.0900    eV        0.000 12.000
                            Buckingham rho  0.34570000    Ang       
                            Buckingham C     0.0000000    eV*Ang^6  
--------------------------------------------------------------------------------
O    s Ba   s Buckingham    Buckingham A     905.70000    eV        0.000 12.000
                            Buckingham rho  0.39760000    Ang       
                            Buckingham C     0.0000000    eV*Ang^6  
--------------------------------------------------------------------------------
Cl   s Ba   s Buckingham    Buckingham A     2704.5500    eV        0.000 12.000
                            Buckingham rho  0.35280000    Ang       
                            Buckingham C     0.0000000    eV*Ang^6  
--------------------------------------------------------------------------------

********************************************************************************
*  Output for configuration   1                                                *
********************************************************************************


  Components of energy : 

--------------------------------------------------------------------------------
  Interatomic potentials     =           7.24802695 eV    
  Monopole - monopole (real) =         -11.53475722 eV    
  Monopole - monopole (recip)=         -33.94580548 eV    
  Monopole - monopole (total)=         -45.48056271 eV    
--------------------------------------------------------------------------------
  Total lattice energy       =         -38.23253575 eV    
--------------------------------------------------------------------------------
  Total lattice energy       =           -3688.8553 kJ/(mole unit cells)
--------------------------------------------------------------------------------


  Number of variables =        1

  Maximum number of calculations  =          1000
  Maximum Hessian update interval =            10
  Maximum step size               =   1.000000000
  Maximum parameter tolerance     =   0.000010000
  Maximum function  tolerance     =   0.000010000
  Maximum gradient  tolerance     =   0.001000000
  Maximum gradient  component     =   0.010000000

  Symmetry constrained optimisation

  Symmetry used for second derivatives

  Cell parameters to be optimised using strains

  Newton-Raphson optimiser to be used

  BFGS hessian update to be used

  Lower half triangular hessian to be used

  Start of bulk optimisation :

  Cycle:      0 Energy:       -38.232536  Gnorm:      0.000019  CPU:    0.016


  **** Optimisation achieved ****


  Final energy =     -38.23253575 eV
  Final Gnorm  =       0.00001878

  Components of energy : 

--------------------------------------------------------------------------------
  Interatomic potentials     =           7.24802695 eV    
  Monopole - monopole (real) =         -11.53475722 eV    
  Monopole - monopole (recip)=         -33.94580548 eV    
  Monopole - monopole (total)=         -45.48056271 eV    
--------------------------------------------------------------------------------
  Total lattice energy       =         -38.23253575 eV    
--------------------------------------------------------------------------------
  Total lattice energy       =           -3688.8553 kJ/(mole unit cells)
--------------------------------------------------------------------------------

  Final asymmetric unit coordinates :

--------------------------------------------------------------------------------
   No.  Atomic        x           y           z         Radius
        Label       (Frac)      (Frac)      (Frac)       (Angs) 
--------------------------------------------------------------------------------
     1  Cl    c     0.000000    0.000000    0.000000    0.000000
     2  O     c     0.500000    0.500000    0.500000    0.000000
     3  Li    c     0.500000    0.500000    0.000000    0.000000
     4  Cl    s     0.000000    0.000000    0.000000    0.000000
     5  O     s     0.500000    0.500000    0.500000    0.000000
--------------------------------------------------------------------------------

  Final Cartesian lattice vectors (Angstroms) :

        3.918873    0.000000    0.000000
        0.000000    3.918873    0.000000
        0.000000    0.000000    3.918873


  Final cell parameters and derivatives :

--------------------------------------------------------------------------------
       a            3.918873 Angstrom     dE/de1(xx)    -0.000019 eV/strain
       b            3.918873 Angstrom     dE/de2(yy)     0.000000 eV/strain
       c            3.918873 Angstrom     dE/de3(zz)     0.000000 eV/strain
       alpha       90.000000 Degrees      dE/de4(yz)     0.000000 eV/strain
       beta        90.000000 Degrees      dE/de5(xz)     0.000000 eV/strain
       gamma       90.000000 Degrees      dE/de6(xy)     0.000000 eV/strain
--------------------------------------------------------------------------------

  Primitive cell volume =            60.184349 Angs**3

  Density of cell =      1.994024 g/cm**3

  Non-primitive cell volume =            60.184349 Angs**3


  Final internal derivatives :

--------------------------------------------------------------------------------
   No.  Atomic          a             b             c           Radius
        Label          (eV)          (eV)          (eV)        (eV/Angs)
--------------------------------------------------------------------------------
      1 Cl    c       0.000000      0.000000      0.000000      0.000000
      2 O     c       0.000000      0.000000      0.000000      0.000000
      3 Li    c       0.000000      0.000000      0.000000      0.000000
      4 Cl    s       0.000000      0.000000      0.000000      0.000000
      5 O     s       0.000000      0.000000      0.000000      0.000000
--------------------------------------------------------------------------------
  Maximum abs         0.000000      0.000000      0.000000      0.000000
--------------------------------------------------------------------------------

  Comparison of initial and final structures : 

--------------------------------------------------------------------------------
  Parameter   Initial value   Final value   Difference    Units      Percent
--------------------------------------------------------------------------------
    Volume        60.184349     60.184349     0.000000    Angs**3      0.00
    a              3.918873      3.918873     0.000000    Angstroms    0.00
    b              3.918873      3.918873     0.000000    Angstroms    0.00
    c              3.918873      3.918873     0.000000    Angstroms    0.00
    alpha         90.000000     90.000000     0.000000    Degrees      0.00
    beta          90.000000     90.000000     0.000000    Degrees      0.00
    gamma         90.000000     90.000000     0.000000    Degrees      0.00
      1 x          0.000000      0.000000     0.000000    Fractional   0.00
      1 y          0.000000      0.000000     0.000000    Fractional   0.00
      1 z          0.000000      0.000000     0.000000    Fractional   0.00
      2 x          0.500000      0.500000     0.000000    Fractional   0.00
      2 y          0.500000      0.500000     0.000000    Fractional   0.00
      2 z          0.500000      0.500000     0.000000    Fractional   0.00
      3 x          0.500000      0.500000     0.000000    Fractional   0.00
      3 y          0.500000      0.500000     0.000000    Fractional   0.00
      3 z          0.000000      0.000000     0.000000    Fractional   0.00
      4 x          0.000000      0.000000     0.000000    Fractional   0.00
      4 y          0.000000      0.000000     0.000000    Fractional   0.00
      4 z          0.000000      0.000000     0.000000    Fractional   0.00
      5 x          0.500000      0.500000     0.000000    Fractional   0.00
      5 y          0.500000      0.500000     0.000000    Fractional   0.00
      5 z          0.500000      0.500000     0.000000    Fractional   0.00
--------------------------------------------------------------------------------


  Born effective charge tensors : 

-------------------------------------------------------------------------------
  Atom             x           y             z
-------------------------------------------------------------------------------
    1 Cl    x      -0.9481      0.0000      0.0000
            y       0.0000     -0.9481      0.0000
            z       0.0000      0.0000     -0.9481
-------------------------------------------------------------------------------
    2 O     x      -2.4696     -0.0000     -0.0000
            y      -0.0000     -2.4696     -0.0000
            z      -0.0000     -0.0000     -2.4696
-------------------------------------------------------------------------------
    3 Li    x       1.3129     -0.0000     -0.0000
            y      -0.0000      1.3129      0.0000
            z      -0.0000     -0.0000      0.7918
-------------------------------------------------------------------------------




  Elastic Constant Matrix: (Units=GPa)

-------------------------------------------------------------------------------
  Indices      1         2         3         4         5         6    
-------------------------------------------------------------------------------
       1     94.4615   45.0779   45.0779    0.0000   -0.0000    0.0000
       2     45.0779   94.4615   45.0779   -0.0000    0.0000   -0.0000
       3     45.0779   45.0779   94.4615   -0.0000   -0.0000   -0.0000
       4      0.0000   -0.0000   -0.0000   45.0779   -0.0000   -0.0000
       5     -0.0000    0.0000   -0.0000   -0.0000   45.0779   -0.0000
       6      0.0000   -0.0000   -0.0000   -0.0000   -0.0000   45.0779
-------------------------------------------------------------------------------


  Elastic Compliance Matrix: (Units=1/GPa)

-------------------------------------------------------------------------------
  Indices      1         2         3         4         5         6    
-------------------------------------------------------------------------------
       1    0.015305 -0.004944 -0.004944 -0.000000  0.000000 -0.000000
       2   -0.004944  0.015305 -0.004944  0.000000 -0.000000  0.000000
       3   -0.004944 -0.004944  0.015305  0.000000  0.000000  0.000000
       4   -0.000000  0.000000  0.000000  0.022184  0.000000  0.000000
       5    0.000000 -0.000000  0.000000  0.000000  0.022184  0.000000
       6   -0.000000  0.000000  0.000000  0.000000  0.000000  0.022184
-------------------------------------------------------------------------------

  Mechanical properties :

-------------------------------------------------------------------------------
  Convention :                    Reuss         Voigt         Hill
-------------------------------------------------------------------------------
  Bulk  Modulus (GPa)     =      61.53912      61.53912      61.53912
  Shear Modulus (GPa)     =      33.88682      36.92346      35.40514
-------------------------------------------------------------------------------
  Velocity S-wave (km/s)  =       4.12240       4.30314       4.21374
  Velocity P-wave (km/s)  =       7.31578       7.45327       7.38484
-------------------------------------------------------------------------------
  Compressibility (1/GPa) =    0.01624983
-------------------------------------------------------------------------------
  Stress axis :                     x             y             z
-------------------------------------------------------------------------------
  Youngs Moduli (GPa)     =      65.33688      65.33688      65.33688
-------------------------------------------------------------------------------
  Poissons Ratio (x)      =                     0.32305       0.32305
  Poissons Ratio (y)      =       0.32305                     0.32305
  Poissons Ratio (z)      =       0.32305       0.32305
-------------------------------------------------------------------------------


  Piezoelectric Strain Matrix: (Units=C/m**2)

-------------------------------------------------------------------------------
  Indices      1         2         3         4         5         6    
-------------------------------------------------------------------------------
       x    -0.00000   0.00000   0.00000   0.00000   0.00000   0.00000
       y    -0.00000  -0.00000  -0.00000   0.00000   0.00000  -0.00000
       z    -0.00000  -0.00000   0.00000   0.00000  -0.00000   0.00000
-------------------------------------------------------------------------------


  Piezoelectric Stress Matrix: (Units=10**-11 C/N)

-------------------------------------------------------------------------------
  Indices      1         2         3         4         5         6    
-------------------------------------------------------------------------------
       x    -0.00000   0.00000   0.00000   0.00000   0.00000   0.00000
       y     0.00000   0.00000  -0.00000   0.00000   0.00000  -0.00000
       z    -0.00000  -0.00000   0.00000   0.00000  -0.00000   0.00000
-------------------------------------------------------------------------------


  Static dielectric constant tensor : 

-------------------------------------------------------------------------------
              x         y         z
-------------------------------------------------------------------------------
       x    12.07041   0.00000   0.00000
       y     0.00000  12.07041   0.00000
       z     0.00000   0.00000  12.07041
--------------------------------------------------------------------------------

  High frequency dielectric constant tensor : 

-------------------------------------------------------------------------------
              x         y         z
-------------------------------------------------------------------------------
       x     1.74197  -0.00000  -0.00000
       y    -0.00000   1.74197  -0.00000
       z    -0.00000  -0.00000   1.74197
-------------------------------------------------------------------------------

  Static refractive indices : 

-------------------------------------------------------------------------------
    1 =    3.47425      2 =    3.47425      3 =    3.47425
-------------------------------------------------------------------------------

  High frequency refractive indices : 

-------------------------------------------------------------------------------
    1 =    1.31984      2 =    1.31984      3 =    1.31984
-------------------------------------------------------------------------------


  Time to end of optimisation =       0.0237 seconds

********************************************************************************
*  Defect calculation for configuration   1 :                                  *
********************************************************************************

  Total number of defects =      1

  Total charge on defect  =   1.00

  Defect centre is at   0.5000   0.5000   0.0000  Frac

  Region 1 radius =  16.0000      Number of ions =   2034

  Number of symmetry inequivalent region 1 ions  =    196

  Region 2 radius =  20.0000      Number of ions =   1870

  Number of symmetry inequivalent region 2a ions =    153

  Region 2a mode = 4 : screened electrostatics due to region 1 
                       neglect correction to region 1 forces from 2a
                       region 2a displacements based on defects only

  Region 2a ions will only interact with defects in region 1

  Impurities:

--------------------------------------------------------------------------------
    Specification type     Symbol/Number         x          y          z
--------------------------------------------------------------------------------
    Frac/Symbol             Mg               0.500000   0.500000   0.000000
--------------------------------------------------------------------------------


  Symmetry reduced region 1 (Relative to defect centre) :

--------------------------------------------------------------------------------
   No.   Atomic       x            y             z       Radius  Multiplicity   
         Label      (Angs)       (Angs)        (Angs)    (Angs)     
--------------------------------------------------------------------------------
     1  Mg    c      0.0000       0.0000       0.0000    0.0000     1    Defect
     2  O     c      0.0000       0.0000      -1.9594 *  0.0000     2          
     3  Cl    c      1.9594 *     1.9594       0.0000    0.0000     4          
     4  Li    c      1.9594 *     0.0000      -1.9594 *  0.0000     8          
     5  Li    c      0.0000       0.0000       3.9189 *  0.0000     2          
     6  Li    c      0.0000       3.9189 *     0.0000    0.0000     4          
     7  O     c      0.0000       3.9189 *    -1.9594 *  0.0000     8          
     8  Cl    c      1.9594 *     1.9594       3.9189 *  0.0000     8          
     9  Li    c      1.9594 *     3.9189 *    -1.9594 *  0.0000    16          
    10  Li    c      0.0000       3.9189 *     3.9189 *  0.0000     8          
    11  Li    c      3.9189 *     3.9189       0.0000    0.0000     4          
    12  O     c      0.0000       0.0000       5.8783 *  0.0000     2          
    13  O     c      3.9189 *     3.9189      -1.9594 *  0.0000     8          
    14  Cl    c      1.9594 *     5.8783 *     0.0000    0.0000     8          
    15  Li    c      1.9594 *     0.0000       5.8783 *  0.0000     8          
    16  Li    c      5.8783 *     0.0000      -1.9594 *  0.0000     8          
    17  Li    c      3.9189 *     3.9189       3.9189 *  0.0000     8          
    18  O     c      0.0000       3.9189 *     5.8783 *  0.0000     8          
    19  Cl    c      1.9594 *     5.8783 *     3.9189 *  0.0000    16          
    20  Li    c      1.9594 *     3.9189 *     5.8783 *  0.0000    16          
    21  Li    c      5.8783 *     3.9189 *    -1.9594 *  0.0000    16          
    22  Li    c      0.0000       7.8377 *     0.0000    0.0000     4          
    23  Li    c      0.0000       0.0000       7.8377 *  0.0000     2          
    24  O     c      0.0000       7.8377 *    -1.9594 *  0.0000     8          
    25  O     c      3.9189 *     3.9189       5.8783 *  0.0000     8          
    26  Li    c      1.9594 *     7.8377 *    -1.9594 *  0.0000    16          
    27  Cl    c      1.9594 *     1.9594       7.8377 *  0.0000     8          
    28  Cl    c      5.8783 *     5.8783       0.0000    0.0000     4          
    29  Li    c      5.8783 *     0.0000       5.8783 *  0.0000     8          
    30  Li    c      0.0000       7.8377 *     3.9189 *  0.0000     8          
    31  Li    c      3.9189 *     7.8377 *     0.0000    0.0000     8          
    32  Li    c      0.0000       3.9189 *     7.8377 *  0.0000     8          
    33  O     c      3.9189 *     7.8377 *    -1.9594 *  0.0000    16          
    34  Cl    c      5.8783 *     5.8783       3.9189 *  0.0000     8          
    35  Li    c      5.8783 *     3.9189 *     5.8783 *  0.0000    16          
    36  Li    c      3.9189 *     7.8377 *     3.9189 *  0.0000    16          
    37  Li    c      3.9189 *     3.9189       7.8377 *  0.0000     8          
    38  O     c      0.0000       0.0000       9.7972 *  0.0000     2          
    39  O     c      0.0000       7.8377 *     5.8783 *  0.0000     8          
    40  Cl    c      1.9594 *     5.8783 *     7.8377 *  0.0000    16          
    41  Cl    c      1.9594 *     9.7972 *     0.0000    0.0000     8          
    42  Li    c      1.9594 *     0.0000       9.7972 *  0.0000     8          
    43  Li    c      1.9594 *     7.8377 *     5.8783 *  0.0000    16          
    44  Li    c      5.8783 *     7.8377 *    -1.9594 *  0.0000    16          
    45  Li    c      9.7972 *     0.0000      -1.9594 *  0.0000     8          
    46  O     c      0.0000       3.9189 *     9.7972 *  0.0000     8          
    47  O     c      3.9189 *     7.8377 *     5.8783 *  0.0000    16          
    48  Li    c      1.9594 *     3.9189 *     9.7972 *  0.0000    16          
    49  Cl    c      1.9594 *     9.7972 *     3.9189 *  0.0000    16          
    50  Li    c      9.7972 *     3.9189 *    -1.9594 *  0.0000    16          
    51  Li    c      7.8377 *     7.8377       0.0000    0.0000     4          
    52  Li    c      0.0000       7.8377 *     7.8377 *  0.0000     8          
    53  O     c      7.8377 *     7.8377      -1.9594 *  0.0000     8          
    54  O     c      3.9189 *     3.9189       9.7972 *  0.0000     8          
    55  Cl    c      5.8783 *     5.8783       7.8377 *  0.0000     8          
    56  Cl    c      5.8783 *     9.7972 *     0.0000    0.0000     8          
    57  Li    c      5.8783 *     0.0000       9.7972 *  0.0000     8          
    58  Li    c      5.8783 *     7.8377 *     5.8783 *  0.0000    16          
    59  Li    c      9.7972 *     0.0000       5.8783 *  0.0000     8          
    60  Li    c      0.0000     -11.7566 *     0.0000    0.0000     4          
    61  Li    c      3.9189 *     7.8377 *     7.8377 *  0.0000    16          
    62  Li    c      7.8377 *     7.8377       3.9189 *  0.0000     8          
    63  Li    c      0.0000       0.0000      11.7566 *  0.0000     2          
    64  O     c      0.0000     -11.7566 *    -1.9594 *  0.0000     8          
    65  Li    c      1.9594 *   -11.7566 *    -1.9594 *  0.0000    16          
    66  Cl    c      5.8783 *     9.7972 *     3.9189 *  0.0000    16          
    67  Li    c      5.8783 *     3.9189 *     9.7972 *  0.0000    16          
    68  Li    c      9.7972 *     3.9189 *     5.8783 *  0.0000    16          
    69  Cl    c      1.9594 *     1.9594      11.7566 *  0.0000     8          
    70  Li    c      0.0000     -11.7566 *     3.9189 *  0.0000     8          
    71  Li    c      3.9189 *   -11.7566 *     0.0000    0.0000     8          
    72  Li    c      0.0000       3.9189 *    11.7566 *  0.0000     8          
    73  O     c      3.9189 *   -11.7566 *    -1.9594 *  0.0000    16          
    74  O     c      0.0000       7.8377 *     9.7972 *  0.0000     8          
    75  O     c      7.8377 *     7.8377       5.8783 *  0.0000     8          
    76  Li    c      1.9594 *     7.8377 *     9.7972 *  0.0000    16          
    77  Li    c      9.7972 *     7.8377 *    -1.9594 *  0.0000    16          
    78  Cl    c      1.9594 *     9.7972 *     7.8377 *  0.0000    16          
    79  Li    c      3.9189 *   -11.7566 *     3.9189 *  0.0000    16          
    80  Li    c      3.9189 *     3.9189      11.7566 *  0.0000     8          
    81  O     c      0.0000     -11.7566 *     5.8783 *  0.0000     8          
    82  O     c      3.9189 *     7.8377 *     9.7972 *  0.0000    16          
    83  Li    c      1.9594 *   -11.7566 *     5.8783 *  0.0000    16          
    84  Li    c      5.8783 *   -11.7566 *    -1.9594 *  0.0000    16          
    85  Cl    c      1.9594 *     5.8783 *    11.7566 *  0.0000    16          
    86  Li    c      7.8377 *     7.8377       7.8377 *  0.0000     8          
    87  O     c      3.9189 *   -11.7566 *     5.8783 *  0.0000    16          
    88  O     c      0.0000       0.0000      13.7161 *  0.0000     2          
    89  Cl    c      1.9594 *   -13.7161 *     0.0000    0.0000     8          
    90  Li    c    -13.7161 *     0.0000      -1.9594 *  0.0000     8          
    91  Cl    c      9.7972 *     9.7972       0.0000    0.0000     4          
    92  Li    c      1.9594 *     0.0000      13.7161 *  0.0000     8          
    93  Li    c      5.8783 *     7.8377 *     9.7972 *  0.0000    16          
    94  Li    c      9.7972 *     0.0000       9.7972 *  0.0000     8          
    95  Li    c      9.7972 *     7.8377 *     5.8783 *  0.0000    16          
    96  Cl    c      5.8783 *     9.7972 *     7.8377 *  0.0000    16          
    97  Li    c      7.8377 *   -11.7566 *     0.0000    0.0000     8          
    98  Li    c      0.0000     -11.7566 *     7.8377 *  0.0000     8          
    99  Li    c      0.0000       7.8377 *    11.7566 *  0.0000     8          
   100  O     c      7.8377 *   -11.7566 *    -1.9594 *  0.0000    16          
   101  O     c      0.0000       3.9189 *    13.7161 *  0.0000     8          
   102  Cl    c      1.9594 *   -13.7161 *     3.9189 *  0.0000    16          
   103  Li    c    -13.7161 *     3.9189 *    -1.9594 *  0.0000    16          
   104  Li    c      5.8783 *   -11.7566 *     5.8783 *  0.0000    16          
   105  Cl    c      9.7972 *     9.7972       3.9189 *  0.0000     8          
   106  Li    c      9.7972 *     3.9189 *     9.7972 *  0.0000    16          
   107  Li    c      1.9594 *     3.9189 *    13.7161 *  0.0000    16          
   108  Cl    c      5.8783 *     5.8783      11.7566 *  0.0000     8          
   109  Li    c      7.8377 *   -11.7566 *     3.9189 *  0.0000    16          
   110  Li    c      3.9189 *   -11.7566 *     7.8377 *  0.0000    16          
   111  Li    c      3.9189 *     7.8377 *    11.7566 *  0.0000    16          
   112  O     c      7.8377 *     7.8377       9.7972 *  0.0000     8          
   113  O     c      3.9189 *     3.9189      13.7161 *  0.0000     8          
   114  Cl    c      5.8783 *   -13.7161 *     0.0000    0.0000     8          
   115  Li    c    -13.7161 *     0.0000       5.8783 *  0.0000     8          
   116  Li    c      5.8783 *     0.0000      13.7161 *  0.0000     8          
   117  O     c      0.0000     -11.7566 *     9.7972 *  0.0000     8          
   118  O     c      7.8377 *   -11.7566 *     5.8783 *  0.0000    16          
   119  Cl    c      5.8783 *   -13.7161 *     3.9189 *  0.0000    16          
   120  Li    c      9.7972 *   -11.7566 *    -1.9594 *  0.0000    16          
   121  Li    c    -13.7161 *     3.9189 *     5.8783 *  0.0000    16          
   122  Li    c      1.9594 *   -11.7566 *     9.7972 *  0.0000    16          
   123  Cl    c      1.9594 *     9.7972 *    11.7566 *  0.0000    16          
   124  Li    c      5.8783 *     3.9189 *    13.7161 *  0.0000    16          
   125  Li    c      0.0000       0.0000      15.6755 *  0.0000     2          
   126  Li    c      0.0000      15.6755 *     0.0000    0.0000     4          
   127  O     c      3.9189 *   -11.7566 *     9.7972 *  0.0000    16          
   128  O     c      0.0000       7.8377 *    13.7161 *  0.0000     8          
   129  O     c      0.0000      15.6755 *    -1.9594 *  0.0000     8          
   130  Li    c    -13.7161 *     7.8377 *    -1.9594 *  0.0000    16          
   131  Cl    c      1.9594 *   -13.7161 *     7.8377 *  0.0000    16          
   132  Li    c      1.9594 *     7.8377 *    13.7161 *  0.0000    16          
   133  Li    c      9.7972 *     7.8377 *     9.7972 *  0.0000    16          
   134  Cl    c      9.7972 *     9.7972       7.8377 *  0.0000     8          
   135  Li    c      1.9594 *    15.6755 *    -1.9594 *  0.0000    16          
   136  Cl    c      1.9594 *     1.9594      15.6755 *  0.0000     8          
   137  Mg    s      0.0000       0.0000       0.0000    0.0000     1    Defect
   138  O     s      0.0000       0.0000      -1.9594 *  0.0000     2          
   139  Cl    s      1.9594 *     1.9594       0.0000    0.0000     4          
   140  O     s      0.0000       3.9189 *    -1.9594 *  0.0000     8          
   141  Cl    s      1.9594 *     1.9594       3.9189 *  0.0000     8          
   142  O     s      0.0000       0.0000       5.8783 *  0.0000     2          
   143  O     s      3.9189 *     3.9189      -1.9594 *  0.0000     8          
   144  Cl    s      1.9594 *     5.8783 *     0.0000    0.0000     8          
   145  O     s      0.0000       3.9189 *     5.8783 *  0.0000     8          
   146  Cl    s      1.9594 *     5.8783 *     3.9189 *  0.0000    16          
   147  O     s      0.0000       7.8377 *    -1.9594 *  0.0000     8          
   148  O     s      3.9189 *     3.9189       5.8783 *  0.0000     8          
   149  Cl    s      1.9594 *     1.9594       7.8377 *  0.0000     8          
   150  Cl    s      5.8783 *     5.8783       0.0000    0.0000     4          
   151  O     s      3.9189 *     7.8377 *    -1.9594 *  0.0000    16          
   152  Cl    s      5.8783 *     5.8783       3.9189 *  0.0000     8          
   153  O     s      0.0000       0.0000       9.7972 *  0.0000     2          
   154  O     s      0.0000       7.8377 *     5.8783 *  0.0000     8          
   155  Cl    s      1.9594 *     5.8783 *     7.8377 *  0.0000    16          
   156  Cl    s      1.9594 *     9.7972 *     0.0000    0.0000     8          
   157  O     s      0.0000       3.9189 *     9.7972 *  0.0000     8          
   158  O     s      3.9189 *     7.8377 *     5.8783 *  0.0000    16          
   159  Cl    s      1.9594 *     9.7972 *     3.9189 *  0.0000    16          
   160  O     s      7.8377 *     7.8377      -1.9594 *  0.0000     8          
   161  O     s      3.9189 *     3.9189       9.7972 *  0.0000     8          
   162  Cl    s      5.8783 *     5.8783       7.8377 *  0.0000     8          
   163  Cl    s      5.8783 *     9.7972 *     0.0000    0.0000     8          
   164  O     s      0.0000     -11.7566 *    -1.9594 *  0.0000     8          
   165  Cl    s      5.8783 *     9.7972 *     3.9189 *  0.0000    16          
   166  Cl    s      1.9594 *     1.9594      11.7566 *  0.0000     8          
   167  O     s      3.9189 *   -11.7566 *    -1.9594 *  0.0000    16          
   168  O     s      0.0000       7.8377 *     9.7972 *  0.0000     8          
   169  O     s      7.8377 *     7.8377       5.8783 *  0.0000     8          
   170  Cl    s      1.9594 *     9.7972 *     7.8377 *  0.0000    16          
   171  O     s      0.0000     -11.7566 *     5.8783 *  0.0000     8          
   172  O     s      3.9189 *     7.8377 *     9.7972 *  0.0000    16          
   173  Cl    s      1.9594 *     5.8783 *    11.7566 *  0.0000    16          
   174  O     s      3.9189 *   -11.7566 *     5.8783 *  0.0000    16          
   175  O     s      0.0000       0.0000      13.7161 *  0.0000     2          
   176  Cl    s      1.9594 *   -13.7161 *     0.0000    0.0000     8          
   177  Cl    s      9.7972 *     9.7972       0.0000    0.0000     4          
   178  Cl    s      5.8783 *     9.7972 *     7.8377 *  0.0000    16          
   179  O     s      7.8377 *   -11.7566 *    -1.9594 *  0.0000    16          
   180  O     s      0.0000       3.9189 *    13.7161 *  0.0000     8          
   181  Cl    s      1.9594 *   -13.7161 *     3.9189 *  0.0000    16          
   182  Cl    s      9.7972 *     9.7972       3.9189 *  0.0000     8          
   183  Cl    s      5.8783 *     5.8783      11.7566 *  0.0000     8          
   184  O     s      7.8377 *     7.8377       9.7972 *  0.0000     8          
   185  O     s      3.9189 *     3.9189      13.7161 *  0.0000     8          
   186  Cl    s      5.8783 *   -13.7161 *     0.0000    0.0000     8          
   187  O     s      0.0000     -11.7566 *     9.7972 *  0.0000     8          
   188  O     s      7.8377 *   -11.7566 *     5.8783 *  0.0000    16          
   189  Cl    s      5.8783 *   -13.7161 *     3.9189 *  0.0000    16          
   190  Cl    s      1.9594 *     9.7972 *    11.7566 *  0.0000    16          
   191  O     s      3.9189 *   -11.7566 *     9.7972 *  0.0000    16          
   192  O     s      0.0000       7.8377 *    13.7161 *  0.0000     8          
   193  O     s      0.0000      15.6755 *    -1.9594 *  0.0000     8          
   194  Cl    s      1.9594 *   -13.7161 *     7.8377 *  0.0000    16          
   195  Cl    s      9.7972 *     9.7972       7.8377 *  0.0000     8          
   196  Cl    s      1.9594 *     1.9594      15.6755 *  0.0000     8          
--------------------------------------------------------------------------------


  Constraints on symmetry reduced coordinates :

--------------------------------------------------------------------------------
  Constraint no.      Unconstrained     Constrained    Coefficient    
                         Variable         Variable
--------------------------------------------------------------------------------
           1                 3 x             3 y         1.00000
           2                 8 x             8 y         1.00000
           3                11 x            11 y         1.00000
           4                13 x            13 y         1.00000
           5                17 x            17 y         1.00000
           6                25 x            25 y         1.00000
           7                27 x            27 y         1.00000
           8                28 x            28 y         1.00000
           9                34 x            34 y         1.00000
          10                37 x            37 y         1.00000
          11                51 x            51 y         1.00000
          12                53 x            53 y         1.00000
          13                54 x            54 y         1.00000
          14                55 x            55 y         1.00000
          15                62 x            62 y         1.00000
          16                69 x            69 y         1.00000
          17                75 x            75 y         1.00000
          18                80 x            80 y         1.00000
          19                86 x            86 y         1.00000
          20                91 x            91 y         1.00000
          21               105 x           105 y         1.00000
          22               108 x           108 y         1.00000
          23               112 x           112 y         1.00000
          24               113 x           113 y         1.00000
          25               134 x           134 y         1.00000
          26               136 x           136 y         1.00000
          27               139 x           139 y         1.00000
          28               141 x           141 y         1.00000
          29               143 x           143 y         1.00000
          30               148 x           148 y         1.00000
          31               149 x           149 y         1.00000
          32               150 x           150 y         1.00000
          33               152 x           152 y         1.00000
          34               160 x           160 y         1.00000
          35               161 x           161 y         1.00000
          36               162 x           162 y         1.00000
          37               166 x           166 y         1.00000
          38               169 x           169 y         1.00000
          39               177 x           177 y         1.00000
          40               182 x           182 y         1.00000
          41               183 x           183 y         1.00000
          42               184 x           184 y         1.00000
          43               185 x           185 y         1.00000
          44               195 x           195 y         1.00000
          45               196 x           196 y         1.00000
--------------------------------------------------------------------------------


  Components of defect energy : 

--------------------------------------------------------------------------------
  Region 1 - region 1                   =    -27.29807223 eV
  Region 1 - region 2a (unrelaxed)      =     17.04107169 eV
  Region 1 - 2a (relaxed - correction)  =     -0.15918559 eV
  Region 1 (Total)                      =    -10.41618612 eV
  Region 2a                             =      0.07959844 eV
  Region 2b                             =     -0.33005010 eV
--------------------------------------------------------------------------------
  Total defect energy                   =    -10.66663778 eV
--------------------------------------------------------------------------------

  Largest displacement in region 2 =   0.0049 Angstroms


  Number of variables =      439

  Maximum number of calculations  =        1000
  Maximum Hessian update interval =          10
  Maximum step size               =   1.0000000
  Maximum parameter tolerance     =   0.0000100
  Maximum function  tolerance     =   0.0000100
  Maximum gradient  tolerance     =   0.0010000

  Symmetry adapted optimisation

  Symmetry to be used for second derivatives

  Newton-Raphson optimiser to be used

  BFGS hessian update to be used

  Lower half triangular hessian to be used

  Start of defect optimisation :

  Cycle:      0 Defect Energy: -10.666638  Gnorm:     0.121509  CPU:   11.559
  ** Hessian calculated **
  Cycle:      1 Defect Energy: -14.044124  Gnorm:     0.025402  CPU:   18.877
  Cycle:      2 Defect Energy: -14.433719  Gnorm:     0.004940  CPU:   24.208
  Cycle:      3 Defect Energy: -14.443084  Gnorm:     0.003320  CPU:   25.759
  Cycle:      4 Defect Energy: -14.448034  Gnorm:     0.002284  CPU:   27.399
  Cycle:      5 Defect Energy: -14.450471  Gnorm:     0.001599  CPU:   29.074
  Cycle:      6 Defect Energy: -14.451642  Gnorm:     0.001117  CPU:   30.439
  Cycle:      7 Defect Energy: -14.452204  Gnorm:     0.000782  CPU:   32.100
  Cycle:      8 Defect Energy: -14.452471  Gnorm:     0.000547  CPU:   34.030
  Cycle:      9 Defect Energy: -14.452596  Gnorm:     0.000383  CPU:   36.009
  Cycle:     10 Defect Energy: -14.452654  Gnorm:     0.000268  CPU:   38.022
  ** Hessian calculated **
  Cycle:     11 Defect Energy: -14.452680  Gnorm:     0.000188  CPU:   43.148
  Cycle:     12 Defect Energy: -14.452691  Gnorm:     0.000131  CPU:   45.001
  Cycle:     13 Defect Energy: -14.452695  Gnorm:     0.000092  CPU:   46.231
  Cycle:     14 Defect Energy: -14.452696  Gnorm:     0.000064  CPU:   48.097
  Cycle:     15 Defect Energy: -14.452696  Gnorm:     0.000045  CPU:   49.982


  **** Optimisation achieved ****


  Final defect energy  =      -14.45269586
  Final defect Gnorm   =        0.00003152

  Components of defect energy : 

--------------------------------------------------------------------------------
  Region 1 - region 1                   =    -31.34483013 eV
  Region 1 - region 2a (unrelaxed)      =     17.28614239 eV
  Region 1 - 2a (relaxed - correction)  =     -0.12791217 eV
  Region 1 (Total)                      =    -14.18659991 eV
  Region 2a                             =      0.06395416 eV
  Region 2b                             =     -0.33005010 eV
--------------------------------------------------------------------------------
  Total defect energy                   =    -14.45269586 eV
--------------------------------------------------------------------------------

  Largest displacement in region 2 =   0.0049 Angstroms

  Final coordinates of region 1 :

--------------------------------------------------------------------------------
   No.  Atomic        x           y           z          Radius      Charge
        Label       (Angs)      (Angs)      (Angs)       (Angs)       (e) 
--------------------------------------------------------------------------------
     1  Mg    c     1.959436    1.959436    0.000000    0.000000    0.415000
     2  O     c     1.959436    1.959436   -1.909643    0.000000    0.183000
     3  O     c     1.959436    1.959436    1.909643    0.000000    0.183000
     4  Cl    c     3.760674    3.760674    0.000000    0.000000    1.485000
     5  Cl    c     3.760674    0.158199    0.000000    0.000000    1.485000
     6  Cl    c     0.158199    3.760674    0.000000    0.000000    1.485000
     7  Cl    c     0.158199    0.158199    0.000000    0.000000    1.485000
     8  Li    c     3.988554    1.959436   -2.078825    0.000000    1.000000
     9  Li    c     3.988554    1.959436    2.078825    0.000000    1.000000
    10  Li    c    -0.069681    1.959436   -2.078825    0.000000    1.000000
    11  Li    c    -0.069681    1.959436    2.078825    0.000000    1.000000
    12  Li    c     1.959436    3.988554   -2.078825    0.000000    1.000000
    13  Li    c     1.959436    3.988554    2.078825    0.000000    1.000000
    14  Li    c     1.959436   -0.069681   -2.078825    0.000000    1.000000
    15  Li    c     1.959436   -0.069681    2.078825    0.000000    1.000000
    16  Li    c     1.959436    1.959436    3.950634    0.000000    1.000000
    17  Li    c     1.959436    1.959436   -3.950634    0.000000    1.000000
    18  Li    c     1.959436    5.873959    0.000000    0.000000    1.000000
    19  Li    c     1.959436   -1.955086    0.000000    0.000000    1.000000
    20  Li    c     5.873959    1.959436    0.000000    0.000000    1.000000
    21  Li    c    -1.955086    1.959436    0.000000    0.000000    1.000000
    22  O     c     1.959436    5.892918   -1.972571    0.000000    0.183000
    23  O     c     1.959436    5.892918    1.972571    0.000000    0.183000
    24  O     c     1.959436   -1.974045   -1.972571    0.000000    0.183000
    25  O     c     1.959436   -1.974045    1.972571    0.000000    0.183000
    26  O     c     5.892918    1.959436   -1.972571    0.000000    0.183000
    27  O     c     5.892918    1.959436    1.972571    0.000000    0.183000
    28  O     c    -1.974045    1.959436   -1.972571    0.000000    0.183000
    29  O     c    -1.974045    1.959436    1.972571    0.000000    0.183000
    30  Cl    c     3.903186    3.903186    3.906104    0.000000    1.485000
    31  Cl    c     3.903186    3.903186   -3.906104    0.000000    1.485000
    32  Cl    c     3.903186    0.015687    3.906104    0.000000    1.485000
    33  Cl    c     3.903186    0.015687   -3.906104    0.000000    1.485000
    34  Cl    c     0.015687    3.903186    3.906104    0.000000    1.485000
    35  Cl    c     0.015687    3.903186   -3.906104    0.000000    1.485000
    36  Cl    c     0.015687    0.015687    3.906104    0.000000    1.485000
    37  Cl    c     0.015687    0.015687   -3.906104    0.000000    1.485000
    38  Li    c     3.921007    5.913308   -1.983094    0.000000    1.000000
    39  Li    c     3.921007    5.913308    1.983094    0.000000    1.000000
    40  Li    c     3.921007   -1.994435   -1.983094    0.000000    1.000000
    41  Li    c     3.921007   -1.994435    1.983094    0.000000    1.000000
    42  Li    c    -0.002134    5.913308   -1.983094    0.000000    1.000000
    43  Li    c    -0.002134    5.913308    1.983094    0.000000    1.000000
    44  Li    c    -0.002134   -1.994435   -1.983094    0.000000    1.000000
    45  Li    c    -0.002134   -1.994435    1.983094    0.000000    1.000000
    46  Li    c     5.913308    3.921007   -1.983094    0.000000    1.000000
    47  Li    c     5.913308    3.921007    1.983094    0.000000    1.000000
    48  Li    c     5.913308   -0.002134   -1.983094    0.000000    1.000000
    49  Li    c     5.913308   -0.002134    1.983094    0.000000    1.000000
    50  Li    c    -1.994435    3.921007   -1.983094    0.000000    1.000000
    51  Li    c    -1.994435    3.921007    1.983094    0.000000    1.000000
    52  Li    c    -1.994435   -0.002134   -1.983094    0.000000    1.000000
    53  Li    c    -1.994435   -0.002134    1.983094    0.000000    1.000000
    54  Li    c     1.959436    5.944264    3.949169    0.000000    1.000000
    55  Li    c     1.959436    5.944264   -3.949169    0.000000    1.000000
    56  Li    c     1.959436   -2.025391    3.949169    0.000000    1.000000
    57  Li    c     1.959436   -2.025391   -3.949169    0.000000    1.000000
    58  Li    c     5.944264    1.959436    3.949169    0.000000    1.000000
    59  Li    c     5.944264    1.959436   -3.949169    0.000000    1.000000
    60  Li    c    -2.025391    1.959436    3.949169    0.000000    1.000000
    61  Li    c    -2.025391    1.959436   -3.949169    0.000000    1.000000
    62  Li    c     5.907001    5.907001    0.000000    0.000000    1.000000
    63  Li    c     5.907001   -1.988128    0.000000    0.000000    1.000000
    64  Li    c    -1.988128    5.907001    0.000000    0.000000    1.000000
    65  Li    c    -1.988128   -1.988128    0.000000    0.000000    1.000000
    66  O     c     1.959436    1.959436    5.876681    0.000000    0.183000
    67  O     c     1.959436    1.959436   -5.876681    0.000000    0.183000
    68  O     c     5.860968    5.860968   -1.945953    0.000000    0.183000
    69  O     c     5.860968    5.860968    1.945953    0.000000    0.183000
    70  O     c     5.860968   -1.942095   -1.945953    0.000000    0.183000
    71  O     c     5.860968   -1.942095    1.945953    0.000000    0.183000
    72  O     c    -1.942095    5.860968   -1.945953    0.000000    0.183000
    73  O     c    -1.942095    5.860968    1.945953    0.000000    0.183000
    74  O     c    -1.942095   -1.942095   -1.945953    0.000000    0.183000
    75  O     c    -1.942095   -1.942095    1.945953    0.000000    0.183000
    76  Cl    c     3.916776    7.812575    0.000000    0.000000    1.485000
    77  Cl    c     3.916776   -3.893702    0.000000    0.000000    1.485000
    78  Cl    c     7.812575    3.916776    0.000000    0.000000    1.485000
    79  Cl    c     7.812575    0.002097    0.000000    0.000000    1.485000
    80  Cl    c     0.002097    7.812575    0.000000    0.000000    1.485000
    81  Cl    c     0.002097   -3.893702    0.000000    0.000000    1.485000
    82  Cl    c    -3.893702    3.916776    0.000000    0.000000    1.485000
    83  Cl    c    -3.893702    0.002097    0.000000    0.000000    1.485000
    84  Li    c     3.926147    1.959436    5.892408    0.000000    1.000000
    85  Li    c     3.926147    1.959436   -5.892408    0.000000    1.000000
    86  Li    c    -0.007274    1.959436    5.892408    0.000000    1.000000
    87  Li    c    -0.007274    1.959436   -5.892408    0.000000    1.000000
    88  Li    c     1.959436    3.926147    5.892408    0.000000    1.000000
    89  Li    c     1.959436    3.926147   -5.892408    0.000000    1.000000
    90  Li    c     1.959436   -0.007274    5.892408    0.000000    1.000000
    91  Li    c     1.959436   -0.007274   -5.892408    0.000000    1.000000
    92  Li    c     7.854132    1.959436   -1.946780    0.000000    1.000000
    93  Li    c     7.854132    1.959436    1.946780    0.000000    1.000000
    94  Li    c    -3.935259    1.959436   -1.946780    0.000000    1.000000
    95  Li    c    -3.935259    1.959436    1.946780    0.000000    1.000000
    96  Li    c     1.959436    7.854132   -1.946780    0.000000    1.000000
    97  Li    c     1.959436    7.854132    1.946780    0.000000    1.000000
    98  Li    c     1.959436   -3.935259   -1.946780    0.000000    1.000000
    99  Li    c     1.959436   -3.935259    1.946780    0.000000    1.000000
   100  Li    c     5.883610    5.883610    3.926598    0.000000    1.000000
   101  Li    c     5.883610    5.883610   -3.926598    0.000000    1.000000
   102  Li    c     5.883610   -1.964737    3.926598    0.000000    1.000000
   103  Li    c     5.883610   -1.964737   -3.926598    0.000000    1.000000
   104  Li    c    -1.964737    5.883610    3.926598    0.000000    1.000000
   105  Li    c    -1.964737    5.883610   -3.926598    0.000000    1.000000
   106  Li    c    -1.964737   -1.964737    3.926598    0.000000    1.000000
   107  Li    c    -1.964737   -1.964737   -3.926598    0.000000    1.000000
   108  O     c     1.959436    5.885742    5.883545    0.000000    0.183000
   109  O     c     1.959436    5.885742   -5.883545    0.000000    0.183000
   110  O     c     1.959436   -1.966869    5.883545    0.000000    0.183000
   111  O     c     1.959436   -1.966869   -5.883545    0.000000    0.183000
   112  O     c     5.885742    1.959436    5.883545    0.000000    0.183000
   113  O     c     5.885742    1.959436   -5.883545    0.000000    0.183000
   114  O     c    -1.966869    1.959436    5.883545    0.000000    0.183000
   115  O     c    -1.966869    1.959436   -5.883545    0.000000    0.183000
   116  Cl    c     3.921386    7.830611    3.916108    0.000000    1.485000
   117  Cl    c     3.921386    7.830611   -3.916108    0.000000    1.485000
   118  Cl    c     3.921386   -3.911738    3.916108    0.000000    1.485000
   119  Cl    c     3.921386   -3.911738   -3.916108    0.000000    1.485000
   120  Cl    c     7.830611    3.921386    3.916108    0.000000    1.485000
   121  Cl    c     7.830611    3.921386   -3.916108    0.000000    1.485000
   122  Cl    c     7.830611   -0.002513    3.916108    0.000000    1.485000
   123  Cl    c     7.830611   -0.002513   -3.916108    0.000000    1.485000
   124  Cl    c    -0.002513    7.830611    3.916108    0.000000    1.485000
   125  Cl    c    -0.002513    7.830611   -3.916108    0.000000    1.485000
   126  Cl    c    -0.002513   -3.911738    3.916108    0.000000    1.485000
   127  Cl    c    -0.002513   -3.911738   -3.916108    0.000000    1.485000
   128  Cl    c    -3.911738    3.921386    3.916108    0.000000    1.485000
   129  Cl    c    -3.911738    3.921386   -3.916108    0.000000    1.485000
   130  Cl    c    -3.911738   -0.002513    3.916108    0.000000    1.485000
   131  Cl    c    -3.911738   -0.002513   -3.916108    0.000000    1.485000
   132  Li    c     3.921657    5.886886    5.898800    0.000000    1.000000
   133  Li    c     3.921657    5.886886   -5.898800    0.000000    1.000000
   134  Li    c     3.921657   -1.968013    5.898800    0.000000    1.000000
   135  Li    c     3.921657   -1.968013   -5.898800    0.000000    1.000000
   136  Li    c    -0.002784    5.886886    5.898800    0.000000    1.000000
   137  Li    c    -0.002784    5.886886   -5.898800    0.000000    1.000000
   138  Li    c    -0.002784   -1.968013    5.898800    0.000000    1.000000
   139  Li    c    -0.002784   -1.968013   -5.898800    0.000000    1.000000
   140  Li    c     5.886886    3.921657    5.898800    0.000000    1.000000
   141  Li    c     5.886886    3.921657   -5.898800    0.000000    1.000000
   142  Li    c     5.886886   -0.002784    5.898800    0.000000    1.000000
   143  Li    c     5.886886   -0.002784   -5.898800    0.000000    1.000000
   144  Li    c    -1.968013    3.921657    5.898800    0.000000    1.000000
   145  Li    c    -1.968013    3.921657   -5.898800    0.000000    1.000000
   146  Li    c    -1.968013   -0.002784    5.898800    0.000000    1.000000
   147  Li    c    -1.968013   -0.002784   -5.898800    0.000000    1.000000
   148  Li    c     7.845781    5.882329   -1.961382    0.000000    1.000000
   149  Li    c     7.845781    5.882329    1.961382    0.000000    1.000000
   150  Li    c     7.845781   -1.963456   -1.961382    0.000000    1.000000
   151  Li    c     7.845781   -1.963456    1.961382    0.000000    1.000000
   152  Li    c    -3.926908    5.882329   -1.961382    0.000000    1.000000
   153  Li    c    -3.926908    5.882329    1.961382    0.000000    1.000000
   154  Li    c    -3.926908   -1.963456   -1.961382    0.000000    1.000000
   155  Li    c    -3.926908   -1.963456    1.961382    0.000000    1.000000
   156  Li    c     5.882329    7.845781   -1.961382    0.000000    1.000000
   157  Li    c     5.882329    7.845781    1.961382    0.000000    1.000000
   158  Li    c     5.882329   -3.926908   -1.961382    0.000000    1.000000
   159  Li    c     5.882329   -3.926908    1.961382    0.000000    1.000000
   160  Li    c    -1.963456    7.845781   -1.961382    0.000000    1.000000
   161  Li    c    -1.963456    7.845781    1.961382    0.000000    1.000000
   162  Li    c    -1.963456   -3.926908   -1.961382    0.000000    1.000000
   163  Li    c    -1.963456   -3.926908    1.961382    0.000000    1.000000
   164  Li    c     1.959436    9.820125    0.000000    0.000000    1.000000
   165  Li    c     9.820125    1.959436    0.000000    0.000000    1.000000
   166  Li    c     1.959436   -5.901252    0.000000    0.000000    1.000000
   167  Li    c    -5.901252    1.959436    0.000000    0.000000    1.000000
   168  Li    c     1.959436    1.959436    7.843300    0.000000    1.000000
   169  Li    c     1.959436    1.959436   -7.843300    0.000000    1.000000
   170  O     c     1.959436    9.798090   -1.956845    0.000000    0.183000
   171  O     c     1.959436    9.798090    1.956845    0.000000    0.183000
   172  O     c     9.798090    1.959436   -1.956845    0.000000    0.183000
   173  O     c     9.798090    1.959436    1.956845    0.000000    0.183000
   174  O     c     1.959436   -5.879217   -1.956845    0.000000    0.183000
   175  O     c     1.959436   -5.879217    1.956845    0.000000    0.183000
   176  O     c    -5.879217    1.959436   -1.956845    0.000000    0.183000
   177  O     c    -5.879217    1.959436    1.956845    0.000000    0.183000
   178  O     c     5.874608    5.874608    5.876796    0.000000    0.183000
   179  O     c     5.874608    5.874608   -5.876796    0.000000    0.183000
   180  O     c     5.874608   -1.955735    5.876796    0.000000    0.183000
   181  O     c     5.874608   -1.955735   -5.876796    0.000000    0.183000
   182  O     c    -1.955735    5.874608    5.876796    0.000000    0.183000
   183  O     c    -1.955735    5.874608   -5.876796    0.000000    0.183000
   184  O     c    -1.955735   -1.955735    5.876796    0.000000    0.183000
   185  O     c    -1.955735   -1.955735   -5.876796    0.000000    0.183000
   186  Li    c     3.920355    9.810061   -1.962605    0.000000    1.000000
   187  Li    c     3.920355    9.810061    1.962605    0.000000    1.000000
   188  Li    c    -0.001482    9.810061   -1.962605    0.000000    1.000000
   189  Li    c    -0.001482    9.810061    1.962605    0.000000    1.000000
   190  Li    c     9.810061    3.920355   -1.962605    0.000000    1.000000
   191  Li    c     9.810061    3.920355    1.962605    0.000000    1.000000
   192  Li    c     9.810061   -0.001482   -1.962605    0.000000    1.000000
   193  Li    c     9.810061   -0.001482    1.962605    0.000000    1.000000
   194  Li    c     3.920355   -5.891188   -1.962605    0.000000    1.000000
   195  Li    c     3.920355   -5.891188    1.962605    0.000000    1.000000
   196  Li    c    -0.001482   -5.891188   -1.962605    0.000000    1.000000
   197  Li    c    -0.001482   -5.891188    1.962605    0.000000    1.000000
   198  Li    c    -5.891188    3.920355   -1.962605    0.000000    1.000000
   199  Li    c    -5.891188    3.920355    1.962605    0.000000    1.000000
   200  Li    c    -5.891188   -0.001482   -1.962605    0.000000    1.000000
   201  Li    c    -5.891188   -0.001482    1.962605    0.000000    1.000000
   202  Cl    c     3.917778    3.917778    7.829848    0.000000    1.485000
   203  Cl    c     3.917778    3.917778   -7.829848    0.000000    1.485000
   204  Cl    c     3.917778    0.001095    7.829848    0.000000    1.485000
   205  Cl    c     3.917778    0.001095   -7.829848    0.000000    1.485000
   206  Cl    c     0.001095    3.917778    7.829848    0.000000    1.485000
   207  Cl    c     0.001095    3.917778   -7.829848    0.000000    1.485000
   208  Cl    c     0.001095    0.001095    7.829848    0.000000    1.485000
   209  Cl    c     0.001095    0.001095   -7.829848    0.000000    1.485000
   210  Cl    c     7.825516    7.825516    0.000000    0.000000    1.485000
   211  Cl    c     7.825516   -3.906643    0.000000    0.000000    1.485000
   212  Cl    c    -3.906643    7.825516    0.000000    0.000000    1.485000
   213  Cl    c    -3.906643   -3.906643    0.000000    0.000000    1.485000
   214  Li    c     7.852017    1.959436    5.910725    0.000000    1.000000
   215  Li    c     7.852017    1.959436   -5.910725    0.000000    1.000000
   216  Li    c    -3.933144    1.959436    5.910725    0.000000    1.000000
   217  Li    c    -3.933144    1.959436   -5.910725    0.000000    1.000000
   218  Li    c     1.959436    7.852017    5.910725    0.000000    1.000000
   219  Li    c     1.959436    7.852017   -5.910725    0.000000    1.000000
   220  Li    c     1.959436   -3.933144    5.910725    0.000000    1.000000
   221  Li    c     1.959436   -3.933144   -5.910725    0.000000    1.000000
   222  Li    c     1.959436    9.801201    3.922426    0.000000    1.000000
   223  Li    c     1.959436    9.801201   -3.922426    0.000000    1.000000
   224  Li    c     9.801201    1.959436    3.922426    0.000000    1.000000
   225  Li    c     9.801201    1.959436   -3.922426    0.000000    1.000000
   226  Li    c     1.959436   -5.882328    3.922426    0.000000    1.000000
   227  Li    c     1.959436   -5.882328   -3.922426    0.000000    1.000000
   228  Li    c    -5.882328    1.959436    3.922426    0.000000    1.000000
   229  Li    c    -5.882328    1.959436   -3.922426    0.000000    1.000000
   230  Li    c     5.880326    9.806792    0.000000    0.000000    1.000000
   231  Li    c     9.806792    5.880326    0.000000    0.000000    1.000000
   232  Li    c     9.806792   -1.961453    0.000000    0.000000    1.000000
   233  Li    c    -1.961453    9.806792    0.000000    0.000000    1.000000
   234  Li    c     5.880326   -5.887919    0.000000    0.000000    1.000000
   235  Li    c    -1.961453   -5.887919    0.000000    0.000000    1.000000
   236  Li    c    -5.887919    5.880326    0.000000    0.000000    1.000000
   237  Li    c    -5.887919   -1.961453    0.000000    0.000000    1.000000
   238  Li    c     1.959436    5.880952    7.849203    0.000000    1.000000
   239  Li    c     1.959436    5.880952   -7.849203    0.000000    1.000000
   240  Li    c     1.959436   -1.962079    7.849203    0.000000    1.000000
   241  Li    c     1.959436   -1.962079   -7.849203    0.000000    1.000000
   242  Li    c     5.880952    1.959436    7.849203    0.000000    1.000000
   243  Li    c     5.880952    1.959436   -7.849203    0.000000    1.000000
   244  Li    c    -1.962079    1.959436    7.849203    0.000000    1.000000
   245  Li    c    -1.962079    1.959436   -7.849203    0.000000    1.000000
   246  O     c     5.876028    9.794672   -1.957461    0.000000    0.183000
   247  O     c     5.876028    9.794672    1.957461    0.000000    0.183000
   248  O     c     9.794672    5.876028   -1.957461    0.000000    0.183000
   249  O     c     9.794672    5.876028    1.957461    0.000000    0.183000
   250  O     c     9.794672   -1.957155   -1.957461    0.000000    0.183000
   251  O     c     9.794672   -1.957155    1.957461    0.000000    0.183000
   252  O     c    -1.957155    9.794672   -1.957461    0.000000    0.183000
   253  O     c    -1.957155    9.794672    1.957461    0.000000    0.183000
   254  O     c     5.876028   -5.875799   -1.957461    0.000000    0.183000
   255  O     c     5.876028   -5.875799    1.957461    0.000000    0.183000
   256  O     c    -1.957155   -5.875799   -1.957461    0.000000    0.183000
   257  O     c    -1.957155   -5.875799    1.957461    0.000000    0.183000
   258  O     c    -5.875799    5.876028   -1.957461    0.000000    0.183000
   259  O     c    -5.875799    5.876028    1.957461    0.000000    0.183000
   260  O     c    -5.875799   -1.957155   -1.957461    0.000000    0.183000
   261  O     c    -5.875799   -1.957155    1.957461    0.000000    0.183000
   262  Cl    c     7.825216    7.825216    3.907830    0.000000    1.485000
   263  Cl    c     7.825216    7.825216   -3.907830    0.000000    1.485000
   264  Cl    c     7.825216   -3.906343    3.907830    0.000000    1.485000
   265  Cl    c     7.825216   -3.906343   -3.907830    0.000000    1.485000
   266  Cl    c    -3.906343    7.825216    3.907830    0.000000    1.485000
   267  Cl    c    -3.906343    7.825216   -3.907830    0.000000    1.485000
   268  Cl    c    -3.906343   -3.906343    3.907830    0.000000    1.485000
   269  Cl    c    -3.906343   -3.906343   -3.907830    0.000000    1.485000
   270  Li    c     7.841564    5.880934    5.882949    0.000000    1.000000
   271  Li    c     7.841564    5.880934   -5.882949    0.000000    1.000000
   272  Li    c     7.841564   -1.962061    5.882949    0.000000    1.000000
   273  Li    c     7.841564   -1.962061   -5.882949    0.000000    1.000000
   274  Li    c    -3.922691    5.880934    5.882949    0.000000    1.000000
   275  Li    c    -3.922691    5.880934   -5.882949    0.000000    1.000000
   276  Li    c    -3.922691   -1.962061    5.882949    0.000000    1.000000
   277  Li    c    -3.922691   -1.962061   -5.882949    0.000000    1.000000
   278  Li    c     5.880934    7.841564    5.882949    0.000000    1.000000
   279  Li    c     5.880934    7.841564   -5.882949    0.000000    1.000000
   280  Li    c     5.880934   -3.922691    5.882949    0.000000    1.000000
   281  Li    c     5.880934   -3.922691   -5.882949    0.000000    1.000000
   282  Li    c    -1.962061    7.841564    5.882949    0.000000    1.000000
   283  Li    c    -1.962061    7.841564   -5.882949    0.000000    1.000000
   284  Li    c    -1.962061   -3.922691    5.882949    0.000000    1.000000
   285  Li    c    -1.962061   -3.922691   -5.882949    0.000000    1.000000
   286  Li    c     5.881644    9.803752    3.920834    0.000000    1.000000
   287  Li    c     5.881644    9.803752   -3.920834    0.000000    1.000000
   288  Li    c     9.803752    5.881644    3.920834    0.000000    1.000000
   289  Li    c     9.803752    5.881644   -3.920834    0.000000    1.000000
   290  Li    c     9.803752   -1.962771    3.920834    0.000000    1.000000
   291  Li    c     9.803752   -1.962771   -3.920834    0.000000    1.000000
   292  Li    c    -1.962771    9.803752    3.920834    0.000000    1.000000
   293  Li    c    -1.962771    9.803752   -3.920834    0.000000    1.000000
   294  Li    c     5.881644   -5.884879    3.920834    0.000000    1.000000
   295  Li    c     5.881644   -5.884879   -3.920834    0.000000    1.000000
   296  Li    c    -1.962771   -5.884879    3.920834    0.000000    1.000000
   297  Li    c    -1.962771   -5.884879   -3.920834    0.000000    1.000000
   298  Li    c    -5.884879    5.881644    3.920834    0.000000    1.000000
   299  Li    c    -5.884879    5.881644   -3.920834    0.000000    1.000000
   300  Li    c    -5.884879   -1.962771    3.920834    0.000000    1.000000
   301  Li    c    -5.884879   -1.962771   -3.920834    0.000000    1.000000
   302  Li    c     5.883624    5.883624    7.845257    0.000000    1.000000
   303  Li    c     5.883624    5.883624   -7.845257    0.000000    1.000000
   304  Li    c     5.883624   -1.964751    7.845257    0.000000    1.000000
   305  Li    c     5.883624   -1.964751   -7.845257    0.000000    1.000000
   306  Li    c    -1.964751    5.883624    7.845257    0.000000    1.000000
   307  Li    c    -1.964751    5.883624   -7.845257    0.000000    1.000000
   308  Li    c    -1.964751   -1.964751    7.845257    0.000000    1.000000
   309  Li    c    -1.964751   -1.964751   -7.845257    0.000000    1.000000
   310  O     c     1.959436    1.959436    9.796718    0.000000    0.183000
   311  O     c     1.959436    1.959436   -9.796718    0.000000    0.183000
   312  O     c     1.959436    9.796909    5.879137    0.000000    0.183000
   313  O     c     1.959436    9.796909   -5.879137    0.000000    0.183000
   314  O     c     9.796909    1.959436    5.879137    0.000000    0.183000
   315  O     c     9.796909    1.959436   -5.879137    0.000000    0.183000
   316  O     c     1.959436   -5.878036    5.879137    0.000000    0.183000
   317  O     c     1.959436   -5.878036   -5.879137    0.000000    0.183000
   318  O     c    -5.878036    1.959436    5.879137    0.000000    0.183000
   319  O     c    -5.878036    1.959436   -5.879137    0.000000    0.183000
   320  Cl    c     3.919013    7.835942    7.834856    0.000000    1.485000
   321  Cl    c     3.919013    7.835942   -7.834856    0.000000    1.485000
   322  Cl    c     3.919013   -3.917069    7.834856    0.000000    1.485000
   323  Cl    c     3.919013   -3.917069   -7.834856    0.000000    1.485000
   324  Cl    c     7.835942    3.919013    7.834856    0.000000    1.485000
   325  Cl    c     7.835942    3.919013   -7.834856    0.000000    1.485000
   326  Cl    c     7.835942   -0.000140    7.834856    0.000000    1.485000
   327  Cl    c     7.835942   -0.000140   -7.834856    0.000000    1.485000
   328  Cl    c    -0.000140    7.835942    7.834856    0.000000    1.485000
   329  Cl    c    -0.000140    7.835942   -7.834856    0.000000    1.485000
   330  Cl    c    -0.000140   -3.917069    7.834856    0.000000    1.485000
   331  Cl    c    -0.000140   -3.917069   -7.834856    0.000000    1.485000
   332  Cl    c    -3.917069    3.919013    7.834856    0.000000    1.485000
   333  Cl    c    -3.917069    3.919013   -7.834856    0.000000    1.485000
   334  Cl    c    -3.917069   -0.000140    7.834856    0.000000    1.485000
   335  Cl    c    -3.917069   -0.000140   -7.834856    0.000000    1.485000
   336  Cl    c     3.917988   11.750226    0.000000    0.000000    1.485000
   337  Cl    c     3.917988   -7.831353    0.000000    0.000000    1.485000
   338  Cl    c    11.750226    3.917988    0.000000    0.000000    1.485000
   339  Cl    c    11.750226    0.000885    0.000000    0.000000    1.485000
   340  Cl    c     0.000885   11.750226    0.000000    0.000000    1.485000
   341  Cl    c     0.000885   -7.831353    0.000000    0.000000    1.485000
   342  Cl    c    -7.831353    3.917988    0.000000    0.000000    1.485000
   343  Cl    c    -7.831353    0.000885    0.000000    0.000000    1.485000
   344  Li    c     3.919226    1.959436    9.805677    0.000000    1.000000
   345  Li    c     3.919226    1.959436   -9.805677    0.000000    1.000000
   346  Li    c    -0.000353    1.959436    9.805677    0.000000    1.000000
   347  Li    c    -0.000353    1.959436   -9.805677    0.000000    1.000000
   348  Li    c     1.959436    3.919226    9.805677    0.000000    1.000000
   349  Li    c     1.959436    3.919226   -9.805677    0.000000    1.000000
   350  Li    c     1.959436   -0.000353    9.805677    0.000000    1.000000
   351  Li    c     1.959436   -0.000353   -9.805677    0.000000    1.000000
   352  Li    c     3.921056    9.806152    5.883457    0.000000    1.000000
   353  Li    c     3.921056    9.806152   -5.883457    0.000000    1.000000
   354  Li    c     3.921056   -5.887279    5.883457    0.000000    1.000000
   355  Li    c     3.921056   -5.887279   -5.883457    0.000000    1.000000
   356  Li    c    -0.002183    9.806152    5.883457    0.000000    1.000000
   357  Li    c    -0.002183    9.806152   -5.883457    0.000000    1.000000
   358  Li    c    -0.002183   -5.887279    5.883457    0.000000    1.000000
   359  Li    c    -0.002183   -5.887279   -5.883457    0.000000    1.000000
   360  Li    c     9.806152    3.921056    5.883457    0.000000    1.000000
   361  Li    c     9.806152    3.921056   -5.883457    0.000000    1.000000
   362  Li    c     9.806152   -0.002183    5.883457    0.000000    1.000000
   363  Li    c     9.806152   -0.002183   -5.883457    0.000000    1.000000
   364  Li    c    -5.887279    3.921056    5.883457    0.000000    1.000000
   365  Li    c    -5.887279    3.921056   -5.883457    0.000000    1.000000
   366  Li    c    -5.887279   -0.002183    5.883457    0.000000    1.000000
   367  Li    c    -5.887279   -0.002183   -5.883457    0.000000    1.000000
   368  Li    c     7.840065    9.803841   -1.960032    0.000000    1.000000
   369  Li    c     7.840065    9.803841    1.960032    0.000000    1.000000
   370  Li    c    -3.921192    9.803841   -1.960032    0.000000    1.000000
   371  Li    c    -3.921192    9.803841    1.960032    0.000000    1.000000
   372  Li    c     9.803841    7.840065   -1.960032    0.000000    1.000000
   373  Li    c     9.803841    7.840065    1.960032    0.000000    1.000000
   374  Li    c     9.803841   -3.921192   -1.960032    0.000000    1.000000
   375  Li    c     9.803841   -3.921192    1.960032    0.000000    1.000000
   376  Li    c     7.840065   -5.884968   -1.960032    0.000000    1.000000
   377  Li    c     7.840065   -5.884968    1.960032    0.000000    1.000000
   378  Li    c    -3.921192   -5.884968   -1.960032    0.000000    1.000000
   379  Li    c    -3.921192   -5.884968    1.960032    0.000000    1.000000
   380  Li    c    -5.884968    7.840065   -1.960032    0.000000    1.000000
   381  Li    c    -5.884968    7.840065    1.960032    0.000000    1.000000
   382  Li    c    -5.884968   -3.921192   -1.960032    0.000000    1.000000
   383  Li    c    -5.884968   -3.921192    1.960032    0.000000    1.000000
   384  Li    c    11.763788    1.959436   -1.965081    0.000000    1.000000
[...]
    116 y          1.959436      1.959436     0.000000    Cartesian    0.00
    116 z         13.716055     13.719212     0.003156    Cartesian    0.02
    117 x          1.959436      1.959436     0.000000    Cartesian    0.00
    117 y         -9.797182     -9.795061     0.002122    Cartesian   -0.02
    117 z          9.797182      9.796054    -0.001129    Cartesian   -0.01
    118 x          9.797182      9.795175    -0.002008    Cartesian   -0.02
    118 y         -9.797182     -9.794570     0.002613    Cartesian   -0.03
    118 z          5.878309      5.876212    -0.002098    Cartesian   -0.04
    119 x          7.837746      7.835794    -0.001952    Cartesian   -0.02
    119 y        -11.756619    -11.751431     0.005188    Cartesian   -0.04
    119 z          3.918873      3.917405    -0.001468    Cartesian   -0.04
    120 x         11.756619     11.759146     0.002527    Cartesian    0.02
    120 y         -9.797182     -9.801487    -0.004305    Cartesian    0.04
    120 z         -1.959436     -1.960143    -0.000707    Cartesian    0.04
    121 x        -11.756619    -11.759309    -0.002690    Cartesian    0.02
    121 y          5.878309      5.879888     0.001578    Cartesian    0.03
    121 z          5.878309      5.880545     0.002236    Cartesian    0.04
    122 x          3.918873      3.919081     0.000208    Cartesian    0.01
    122 y         -9.797182     -9.799542    -0.002360    Cartesian    0.02
    122 z          9.797182      9.798486     0.001303    Cartesian    0.01
    123 x          3.918873      3.918156    -0.000717    Cartesian   -0.02
    123 y         11.756619     11.753522    -0.003097    Cartesian   -0.03
    123 z         11.756619     11.753056    -0.003563    Cartesian   -0.03
    124 x          7.837746      7.839385     0.001639    Cartesian    0.02
    124 y          5.878309      5.879505     0.001195    Cartesian    0.02
    124 z         13.716055     13.721447     0.005391    Cartesian    0.04
    125 x          1.959436      1.959436     0.000000    Cartesian    0.00
    125 y          1.959436      1.959436     0.000000    Cartesian    0.00
    125 z         15.675492     15.677401     0.001909    Cartesian    0.01
    126 x          1.959436      1.959436     0.000000    Cartesian    0.00
    126 y         17.634928     17.638987     0.004059    Cartesian    0.02
    126 z          0.000000      0.000000     0.000000    Cartesian    0.00
    127 x          5.878309      5.876850    -0.001459    Cartesian   -0.02
    127 y         -9.797182     -9.794136     0.003046    Cartesian   -0.03
    127 z          9.797182      9.794400    -0.002782    Cartesian   -0.03
    128 x          1.959436      1.959436     0.000000    Cartesian    0.00
    128 y          9.797182      9.795897    -0.001286    Cartesian   -0.01
    128 z         13.716055     13.714209    -0.001847    Cartesian   -0.01
    129 x          1.959436      1.959436     0.000000    Cartesian    0.00
    129 y         17.634928     17.633069    -0.001859    Cartesian   -0.01
    129 z         -1.959436     -1.958603     0.000833    Cartesian   -0.04
    130 x        -11.756619    -11.760601    -0.003982    Cartesian    0.03
    130 y          9.797182      9.801338     0.004156    Cartesian    0.04
    130 z         -1.959436     -1.960347    -0.000910    Cartesian    0.05
    131 x          3.918873      3.917854    -0.001019    Cartesian   -0.03
    131 y        -11.756619    -11.750636     0.005983    Cartesian   -0.05
    131 z          7.837746      7.834575    -0.003171    Cartesian   -0.04
    132 x          3.918873      3.919426     0.000553    Cartesian    0.01
    132 y          9.797182      9.799953     0.002770    Cartesian    0.03
    132 z         13.716055     13.721546     0.005490    Cartesian    0.04
    133 x         11.756619     11.759189     0.002570    Cartesian    0.02
    133 y          9.797182      9.800115     0.002933    Cartesian    0.03
    133 z          9.797182      9.802058     0.004875    Cartesian    0.05
    134 x         11.756619     11.751813    -0.004806    Cartesian   -0.04
    134 y         11.756619     11.751813    -0.004806    Cartesian   -0.04
    134 z          7.837746      7.833707    -0.004039    Cartesian   -0.05
    135 x          3.918873      3.919550     0.000677    Cartesian    0.02
    135 y         17.634928     17.641825     0.006897    Cartesian    0.04
    135 z         -1.959436     -1.960253    -0.000816    Cartesian    0.04
    136 x          3.918873      3.917884    -0.000989    Cartesian   -0.03
    136 y          3.918873      3.917884    -0.000989    Cartesian   -0.03
    136 z         15.675492     15.668260    -0.007232    Cartesian   -0.05
    137 x          1.959436      1.959436     0.000000    Cartesian    0.00
    137 y          1.959436      1.959436     0.000000    Cartesian    0.00
    137 z          0.000000      0.000000     0.000000    Cartesian    0.00
    138 x          1.959436      1.959436     0.000000    Cartesian    0.00
    138 y          1.959436      1.959436     0.000000    Cartesian    0.00
    138 z         -1.959436     -1.908964     0.050473    Cartesian   -2.58
    139 x          3.918873      3.719807    -0.199066    Cartesian   -5.08
    139 y          3.918873      3.719807    -0.199066    Cartesian   -5.08
    139 z          0.000000      0.000000     0.000000    Cartesian    0.00
    140 x          1.959436      1.959436     0.000000    Cartesian    0.00
    140 y          5.878309      5.892860     0.014551    Cartesian    0.25
    140 z         -1.959436     -1.972595    -0.013158    Cartesian    0.67
    141 x          3.918873      3.896157    -0.022716    Cartesian   -0.58
    141 y          3.918873      3.896157    -0.022716    Cartesian   -0.58
    141 z          3.918873      3.896585    -0.022288    Cartesian   -0.57
    142 x          1.959436      1.959436     0.000000    Cartesian    0.00
    142 y          1.959436      1.959436     0.000000    Cartesian    0.00
    142 z          5.878309      5.876639    -0.001671    Cartesian   -0.03
    143 x          5.878309      5.860945    -0.017364    Cartesian   -0.30
    143 y          5.878309      5.860945    -0.017364    Cartesian   -0.30
    143 z         -1.959436     -1.945935     0.013502    Cartesian   -0.69
    144 x          3.918873      3.916057    -0.002816    Cartesian   -0.07
    144 y          7.837746      7.807011    -0.030735    Cartesian   -0.39
    144 z          0.000000      0.000000     0.000000    Cartesian    0.00
    145 x          1.959436      1.959436     0.000000    Cartesian    0.00
    145 y          5.878309      5.885748     0.007438    Cartesian    0.13
    145 z          5.878309      5.883520     0.005210    Cartesian    0.09
    146 x          3.918873      3.920640     0.001767    Cartesian    0.05
    146 y          7.837746      7.825553    -0.012193    Cartesian   -0.16
    146 z          3.918873      3.913114    -0.005759    Cartesian   -0.15
    147 x          1.959436      1.959436     0.000000    Cartesian    0.00
    147 y          9.797182      9.798073     0.000890    Cartesian    0.01
    147 z         -1.959436     -1.956835     0.002601    Cartesian   -0.13
    148 x          5.878309      5.874599    -0.003711    Cartesian   -0.06
    148 y          5.878309      5.874599    -0.003711    Cartesian   -0.06
    148 z          5.878309      5.876785    -0.001524    Cartesian   -0.03
    149 x          3.918873      3.917300    -0.001573    Cartesian   -0.04
    149 y          3.918873      3.917300    -0.001573    Cartesian   -0.04
    149 z          7.837746      7.826426    -0.011320    Cartesian   -0.14
    150 x          7.837746      7.820930    -0.016816    Cartesian   -0.21
    150 y          7.837746      7.820930    -0.016816    Cartesian   -0.21
    150 z          0.000000      0.000000     0.000000    Cartesian    0.00
    151 x          5.878309      5.876023    -0.002287    Cartesian   -0.04
    151 y          9.797182      9.794659    -0.002523    Cartesian   -0.03
    151 z         -1.959436     -1.957457     0.001980    Cartesian   -0.10
    152 x          7.837746      7.822169    -0.015577    Cartesian   -0.20
    152 y          7.837746      7.822169    -0.015577    Cartesian   -0.20
    152 z          3.918873      3.905437    -0.013436    Cartesian   -0.34
    153 x          1.959436      1.959436     0.000000    Cartesian    0.00
    153 y          1.959436      1.959436     0.000000    Cartesian    0.00
    153 z          9.797182      9.796712    -0.000470    Cartesian   -0.00
    154 x          1.959436      1.959436     0.000000    Cartesian    0.00
    154 y          9.797182      9.796893    -0.000290    Cartesian   -0.00
    154 z          5.878309      5.879136     0.000826    Cartesian    0.01
    155 x          3.918873      3.918273    -0.000600    Cartesian   -0.02
    155 y          7.837746      7.834231    -0.003515    Cartesian   -0.04
    155 z          7.837746      7.832252    -0.005494    Cartesian   -0.07
    156 x          3.918873      3.917411    -0.001462    Cartesian   -0.04
    156 y         11.756619     11.747414    -0.009205    Cartesian   -0.08
    156 z          0.000000      0.000000     0.000000    Cartesian    0.00
    157 x          1.959436      1.959436     0.000000    Cartesian    0.00
    157 y          5.878309      5.877986    -0.000324    Cartesian   -0.01
    157 z          9.797182      9.797366     0.000184    Cartesian    0.00
    158 x          5.878309      5.878453     0.000143    Cartesian    0.00
    158 y          9.797182      9.795969    -0.001213    Cartesian   -0.01
    158 z          5.878309      5.876902    -0.001407    Cartesian   -0.02
    159 x          3.918873      3.917653    -0.001220    Cartesian   -0.03
    159 y         11.756619     11.748193    -0.008426    Cartesian   -0.07
    159 z          3.918873      3.915667    -0.003206    Cartesian   -0.08
    160 x          9.797182      9.794920    -0.002263    Cartesian   -0.02
    160 y          9.797182      9.794920    -0.002263    Cartesian   -0.02
    160 z         -1.959436     -1.957780     0.001657    Cartesian   -0.08
    161 x          5.878309      5.878573     0.000263    Cartesian    0.00
    161 y          5.878309      5.878573     0.000263    Cartesian    0.00
    161 z          9.797182      9.797174    -0.000008    Cartesian   -0.00
    162 x          7.837746      7.832826    -0.004920    Cartesian   -0.06
    162 y          7.837746      7.832826    -0.004920    Cartesian   -0.06
    162 z          7.837746      7.830976    -0.006770    Cartesian   -0.09
    163 x          7.837746      7.834295    -0.003451    Cartesian   -0.04
    163 y         11.756619     11.749566    -0.007053    Cartesian   -0.06
    163 z          0.000000      0.000000     0.000000    Cartesian    0.00
    164 x          1.959436      1.959436     0.000000    Cartesian    0.00
    164 y         -9.797182     -9.796785     0.000397    Cartesian   -0.00
    164 z         -1.959436     -1.959248     0.000188    Cartesian   -0.01
    165 x          7.837746      7.833926    -0.003820    Cartesian   -0.05
    165 y         11.756619     11.749092    -0.007527    Cartesian   -0.06
    165 z          3.918873      3.914311    -0.004562    Cartesian   -0.12
    166 x          3.918873      3.918451    -0.000422    Cartesian   -0.01
    166 y          3.918873      3.918451    -0.000422    Cartesian   -0.01
    166 z         11.756619     11.749975    -0.006644    Cartesian   -0.06
    167 x          5.878309      5.877637    -0.000673    Cartesian   -0.01
    167 y         -9.797182     -9.796443     0.000739    Cartesian   -0.01
    167 z         -1.959436     -1.959006     0.000431    Cartesian   -0.02
    168 x          1.959436      1.959436     0.000000    Cartesian    0.00
    168 y          9.797182      9.797257     0.000075    Cartesian    0.00
    168 z          9.797182      9.796912    -0.000271    Cartesian   -0.00
    169 x          9.797182      9.794156    -0.003027    Cartesian   -0.03
    169 y          9.797182      9.794156    -0.003027    Cartesian   -0.03
    169 z          5.878309      5.875058    -0.003252    Cartesian   -0.06
    170 x          3.918873      3.917603    -0.001270    Cartesian   -0.03
    170 y         11.756619     11.750281    -0.006338    Cartesian   -0.05
    170 z          7.837746      7.832586    -0.005160    Cartesian   -0.07
    171 x          1.959436      1.959436     0.000000    Cartesian    0.00
    171 y         -9.797182     -9.796165     0.001018    Cartesian   -0.01
    171 z          5.878309      5.876425    -0.001884    Cartesian   -0.03
    172 x          5.878309      5.878767     0.000458    Cartesian    0.01
    172 y          9.797182      9.796783    -0.000399    Cartesian   -0.00
    172 z          9.797182      9.796923    -0.000260    Cartesian   -0.00
    173 x          3.918873      3.918972     0.000099    Cartesian    0.00
    173 y          7.837746      7.835525    -0.002221    Cartesian   -0.03
    173 z         11.756619     11.751501    -0.005118    Cartesian   -0.04
    174 x          5.878309      5.878717     0.000407    Cartesian    0.01
    174 y         -9.797182     -9.796044     0.001138    Cartesian   -0.01
    174 z          5.878309      5.877551    -0.000759    Cartesian   -0.01
    175 x          1.959436      1.959436     0.000000    Cartesian    0.00
    175 y          1.959436      1.959436     0.000000    Cartesian    0.00
    175 z         13.716055     13.713755    -0.002301    Cartesian   -0.02
    176 x          3.918873      3.919416     0.000543    Cartesian    0.01
    176 y        -11.756619    -11.751285     0.005334    Cartesian   -0.05
    176 z          0.000000      0.000000     0.000000    Cartesian    0.00
    177 x         11.756619     11.752721    -0.003898    Cartesian   -0.03
    177 y         11.756619     11.752721    -0.003898    Cartesian   -0.03
    177 z          0.000000      0.000000     0.000000    Cartesian    0.00
    178 x          7.837746      7.835994    -0.001752    Cartesian   -0.02
    178 y         11.756619     11.752124    -0.004495    Cartesian   -0.04
    178 z          7.837746      7.834184    -0.003562    Cartesian   -0.05
    179 x          9.797182      9.797724     0.000542    Cartesian    0.01
    179 y         -9.797182     -9.797385    -0.000203    Cartesian    0.00
    179 z         -1.959436     -1.958933     0.000503    Cartesian   -0.03
    180 x          1.959436      1.959436     0.000000    Cartesian    0.00
    180 y          5.878309      5.879111     0.000801    Cartesian    0.01
    180 z         13.716055     13.714585    -0.001471    Cartesian   -0.01
    181 x          3.918873      3.918639    -0.000234    Cartesian   -0.01
    181 y        -11.756619    -11.751937     0.004682    Cartesian   -0.04
    181 z          3.918873      3.917947    -0.000926    Cartesian   -0.02
    182 x         11.756619     11.752587    -0.004032    Cartesian   -0.03
    182 y         11.756619     11.752587    -0.004032    Cartesian   -0.03
    182 z          3.918873      3.916581    -0.002292    Cartesian   -0.06
    183 x          7.837746      7.836251    -0.001495    Cartesian   -0.02
    183 y          7.837746      7.836251    -0.001495    Cartesian   -0.02
    183 z         11.756619     11.752591    -0.004028    Cartesian   -0.03
    184 x          9.797182      9.796551    -0.000631    Cartesian   -0.01
    184 y          9.797182      9.796551    -0.000631    Cartesian   -0.01
    184 z          9.797182      9.796798    -0.000384    Cartesian   -0.00
    185 x          5.878309      5.878570     0.000260    Cartesian    0.00
    185 y          5.878309      5.878570     0.000260    Cartesian    0.00
    185 z         13.716055     13.715403    -0.000653    Cartesian   -0.00
    186 x          7.837746      7.835485    -0.002261    Cartesian   -0.03
    186 y        -11.756619    -11.751021     0.005598    Cartesian   -0.05
    186 z          0.000000      0.000000     0.000000    Cartesian    0.00
    187 x          1.959436      1.959436     0.000000    Cartesian    0.00
    187 y         -9.797182     -9.795056     0.002127    Cartesian   -0.02
    187 z          9.797182      9.796053    -0.001130    Cartesian   -0.01
    188 x          9.797182      9.795171    -0.002012    Cartesian   -0.02
    188 y         -9.797182     -9.794566     0.002617    Cartesian   -0.03
    188 z          5.878309      5.876209    -0.002101    Cartesian   -0.04
    189 x          7.837746      7.835248    -0.002498    Cartesian   -0.03
    189 y        -11.756619    -11.750079     0.006540    Cartesian   -0.06
    189 z          3.918873      3.917109    -0.001764    Cartesian   -0.05
    190 x          3.918873      3.917898    -0.000975    Cartesian   -0.02
    190 y         11.756619     11.752744    -0.003875    Cartesian   -0.03
    190 z         11.756619     11.751976    -0.004643    Cartesian   -0.04
    191 x          5.878309      5.876848    -0.001462    Cartesian   -0.02
    191 y         -9.797182     -9.794130     0.003052    Cartesian   -0.03
    191 z          9.797182      9.794395    -0.002787    Cartesian   -0.03
    192 x          1.959436      1.959436     0.000000    Cartesian    0.00
    192 y          9.797182      9.795894    -0.001288    Cartesian   -0.01
    192 z         13.716055     13.714205    -0.001851    Cartesian   -0.01
    193 x          1.959436      1.959436     0.000000    Cartesian    0.00
    193 y         17.634928     17.633065    -0.001863    Cartesian   -0.01
    193 z         -1.959436     -1.958602     0.000834    Cartesian   -0.04
    194 x          3.918873      3.917615    -0.001258    Cartesian   -0.03
    194 y        -11.756619    -11.749259     0.007360    Cartesian   -0.06
    194 z          7.837746      7.833756    -0.003990    Cartesian   -0.05
    195 x         11.756619     11.750752    -0.005867    Cartesian   -0.05
    195 y         11.756619     11.750752    -0.005867    Cartesian   -0.05
    195 z          7.837746      7.832835    -0.004911    Cartesian   -0.06
    196 x          3.918873      3.917640    -0.001233    Cartesian   -0.03
    196 y          3.918873      3.917640    -0.001233    Cartesian   -0.03
    196 z         15.675492     15.666621    -0.008871    Cartesian   -0.06
--------------------------------------------------------------------------------


  Time to end of optimisation  =       51.9318 seconds


  Peak dynamic memory used =     693.58 MB 


  Timing analysis for GULP :

--------------------------------------------------------------------------------
  Task / Subroutine                                          Time (Seconds)
--------------------------------------------------------------------------------
  Calculation of reciprocal space energy and derivatives          0.0006
  Calculation of reciprocal space energy using symmetry           0.0004
  Calculation of real space energy and derivatives                0.0048
  Calculation of real space energy using symmetry                 0.0034
  Calculation for region 1 energy and derivatives (2-b)          35.4411
  Calculation for region 2a energy                               13.9251
  Calculation for region 2b energy                                0.0003
  Calculation and manipulation of Hessian matrix                  1.6989
  Calculation of matrix inversion                                 0.0812
  Symmetry generation of equivalent positions                     0.0050
--------------------------------------------------------------------------------
  Total CPU time                                                 51.9320
--------------------------------------------------------------------------------


  Dump file written as Li3OCl.grs


  Job Finished at 12:30.51  1st December   2020                               

