********************************************************************************
*                       GENERAL UTILITY LATTICE PROGRAM                        *
*                                 Julian Gale                                  *
*                       Curtin Institute for Computation                       *
*                    School of Molecular and Life Sciences                     *
*                    Curtin University, Western Australia                      *
********************************************************************************
* Version = 5.2.0 * Last modified =  10th September 2020                       *
********************************************************************************
*  optimise     - perform optimisation run                                     *
*  conp         - constant pressure calculation                                *
*  property     - calculate properties for final geometry                      *
*  defect       - perform defect calculation after bulk run                    *
*  compare      - compare initial and final structures                         *
********************************************************************************

  Job Started  at 12:30.04  1st December   2020                               

  Number of CPUs =     1


  Total number of configurations input =      1

********************************************************************************
*  Input for Configuration =   1                                               *
********************************************************************************

  Formula = ClOLi3                                                      

  Number of irreducible atoms/shells =       5


  Total number atoms/shells =       7

  Dimensionality = 3               :  Bulk   


  Symmetry :

  Crystal family                   :  Cubic       
  Crystal class  (Groth - 1921)    :  Cubic Hexakisoctahedral              

  Space group (centrosymmetric)    :  P M 3 M         

  Patterson group                  :  P m -3 m 

  Cartesian lattice vectors (Angstroms) :

        3.918873    0.000000    0.000000
        0.000000    3.918873    0.000000
        0.000000    0.000000    3.918873

  Cell parameters (Angstroms/Degrees):

  a =       3.9189    alpha =  90.0000
  b =       3.9189    beta  =  90.0000
  c =       3.9189    gamma =  90.0000

  Initial cell volume =          60.184349 Angs**3

  Temperature of configuration =   0.00     K 

  Pressure of configuration =         0.000 GPa 

  Fractional coordinates of asymmetric unit :

--------------------------------------------------------------------------------
   No.  Atomic       x           y          z         Charge      Occupancy
        Label      (Frac)      (Frac)     (Frac)        (e)         (Frac)  
--------------------------------------------------------------------------------
      1 Cl    c    0.000000    0.000000    0.000000     1.48500    1.000000    
      2 O     c    0.500000    0.500000    0.500000     0.18300    1.000000    
      3 Li    c    0.500000    0.500000    0.000000     1.00000    1.000000    
      4 Cl    s    0.000000    0.000000    0.000000    -2.48500    1.000000    
      5 O     s    0.500000    0.500000    0.500000    -2.18300    1.000000    
--------------------------------------------------------------------------------


  Constraints : 

--------------------------------------------------------------------------------
  Constraint no.      Unconstrained     Constrained    Coefficient    Offset
                         Variable         Variable
--------------------------------------------------------------------------------
           1              Strain 1        Strain 2       1.00000      0.0000
           2              Strain 1        Strain 3       1.00000      0.0000
--------------------------------------------------------------------------------


********************************************************************************
*  General input information                                                   *
********************************************************************************

  Species output for all configurations : 

--------------------------------------------------------------------------------
  Species    Type    Atomic    Atomic    Charge       Radii (Angs)     Library
                     Number     Mass       (e)     Cova   Ionic  VDW   Symbol
--------------------------------------------------------------------------------
    Li       Core        3       6.94   1.000000   0.680  0.000  1.800          
    O        Core        8      16.00   0.183000   0.730  0.000  1.360          
    O        Shell       8       0.00  -2.183000   0.730  0.000  1.360          
    Cl       Core       17      35.45   1.485000   0.990  0.000  1.650          
    Cl       Shell      17       0.00  -2.485000   0.990  0.000  1.650          
    Mg       Core       12      24.31   0.415000   1.100  0.000  0.000          
    Mg       Shell      12       0.00   1.585000   1.100  0.000  0.000          
    Ca       Core       20      40.08  -1.135000   0.990  0.000  0.000          
    Ca       Shell      20       0.00   3.135000   0.990  0.000  0.000          
    Sr       Core       38      87.62  -1.251000   1.120  0.000  0.000          
    Sr       Shell      38       0.00   3.251000   1.120  0.000  0.000          
    Ba       Core       56     137.33  -7.203000   1.340  0.000  0.000          
    Ba       Shell      56       0.00   9.203000   1.340  0.000  0.000          
--------------------------------------------------------------------------------


  Lattice summation method               =    Ewald          (3-D)
                                         =    Parry          (2-D)
                                         =    Saunders et al (1-D)
  Accuracy factor for lattice sums       =   12.000


  Analytic derivatives to be used

  Time limit = Infinity

  Maximum range for interatomic potentials =    100000.000000 Angstroms

  General interatomic potentials :

--------------------------------------------------------------------------------
Atom  Types   Potential      Parameter       Value         Units   Cutoffs(Ang)
  1     2                                                            Min /  Max 
--------------------------------------------------------------------------------
O    c O    s Spring (c-s)  Spring k 2       593.71600    eV*Ang^-2 0.000  0.800
                            Spring k 4       0.0000000    eV*Ang^-4 
--------------------------------------------------------------------------------
Cl   c Cl   s Spring (c-s)  Spring k 2       29.380000    eV*Ang^-2 0.000  0.800
                            Spring k 4       0.0000000    eV*Ang^-4 
--------------------------------------------------------------------------------
Mg   c Mg   s Spring (c-s)  Spring k 2       361.60000    eV*Ang^-2 0.000  0.800
                            Spring k 4       0.0000000    eV*Ang^-4 
--------------------------------------------------------------------------------
Ca   c Ca   s Spring (c-s)  Spring k 2       110.20000    eV*Ang^-2 0.000  0.800
                            Spring k 4       0.0000000    eV*Ang^-4 
--------------------------------------------------------------------------------
Sr   c Sr   s Spring (c-s)  Spring k 2       71.700000    eV*Ang^-2 0.000  0.800
                            Spring k 4       0.0000000    eV*Ang^-4 
--------------------------------------------------------------------------------
Ba   c Ba   s Spring (c-s)  Spring k 2       495.20000    eV*Ang^-2 0.000  0.800
                            Spring k 4       0.0000000    eV*Ang^-4 
--------------------------------------------------------------------------------
Li   c Li   c Buckingham    Buckingham A     360.53000    eV        0.000 12.000
                            Buckingham rho  0.16100000    Ang       
                            Buckingham C     0.0000000    eV*Ang^6  
--------------------------------------------------------------------------------
Li   c O    s Buckingham    Buckingham A     292.30000    eV        0.000 12.000
                            Buckingham rho  0.34700000    Ang       
                            Buckingham C     0.0000000    eV*Ang^6  
--------------------------------------------------------------------------------
Li   c Cl   s Buckingham    Buckingham A     421.04000    eV        0.000 12.000
                            Buckingham rho  0.33400000    Ang       
                            Buckingham C     0.0000000    eV*Ang^6  
--------------------------------------------------------------------------------
O    s O    s Buckingham    Buckingham A     22764.300    eV        0.000 12.000
                            Buckingham rho  0.14900000    Ang       
                            Buckingham C     13.190000    eV*Ang^6  
--------------------------------------------------------------------------------
O    s Cl   s Buckingham    Buckingham A     8286.9100    eV        0.000 12.000
                            Buckingham rho  0.25900000    Ang       
                            Buckingham C     62.200000    eV*Ang^6  
--------------------------------------------------------------------------------
Cl   s Cl   s Buckingham    Buckingham A     1227.2000    eV        0.000 12.000
                            Buckingham rho  0.32100000    Ang       
                            Buckingham C     14.530000    eV*Ang^6  
--------------------------------------------------------------------------------
O    s Mg   s Buckingham    Buckingham A     1428.5000    eV        0.000 12.000
                            Buckingham rho  0.29450000    Ang       
                            Buckingham C     0.0000000    eV*Ang^6  
--------------------------------------------------------------------------------
Mg   s Cl   s Buckingham    Buckingham A     4914.5400    eV        0.000 12.000
                            Buckingham rho  0.25700000    Ang       
                            Buckingham C     0.0000000    eV*Ang^6  
--------------------------------------------------------------------------------
O    s Ca   s Buckingham    Buckingham A     1090.4000    eV        0.000 12.000
                            Buckingham rho  0.34370000    Ang       
                            Buckingham C     0.0000000    eV*Ang^6  
--------------------------------------------------------------------------------
Cl   s Ca   s Buckingham    Buckingham A     2302.0000    eV        0.000 12.000
                            Buckingham rho  0.34020000    Ang       
                            Buckingham C     0.0000000    eV*Ang^6  
--------------------------------------------------------------------------------
O    s Sr   s Buckingham    Buckingham A     959.10000    eV        0.000 12.000
                            Buckingham rho  0.37210000    Ang       
                            Buckingham C     0.0000000    eV*Ang^6  
--------------------------------------------------------------------------------
Cl   s Sr   s Buckingham    Buckingham A     2191.0900    eV        0.000 12.000
                            Buckingham rho  0.34570000    Ang       
                            Buckingham C     0.0000000    eV*Ang^6  
--------------------------------------------------------------------------------
O    s Ba   s Buckingham    Buckingham A     905.70000    eV        0.000 12.000
                            Buckingham rho  0.39760000    Ang       
                            Buckingham C     0.0000000    eV*Ang^6  
--------------------------------------------------------------------------------
Cl   s Ba   s Buckingham    Buckingham A     2704.5500    eV        0.000 12.000
                            Buckingham rho  0.35280000    Ang       
                            Buckingham C     0.0000000    eV*Ang^6  
--------------------------------------------------------------------------------

********************************************************************************
*  Output for configuration   1                                                *
********************************************************************************


  Components of energy : 

--------------------------------------------------------------------------------
  Interatomic potentials     =           7.24802695 eV    
  Monopole - monopole (real) =         -11.53475722 eV    
  Monopole - monopole (recip)=         -33.94580548 eV    
  Monopole - monopole (total)=         -45.48056271 eV    
--------------------------------------------------------------------------------
  Total lattice energy       =         -38.23253575 eV    
--------------------------------------------------------------------------------
  Total lattice energy       =           -3688.8553 kJ/(mole unit cells)
--------------------------------------------------------------------------------


  Number of variables =        1

  Maximum number of calculations  =          1000
  Maximum Hessian update interval =            10
  Maximum step size               =   1.000000000
  Maximum parameter tolerance     =   0.000010000
  Maximum function  tolerance     =   0.000010000
  Maximum gradient  tolerance     =   0.001000000
  Maximum gradient  component     =   0.010000000

  Symmetry constrained optimisation

  Symmetry used for second derivatives

  Cell parameters to be optimised using strains

  Newton-Raphson optimiser to be used

  BFGS hessian update to be used

  Lower half triangular hessian to be used

  Start of bulk optimisation :

  Cycle:      0 Energy:       -38.232536  Gnorm:      0.000019  CPU:    0.014


  **** Optimisation achieved ****


  Final energy =     -38.23253575 eV
  Final Gnorm  =       0.00001878

  Components of energy : 

--------------------------------------------------------------------------------
  Interatomic potentials     =           7.24802695 eV    
  Monopole - monopole (real) =         -11.53475722 eV    
  Monopole - monopole (recip)=         -33.94580548 eV    
  Monopole - monopole (total)=         -45.48056271 eV    
--------------------------------------------------------------------------------
  Total lattice energy       =         -38.23253575 eV    
--------------------------------------------------------------------------------
  Total lattice energy       =           -3688.8553 kJ/(mole unit cells)
--------------------------------------------------------------------------------

  Final asymmetric unit coordinates :

--------------------------------------------------------------------------------
   No.  Atomic        x           y           z         Radius
        Label       (Frac)      (Frac)      (Frac)       (Angs) 
--------------------------------------------------------------------------------
     1  Cl    c     0.000000    0.000000    0.000000    0.000000
     2  O     c     0.500000    0.500000    0.500000    0.000000
     3  Li    c     0.500000    0.500000    0.000000    0.000000
     4  Cl    s     0.000000    0.000000    0.000000    0.000000
     5  O     s     0.500000    0.500000    0.500000    0.000000
--------------------------------------------------------------------------------

  Final Cartesian lattice vectors (Angstroms) :

        3.918873    0.000000    0.000000
        0.000000    3.918873    0.000000
        0.000000    0.000000    3.918873


  Final cell parameters and derivatives :

--------------------------------------------------------------------------------
       a            3.918873 Angstrom     dE/de1(xx)    -0.000019 eV/strain
       b            3.918873 Angstrom     dE/de2(yy)     0.000000 eV/strain
       c            3.918873 Angstrom     dE/de3(zz)     0.000000 eV/strain
       alpha       90.000000 Degrees      dE/de4(yz)     0.000000 eV/strain
       beta        90.000000 Degrees      dE/de5(xz)     0.000000 eV/strain
       gamma       90.000000 Degrees      dE/de6(xy)     0.000000 eV/strain
--------------------------------------------------------------------------------

  Primitive cell volume =            60.184349 Angs**3

  Density of cell =      1.994024 g/cm**3

  Non-primitive cell volume =            60.184349 Angs**3


  Final internal derivatives :

--------------------------------------------------------------------------------
   No.  Atomic          a             b             c           Radius
        Label          (eV)          (eV)          (eV)        (eV/Angs)
--------------------------------------------------------------------------------
      1 Cl    c       0.000000      0.000000      0.000000      0.000000
      2 O     c       0.000000      0.000000      0.000000      0.000000
      3 Li    c       0.000000      0.000000      0.000000      0.000000
      4 Cl    s       0.000000      0.000000      0.000000      0.000000
      5 O     s       0.000000      0.000000      0.000000      0.000000
--------------------------------------------------------------------------------
  Maximum abs         0.000000      0.000000      0.000000      0.000000
--------------------------------------------------------------------------------

  Comparison of initial and final structures : 

--------------------------------------------------------------------------------
  Parameter   Initial value   Final value   Difference    Units      Percent
--------------------------------------------------------------------------------
    Volume        60.184349     60.184349     0.000000    Angs**3      0.00
    a              3.918873      3.918873     0.000000    Angstroms    0.00
    b              3.918873      3.918873     0.000000    Angstroms    0.00
    c              3.918873      3.918873     0.000000    Angstroms    0.00
    alpha         90.000000     90.000000     0.000000    Degrees      0.00
    beta          90.000000     90.000000     0.000000    Degrees      0.00
    gamma         90.000000     90.000000     0.000000    Degrees      0.00
      1 x          0.000000      0.000000     0.000000    Fractional   0.00
      1 y          0.000000      0.000000     0.000000    Fractional   0.00
      1 z          0.000000      0.000000     0.000000    Fractional   0.00
      2 x          0.500000      0.500000     0.000000    Fractional   0.00
      2 y          0.500000      0.500000     0.000000    Fractional   0.00
      2 z          0.500000      0.500000     0.000000    Fractional   0.00
      3 x          0.500000      0.500000     0.000000    Fractional   0.00
      3 y          0.500000      0.500000     0.000000    Fractional   0.00
      3 z          0.000000      0.000000     0.000000    Fractional   0.00
      4 x          0.000000      0.000000     0.000000    Fractional   0.00
      4 y          0.000000      0.000000     0.000000    Fractional   0.00
      4 z          0.000000      0.000000     0.000000    Fractional   0.00
      5 x          0.500000      0.500000     0.000000    Fractional   0.00
      5 y          0.500000      0.500000     0.000000    Fractional   0.00
      5 z          0.500000      0.500000     0.000000    Fractional   0.00
--------------------------------------------------------------------------------


  Born effective charge tensors : 

-------------------------------------------------------------------------------
  Atom             x           y             z
-------------------------------------------------------------------------------
    1 Cl    x      -0.9481      0.0000      0.0000
            y       0.0000     -0.9481      0.0000
            z       0.0000      0.0000     -0.9481
-------------------------------------------------------------------------------
    2 O     x      -2.4696     -0.0000     -0.0000
            y      -0.0000     -2.4696     -0.0000
            z      -0.0000     -0.0000     -2.4696
-------------------------------------------------------------------------------
    3 Li    x       1.3129     -0.0000     -0.0000
            y      -0.0000      1.3129      0.0000
            z      -0.0000     -0.0000      0.7918
-------------------------------------------------------------------------------




  Elastic Constant Matrix: (Units=GPa)

-------------------------------------------------------------------------------
  Indices      1         2         3         4         5         6    
-------------------------------------------------------------------------------
       1     94.4615   45.0779   45.0779    0.0000   -0.0000    0.0000
       2     45.0779   94.4615   45.0779   -0.0000    0.0000   -0.0000
       3     45.0779   45.0779   94.4615   -0.0000   -0.0000   -0.0000
       4      0.0000   -0.0000   -0.0000   45.0779   -0.0000   -0.0000
       5     -0.0000    0.0000   -0.0000   -0.0000   45.0779   -0.0000
       6      0.0000   -0.0000   -0.0000   -0.0000   -0.0000   45.0779
-------------------------------------------------------------------------------


  Elastic Compliance Matrix: (Units=1/GPa)

-------------------------------------------------------------------------------
  Indices      1         2         3         4         5         6    
-------------------------------------------------------------------------------
       1    0.015305 -0.004944 -0.004944 -0.000000  0.000000 -0.000000
       2   -0.004944  0.015305 -0.004944  0.000000 -0.000000  0.000000
       3   -0.004944 -0.004944  0.015305  0.000000  0.000000  0.000000
       4   -0.000000  0.000000  0.000000  0.022184  0.000000  0.000000
       5    0.000000 -0.000000  0.000000  0.000000  0.022184  0.000000
       6   -0.000000  0.000000  0.000000  0.000000  0.000000  0.022184
-------------------------------------------------------------------------------

  Mechanical properties :

-------------------------------------------------------------------------------
  Convention :                    Reuss         Voigt         Hill
-------------------------------------------------------------------------------
  Bulk  Modulus (GPa)     =      61.53912      61.53912      61.53912
  Shear Modulus (GPa)     =      33.88682      36.92346      35.40514
-------------------------------------------------------------------------------
  Velocity S-wave (km/s)  =       4.12240       4.30314       4.21374
  Velocity P-wave (km/s)  =       7.31578       7.45327       7.38484
-------------------------------------------------------------------------------
  Compressibility (1/GPa) =    0.01624983
-------------------------------------------------------------------------------
  Stress axis :                     x             y             z
-------------------------------------------------------------------------------
  Youngs Moduli (GPa)     =      65.33688      65.33688      65.33688
-------------------------------------------------------------------------------
  Poissons Ratio (x)      =                     0.32305       0.32305
  Poissons Ratio (y)      =       0.32305                     0.32305
  Poissons Ratio (z)      =       0.32305       0.32305
-------------------------------------------------------------------------------


  Piezoelectric Strain Matrix: (Units=C/m**2)

-------------------------------------------------------------------------------
  Indices      1         2         3         4         5         6    
-------------------------------------------------------------------------------
       x    -0.00000   0.00000   0.00000   0.00000   0.00000   0.00000
       y    -0.00000  -0.00000  -0.00000   0.00000   0.00000  -0.00000
       z    -0.00000  -0.00000   0.00000   0.00000  -0.00000   0.00000
-------------------------------------------------------------------------------


  Piezoelectric Stress Matrix: (Units=10**-11 C/N)

-------------------------------------------------------------------------------
  Indices      1         2         3         4         5         6    
-------------------------------------------------------------------------------
       x    -0.00000   0.00000   0.00000   0.00000   0.00000   0.00000
       y     0.00000   0.00000  -0.00000   0.00000   0.00000  -0.00000
       z    -0.00000  -0.00000   0.00000   0.00000  -0.00000   0.00000
-------------------------------------------------------------------------------


  Static dielectric constant tensor : 

-------------------------------------------------------------------------------
              x         y         z
-------------------------------------------------------------------------------
       x    12.07041   0.00000   0.00000
       y     0.00000  12.07041   0.00000
       z     0.00000   0.00000  12.07041
--------------------------------------------------------------------------------

  High frequency dielectric constant tensor : 

-------------------------------------------------------------------------------
              x         y         z
-------------------------------------------------------------------------------
       x     1.74197  -0.00000  -0.00000
       y    -0.00000   1.74197  -0.00000
       z    -0.00000  -0.00000   1.74197
-------------------------------------------------------------------------------

  Static refractive indices : 

-------------------------------------------------------------------------------
    1 =    3.47425      2 =    3.47425      3 =    3.47425
-------------------------------------------------------------------------------

  High frequency refractive indices : 

-------------------------------------------------------------------------------
    1 =    1.31984      2 =    1.31984      3 =    1.31984
-------------------------------------------------------------------------------


  Time to end of optimisation =       0.0200 seconds

********************************************************************************
*  Defect calculation for configuration   1 :                                  *
********************************************************************************

  Total number of defects =      1

  Total charge on defect  =  -2.00

  Defect centre is at   0.5000   0.0000   0.0000  Frac

  Region 1 radius =  16.0000      Number of ions =   2034

  Number of symmetry inequivalent region 1 ions  =    193

  Region 2 radius =  20.0000      Number of ions =   1840

  Number of symmetry inequivalent region 2a ions =    146

  Region 2a mode = 4 : screened electrostatics due to region 1 
                       neglect correction to region 1 forces from 2a
                       region 2a displacements based on defects only

  Region 2a ions will only interact with defects in region 1

  Interstitials:

--------------------------------------------------------------------------------
    Specification type     Symbol/Number         x          y          z
--------------------------------------------------------------------------------
    Atom/Fractional         O                0.500000   0.000000   0.000000
--------------------------------------------------------------------------------


  Symmetry reduced region 1 (Relative to defect centre) :

--------------------------------------------------------------------------------
   No.   Atomic       x            y             z       Radius  Multiplicity   
         Label      (Angs)       (Angs)        (Angs)    (Angs)     
--------------------------------------------------------------------------------
     1  O     c      0.0000       0.0000       0.0000    0.0000     1    Defect
     2  Cl    c      1.9594 *     0.0000       0.0000    0.0000     2          
     3  Li    c      0.0000      -1.9594 *     0.0000    0.0000     4          
     4  O     c      0.0000      -1.9594 *    -1.9594    0.0000     4          
     5  Li    c      1.9594 *    -1.9594 *    -1.9594    0.0000     8          
     6  Cl    c      1.9594 *     0.0000       3.9189 *  0.0000     8          
     7  Li    c      0.0000      -1.9594 *     3.9189 *  0.0000     8          
     8  Li    c      3.9189 *    -1.9594 *     0.0000    0.0000     8          
     9  O     c      3.9189 *    -1.9594 *    -1.9594    0.0000     8          
    10  Cl    c      1.9594 *     3.9189 *     3.9189    0.0000     8          
    11  Cl    c      5.8783 *     0.0000       0.0000    0.0000     2          
    12  Li    c      0.0000       5.8783 *     0.0000    0.0000     4          
    13  Li    c      3.9189 *    -1.9594 *     3.9189 *  0.0000    16          
    14  O     c      0.0000      -1.9594 *     5.8783 *  0.0000     8          
    15  Li    c      1.9594 *     5.8783 *    -1.9594 *  0.0000    16          
    16  Li    c      5.8783 *    -1.9594 *    -1.9594    0.0000     8          
    17  Cl    c      5.8783 *     0.0000       3.9189 *  0.0000     8          
    18  Li    c      0.0000       5.8783 *     3.9189 *  0.0000     8          
    19  Li    c      3.9189 *     5.8783 *     0.0000    0.0000     8          
    20  O     c      3.9189 *    -1.9594 *     5.8783 *  0.0000    16          
    21  Li    c      7.8377 *    -1.9594 *     0.0000    0.0000     8          
    22  Cl    c      1.9594 *     0.0000       7.8377 *  0.0000     8          
    23  Cl    c      5.8783 *     3.9189 *     3.9189    0.0000     8          
    24  Li    c      0.0000      -1.9594 *     7.8377 *  0.0000     8          
    25  Li    c      3.9189 *     5.8783 *     3.9189 *  0.0000    16          
    26  O     c      7.8377 *    -1.9594 *    -1.9594    0.0000     8          
    27  O     c      0.0000       5.8783 *     5.8783    0.0000     4          
    28  Li    c      1.9594 *     5.8783 *     5.8783    0.0000     8          
    29  Li    c      5.8783 *    -1.9594 *     5.8783 *  0.0000    16          
    30  Li    c      7.8377 *    -1.9594 *     3.9189 *  0.0000    16          
    31  Cl    c      1.9594 *     3.9189 *     7.8377 *  0.0000    16          
    32  Li    c      3.9189 *    -1.9594 *     7.8377 *  0.0000    16          
    33  O     c      3.9189 *     5.8783 *     5.8783    0.0000     8          
    34  Cl    c      9.7972 *     0.0000       0.0000    0.0000     2          
    35  Li    c      0.0000       9.7972 *     0.0000    0.0000     4          
    36  Li    c      7.8377 *     5.8783 *     0.0000    0.0000     8          
    37  Cl    c      5.8783 *     0.0000       7.8377 *  0.0000     8          
    38  Li    c      0.0000       5.8783 *     7.8377 *  0.0000     8          
    39  O     c      0.0000      -1.9594 *     9.7972 *  0.0000     8          
    40  O     c      7.8377 *    -1.9594 *     5.8783 *  0.0000    16          
    41  Li    c      1.9594 *    -1.9594 *     9.7972 *  0.0000    16          
    42  Li    c      9.7972 *    -1.9594 *    -1.9594    0.0000     8          
    43  Li    c      5.8783 *     5.8783 *     5.8783    0.0000     8          
    44  Cl    c      9.7972 *     0.0000       3.9189 *  0.0000     8          
    45  Li    c      0.0000       9.7972 *     3.9189 *  0.0000     8          
    46  Li    c      3.9189 *     9.7972 *     0.0000    0.0000     8          
    47  Li    c      7.8377 *     5.8783 *     3.9189 *  0.0000    16          
    48  Li    c      3.9189 *     7.8377 *     5.8783 *  0.0000    16          
    49  Cl    c      5.8783 *     3.9189 *     7.8377 *  0.0000    16          
    50  O     c      3.9189 *    -1.9594 *     9.7972 *  0.0000    16          
    51  Li    c      7.8377 *    -1.9594 *     7.8377 *  0.0000    16          
    52  Cl    c      9.7972 *     3.9189 *     3.9189    0.0000     8          
    53  Li    c      3.9189 *     9.7972 *     3.9189 *  0.0000    16          
    54  Cl    c      1.9594 *     7.8377 *     7.8377    0.0000     8          
    55  O     c      0.0000       5.8783 *     9.7972 *  0.0000     8          
    56  O     c      7.8377 *     5.8783 *     5.8783    0.0000     8          
    57  Li    c      1.9594 *     5.8783 *     9.7972 *  0.0000    16          
    58  Li    c      5.8783 *    -1.9594 *     9.7972 *  0.0000    16          
    59  Li    c      9.7972 *    -1.9594 *     5.8783 *  0.0000    16          
    60  Li    c    -11.7566 *    -1.9594 *     0.0000    0.0000     8          
    61  Cl    c      1.9594 *     0.0000      11.7566 *  0.0000     8          
    62  Li    c      0.0000      -1.9594 *    11.7566 *  0.0000     8          
    63  O     c    -11.7566 *    -1.9594 *    -1.9594    0.0000     8          
    64  O     c      3.9189 *     5.8783 *     9.7972 *  0.0000    16          
    65  Li    c    -11.7566 *    -1.9594 *     3.9189 *  0.0000    16          
    66  Cl    c      1.9594 *    11.7566 *     3.9189 *  0.0000    16          
    67  Cl    c      9.7972 *     0.0000       7.8377 *  0.0000     8          
    68  Li    c      0.0000       9.7972 *     7.8377 *  0.0000     8          
    69  Li    c      7.8377 *     5.8783 *     7.8377 *  0.0000    16          
    70  Li    c      7.8377 *     9.7972 *     0.0000    0.0000     8          
    71  Li    c      3.9189 *    11.7566 *    -1.9594 *  0.0000    16          
    72  Cl    c      5.8783 *     7.8377 *     7.8377    0.0000     8          
    73  O     c      7.8377 *    -1.9594 *     9.7972 *  0.0000    16          
    74  Li    c      5.8783 *     5.8783 *     9.7972 *  0.0000    16          
    75  Li    c      9.7972 *     5.8783 *     5.8783    0.0000     8          
    76  Li    c    -11.7566 *     5.8783 *     0.0000    0.0000     8          
    77  Cl    c      9.7972 *     7.8377 *     3.9189 *  0.0000    16          
    78  Li    c      7.8377 *     9.7972 *     3.9189 *  0.0000    16          
    79  Li    c      3.9189 *     7.8377 *     9.7972 *  0.0000    16          
    80  Cl    c      5.8783 *     0.0000      11.7566 *  0.0000     8          
    81  Li    c      0.0000       5.8783 *    11.7566 *  0.0000     8          
    82  O     c    -11.7566 *    -1.9594 *     5.8783 *  0.0000    16          
    83  Cl    c    -13.7161 *     0.0000       0.0000    0.0000     2          
    84  Li    c    -11.7566 *     5.8783 *     3.9189 *  0.0000    16          
    85  Cl    c      5.8783 *    11.7566 *     3.9189 *  0.0000    16          
    86  Li    c      0.0000      13.7161 *     0.0000    0.0000     4          
    87  Li    c      3.9189 *    11.7566 *     5.8783 *  0.0000    16          
    88  O     c      0.0000      -1.9594 *    13.7161 *  0.0000     8          
    89  O     c      0.0000       9.7972 *     9.7972    0.0000     4          
    90  O     c      7.8377 *     5.8783 *     9.7972 *  0.0000    16          
    91  Li    c    -13.7161 *    -1.9594 *    -1.9594    0.0000     8          
    92  Li    c      1.9594 *     9.7972 *     9.7972    0.0000     8          
    93  Li    c      1.9594 *    13.7161 *    -1.9594 *  0.0000    16          
    94  Li    c      9.7972 *    -1.9594 *     9.7972 *  0.0000    16          
    95  Cl    c    -13.7161 *     0.0000       3.9189 *  0.0000     8          
    96  Li    c    -11.7566 *    -1.9594 *     7.8377 *  0.0000    16          
    97  Li    c      0.0000      13.7161 *     3.9189 *  0.0000     8          
    98  Li    c      3.9189 *    13.7161 *     0.0000    0.0000     8          
    99  Li    c      7.8377 *    11.7566 *    -1.9594 *  0.0000    16          
   100  Cl    c      1.9594 *     7.8377 *    11.7566 *  0.0000    16          
   101  O     c    -11.7566 *     5.8783 *     5.8783    0.0000     8          
   102  O     c      3.9189 *     9.7972 *     9.7972    0.0000     8          
   103  O     c      3.9189 *    13.7161 *    -1.9594 *  0.0000    16          
   104  Cl    c    -13.7161 *     3.9189 *     3.9189    0.0000     8          
   105  Li    c      3.9189 *    13.7161 *     3.9189 *  0.0000    16          
   106  Li    c      7.8377 *     7.8377 *     9.7972 *  0.0000    16          
   107  Cl    c      9.7972 *     7.8377 *     7.8377    0.0000     8          
   108  O     c      0.0000       5.8783 *    13.7161 *  0.0000     8          
   109  Li    c    -13.7161 *    -1.9594 *     5.8783 *  0.0000    16          
   110  Li    c      1.9594 *    13.7161 *     5.8783 *  0.0000    16          
   111  Li    c      5.8783 *    13.7161 *    -1.9594 *  0.0000    16          
   112  Li    c      9.7972 *     9.7972 *     5.8783 *  0.0000    16          
   113  Li    c      5.8783 *     9.7972 *     9.7972    0.0000     8          
   114  Li    c    -11.7566 *     9.7972 *     0.0000    0.0000     8          
   115  Li    c    -11.7566 *     5.8783 *     7.8377 *  0.0000    16          
   116  Cl    c      9.7972 *     0.0000      11.7566 *  0.0000     8          
   117  Li    c      0.0000       9.7972 *    11.7566 *  0.0000     8          
   118  Li    c      7.8377 *     5.8783 *    11.7566 *  0.0000    16          
   119  Cl    c      5.8783 *     7.8377 *    11.7566 *  0.0000    16          
   120  O     c    -11.7566 *     9.7972 *    -1.9594 *  0.0000    16          
   121  O     c      3.9189 *    13.7161 *     5.8783 *  0.0000    16          
   122  Li    c    -11.7566 *     9.7972 *     3.9189 *  0.0000    16          
   123  Cl    c    -13.7161 *     0.0000       7.8377 *  0.0000     8          
   124  Cl    c      9.7972 *    11.7566 *     3.9189 *  0.0000    16          
   125  Li    c      7.8377 *    13.7161 *     0.0000    0.0000     8          
   126  Cl    c      1.9594 *     0.0000      15.6755 *  0.0000     8          
   127  Li    c      0.0000      -1.9594 *    15.6755 *  0.0000     8          
   128  Li    c      0.0000      13.7161 *     7.8377 *  0.0000     8          
   129  Li    c      3.9189 *     9.7972 *    11.7566 *  0.0000    16          
   130  Li    c     15.6755 *    -1.9594 *     0.0000    0.0000     8          
   131  O     c      7.8377 *    -1.9594 *    13.7161 *  0.0000    16          
   132  O     c      7.8377 *     9.7972 *     9.7972    0.0000     8          
   133  O     c     15.6755 *    -1.9594 *    -1.9594    0.0000     8          
   134  O     s      0.0000       0.0000       0.0000    0.0000     1    Defect
   135  Cl    s      1.9594 *     0.0000       0.0000    0.0000     2          
   136  O     s      0.0000      -1.9594 *    -1.9594    0.0000     4          
   137  Cl    s      1.9594 *     0.0000       3.9189 *  0.0000     8          
   138  O     s      3.9189 *    -1.9594 *    -1.9594    0.0000     8          
   139  Cl    s      1.9594 *     3.9189 *     3.9189    0.0000     8          
   140  Cl    s      5.8783 *     0.0000       0.0000    0.0000     2          
   141  O     s      0.0000      -1.9594 *     5.8783 *  0.0000     8          
   142  Cl    s      5.8783 *     0.0000       3.9189 *  0.0000     8          
   143  O     s      3.9189 *    -1.9594 *     5.8783 *  0.0000    16          
   144  Cl    s      1.9594 *     0.0000       7.8377 *  0.0000     8          
   145  Cl    s      5.8783 *     3.9189 *     3.9189    0.0000     8          
   146  O     s      7.8377 *    -1.9594 *    -1.9594    0.0000     8          
   147  O     s      0.0000       5.8783 *     5.8783    0.0000     4          
   148  Cl    s      1.9594 *     3.9189 *     7.8377 *  0.0000    16          
   149  O     s      3.9189 *     5.8783 *     5.8783    0.0000     8          
   150  Cl    s      9.7972 *     0.0000       0.0000    0.0000     2          
   151  Cl    s      5.8783 *     0.0000       7.8377 *  0.0000     8          
   152  O     s      0.0000      -1.9594 *     9.7972 *  0.0000     8          
   153  O     s      7.8377 *    -1.9594 *     5.8783 *  0.0000    16          
   154  Cl    s      9.7972 *     0.0000       3.9189 *  0.0000     8          
   155  Cl    s      5.8783 *     3.9189 *     7.8377 *  0.0000    16          
   156  O     s      3.9189 *    -1.9594 *     9.7972 *  0.0000    16          
   157  Cl    s      9.7972 *     3.9189 *     3.9189    0.0000     8          
   158  Cl    s      1.9594 *     7.8377 *     7.8377    0.0000     8          
   159  O     s      0.0000       5.8783 *     9.7972 *  0.0000     8          
   160  O     s      7.8377 *     5.8783 *     5.8783    0.0000     8          
   161  Cl    s      1.9594 *     0.0000      11.7566 *  0.0000     8          
   162  O     s    -11.7566 *    -1.9594 *    -1.9594    0.0000     8          
   163  O     s      3.9189 *     5.8783 *     9.7972 *  0.0000    16          
   164  Cl    s      1.9594 *    11.7566 *     3.9189 *  0.0000    16          
   165  Cl    s      9.7972 *     0.0000       7.8377 *  0.0000     8          
   166  Cl    s      5.8783 *     7.8377 *     7.8377    0.0000     8          
   167  O     s      7.8377 *    -1.9594 *     9.7972 *  0.0000    16          
   168  Cl    s      9.7972 *     7.8377 *     3.9189 *  0.0000    16          
   169  Cl    s      5.8783 *     0.0000      11.7566 *  0.0000     8          
   170  O     s    -11.7566 *    -1.9594 *     5.8783 *  0.0000    16          
   171  Cl    s    -13.7161 *     0.0000       0.0000    0.0000     2          
   172  Cl    s      5.8783 *    11.7566 *     3.9189 *  0.0000    16          
   173  O     s      0.0000      -1.9594 *    13.7161 *  0.0000     8          
   174  O     s      0.0000       9.7972 *     9.7972    0.0000     4          
   175  O     s      7.8377 *     5.8783 *     9.7972 *  0.0000    16          
   176  Cl    s    -13.7161 *     0.0000       3.9189 *  0.0000     8          
   177  Cl    s      1.9594 *     7.8377 *    11.7566 *  0.0000    16          
   178  O     s    -11.7566 *     5.8783 *     5.8783    0.0000     8          
   179  O     s      3.9189 *     9.7972 *     9.7972    0.0000     8          
   180  O     s      3.9189 *    13.7161 *    -1.9594 *  0.0000    16          
   181  Cl    s    -13.7161 *     3.9189 *     3.9189    0.0000     8          
   182  Cl    s      9.7972 *     7.8377 *     7.8377    0.0000     8          
   183  O     s      0.0000       5.8783 *    13.7161 *  0.0000     8          
   184  Cl    s      9.7972 *     0.0000      11.7566 *  0.0000     8          
   185  Cl    s      5.8783 *     7.8377 *    11.7566 *  0.0000    16          
   186  O     s    -11.7566 *     9.7972 *    -1.9594 *  0.0000    16          
   187  O     s      3.9189 *    13.7161 *     5.8783 *  0.0000    16          
   188  Cl    s    -13.7161 *     0.0000       7.8377 *  0.0000     8          
   189  Cl    s      9.7972 *    11.7566 *     3.9189 *  0.0000    16          
   190  Cl    s      1.9594 *     0.0000      15.6755 *  0.0000     8          
   191  O     s      7.8377 *    -1.9594 *    13.7161 *  0.0000    16          
   192  O     s      7.8377 *     9.7972 *     9.7972    0.0000     8          
   193  O     s     15.6755 *    -1.9594 *    -1.9594    0.0000     8          
--------------------------------------------------------------------------------


  Constraints on symmetry reduced coordinates :

--------------------------------------------------------------------------------
  Constraint no.      Unconstrained     Constrained    Coefficient    
                         Variable         Variable
--------------------------------------------------------------------------------
           1                 4 y             4 z         1.00000
           2                 5 y             5 z         1.00000
           3                 9 y             9 z         1.00000
           4                10 y            10 z         1.00000
           5                16 y            16 z         1.00000
           6                23 y            23 z         1.00000
           7                26 y            26 z         1.00000
           8                27 y            27 z         1.00000
           9                28 y            28 z         1.00000
          10                33 y            33 z         1.00000
          11                42 y            42 z         1.00000
          12                43 y            43 z         1.00000
          13                52 y            52 z         1.00000
          14                54 y            54 z         1.00000
          15                56 y            56 z         1.00000
          16                63 y            63 z         1.00000
          17                72 y            72 z         1.00000
          18                75 y            75 z         1.00000
          19                89 y            89 z         1.00000
          20                91 y            91 z         1.00000
          21                92 y            92 z         1.00000
          22               101 y           101 z         1.00000
          23               102 y           102 z         1.00000
          24               104 y           104 z         1.00000
          25               107 y           107 z         1.00000
          26               113 y           113 z         1.00000
          27               132 y           132 z         1.00000
          28               133 y           133 z         1.00000
          29               136 y           136 z         1.00000
          30               138 y           138 z         1.00000
          31               139 y           139 z         1.00000
          32               145 y           145 z         1.00000
          33               146 y           146 z         1.00000
          34               147 y           147 z         1.00000
          35               149 y           149 z         1.00000
          36               157 y           157 z         1.00000
          37               158 y           158 z         1.00000
          38               160 y           160 z         1.00000
          39               162 y           162 z         1.00000
          40               166 y           166 z         1.00000
          41               174 y           174 z         1.00000
          42               178 y           178 z         1.00000
          43               179 y           179 z         1.00000
          44               181 y           181 z         1.00000
          45               182 y           182 z         1.00000
          46               192 y           192 z         1.00000
          47               193 y           193 z         1.00000
--------------------------------------------------------------------------------


  Components of defect energy : 

--------------------------------------------------------------------------------
  Region 1 - region 1                   =     65.40123109 eV
  Region 1 - region 2a (unrelaxed)      =    -56.92561816 eV
  Region 1 - 2a (relaxed - correction)  =     -0.63994492 eV
  Region 1 (Total)                      =      7.83566802 eV
  Region 2a                             =      0.31992030 eV
  Region 2b                             =     -1.32312859 eV
--------------------------------------------------------------------------------
  Total defect energy                   =      6.83245972 eV
--------------------------------------------------------------------------------

  Largest displacement in region 2 =   0.0099 Angstroms


  Number of variables =      438

  Maximum number of calculations  =        1000
  Maximum Hessian update interval =          10
  Maximum step size               =   1.0000000
  Maximum parameter tolerance     =   0.0000100
  Maximum function  tolerance     =   0.0000100
  Maximum gradient  tolerance     =   0.0010000

  Symmetry adapted optimisation

  Symmetry to be used for second derivatives

  Newton-Raphson optimiser to be used

  BFGS hessian update to be used

  Lower half triangular hessian to be used

  Start of defect optimisation :

  Cycle:      0 Defect Energy:   6.832460  Gnorm:     0.270675  CPU:   11.017
  ** Hessian calculated **
  Cycle:      1 Defect Energy: -13.575852  Gnorm:     0.028183  CPU:   20.580
  ** Hessian calculated **
  Cycle:      2 Defect Energy: -15.912928  Gnorm:     0.016967  CPU:   31.421
  Cycle:      3 Defect Energy: -16.349355  Gnorm:     0.003118  CPU:   38.527
  Cycle:      4 Defect Energy: -16.392678  Gnorm:     0.002425  CPU:   40.350
  Cycle:      5 Defect Energy: -16.422627  Gnorm:     0.001784  CPU:   42.278
  Cycle:      6 Defect Energy: -16.438603  Gnorm:     0.001284  CPU:   44.010
  Cycle:      7 Defect Energy: -16.446926  Gnorm:     0.000915  CPU:   45.713
  Cycle:      8 Defect Energy: -16.451205  Gnorm:     0.000648  CPU:   47.459
  Cycle:      9 Defect Energy: -16.453383  Gnorm:     0.000458  CPU:   48.980
  Cycle:     10 Defect Energy: -16.454148  Gnorm:     0.000322  CPU:   50.551
  Cycle:     11 Defect Energy: -16.454700  Gnorm:     0.000226  CPU:   51.916
  ** Hessian calculated **
  Cycle:     12 Defect Energy: -16.454974  Gnorm:     0.000159  CPU:   56.017
  Cycle:     13 Defect Energy: -16.455110  Gnorm:     0.000111  CPU:   57.501
  Cycle:     14 Defect Energy: -16.455177  Gnorm:     0.000078  CPU:   59.046
  Cycle:     15 Defect Energy: -16.455210  Gnorm:     0.000055  CPU:   60.660
  Cycle:     16 Defect Energy: -16.455226  Gnorm:     0.000038  CPU:   62.061


  **** Optimisation achieved ****


  Final defect energy  =      -16.45523409
  Final defect Gnorm   =        0.00002685

  Components of defect energy : 

--------------------------------------------------------------------------------
  Region 1 - region 1                   =     41.89283077 eV
  Region 1 - region 2a (unrelaxed)      =    -56.76702930 eV
  Region 1 - 2a (relaxed - correction)  =     -0.51576037 eV
  Region 1 (Total)                      =    -15.38995890 eV
  Region 2a                             =      0.25785341 eV
  Region 2b                             =     -1.32312859 eV
--------------------------------------------------------------------------------
  Total defect energy                   =    -16.45523409 eV
--------------------------------------------------------------------------------

  Largest displacement in region 2 =   0.0099 Angstroms

  Final coordinates of region 1 :

--------------------------------------------------------------------------------
   No.  Atomic        x           y           z          Radius      Charge
        Label       (Angs)      (Angs)      (Angs)       (Angs)       (e) 
--------------------------------------------------------------------------------
     1  O     c     1.959436    0.000000    0.000000    0.000000    0.183000
     2  Cl    c     4.536737    0.000000    0.000000    0.000000    1.485000
     3  Cl    c    -0.617864    0.000000    0.000000    0.000000    1.485000
     4  Li    c     1.959436   -1.721030    0.000000    0.000000    1.000000
     5  Li    c     1.959436    1.721030    0.000000    0.000000    1.000000
     6  Li    c     1.959436    0.000000   -1.721030    0.000000    1.000000
     7  Li    c     1.959436    0.000000    1.721030    0.000000    1.000000
     8  O     c     1.959436   -2.131916   -2.131916    0.000000    0.183000
     9  O     c     1.959436   -2.131916    2.131916    0.000000    0.183000
    10  O     c     1.959436    2.131916   -2.131916    0.000000    0.183000
    11  O     c     1.959436    2.131916    2.131916    0.000000    0.183000
    12  Li    c     3.865249   -1.945258   -1.945258    0.000000    1.000000
    13  Li    c     3.865249   -1.945258    1.945258    0.000000    1.000000
    14  Li    c     3.865249    1.945258   -1.945258    0.000000    1.000000
    15  Li    c     3.865249    1.945258    1.945258    0.000000    1.000000
    16  Li    c     0.053624   -1.945258   -1.945258    0.000000    1.000000
    17  Li    c     0.053624   -1.945258    1.945258    0.000000    1.000000
    18  Li    c     0.053624    1.945258   -1.945258    0.000000    1.000000
    19  Li    c     0.053624    1.945258    1.945258    0.000000    1.000000
    20  Cl    c     3.955733    0.000000    3.969539    0.000000    1.485000
    21  Cl    c     3.955733    0.000000   -3.969539    0.000000    1.485000
    22  Cl    c     3.955733    3.969539    0.000000    0.000000    1.485000
    23  Cl    c     3.955733   -3.969539    0.000000    0.000000    1.485000
    24  Cl    c    -0.036860    0.000000    3.969539    0.000000    1.485000
    25  Cl    c    -0.036860    0.000000   -3.969539    0.000000    1.485000
    26  Cl    c    -0.036860    3.969539    0.000000    0.000000    1.485000
    27  Cl    c    -0.036860   -3.969539    0.000000    0.000000    1.485000
    28  Li    c     1.959436   -1.957055    3.935030    0.000000    1.000000
    29  Li    c     1.959436   -1.957055   -3.935030    0.000000    1.000000
    30  Li    c     1.959436    1.957055    3.935030    0.000000    1.000000
    31  Li    c     1.959436    1.957055   -3.935030    0.000000    1.000000
    32  Li    c     1.959436    3.935030   -1.957055    0.000000    1.000000
    33  Li    c     1.959436    3.935030    1.957055    0.000000    1.000000
    34  Li    c     1.959436   -3.935030   -1.957055    0.000000    1.000000
    35  Li    c     1.959436   -3.935030    1.957055    0.000000    1.000000
    36  Li    c     5.895597   -1.932512    0.000000    0.000000    1.000000
    37  Li    c     5.895597    1.932512    0.000000    0.000000    1.000000
    38  Li    c    -1.976724   -1.932512    0.000000    0.000000    1.000000
    39  Li    c    -1.976724    1.932512    0.000000    0.000000    1.000000
    40  Li    c     5.895597    0.000000   -1.932512    0.000000    1.000000
    41  Li    c     5.895597    0.000000    1.932512    0.000000    1.000000
    42  Li    c    -1.976724    0.000000   -1.932512    0.000000    1.000000
    43  Li    c    -1.976724    0.000000    1.932512    0.000000    1.000000
    44  O     c     5.924750   -2.029022   -2.029022    0.000000    0.183000
    45  O     c     5.924750   -2.029022    2.029022    0.000000    0.183000
    46  O     c     5.924750    2.029022   -2.029022    0.000000    0.183000
    47  O     c     5.924750    2.029022    2.029022    0.000000    0.183000
    48  O     c    -2.005877   -2.029022   -2.029022    0.000000    0.183000
    49  O     c    -2.005877   -2.029022    2.029022    0.000000    0.183000
    50  O     c    -2.005877    2.029022   -2.029022    0.000000    0.183000
    51  O     c    -2.005877    2.029022    2.029022    0.000000    0.183000
    52  Cl    c     3.963817    4.000032    4.000032    0.000000    1.485000
    53  Cl    c     3.963817    4.000032   -4.000032    0.000000    1.485000
    54  Cl    c     3.963817   -4.000032    4.000032    0.000000    1.485000
    55  Cl    c     3.963817   -4.000032   -4.000032    0.000000    1.485000
    56  Cl    c    -0.044944    4.000032    4.000032    0.000000    1.485000
    57  Cl    c    -0.044944    4.000032   -4.000032    0.000000    1.485000
    58  Cl    c    -0.044944   -4.000032    4.000032    0.000000    1.485000
    59  Cl    c    -0.044944   -4.000032   -4.000032    0.000000    1.485000
    60  Cl    c     8.002174    0.000000    0.000000    0.000000    1.485000
    61  Cl    c    -4.083301    0.000000    0.000000    0.000000    1.485000
    62  Li    c     1.959436    5.867425    0.000000    0.000000    1.000000
    63  Li    c     1.959436   -5.867425    0.000000    0.000000    1.000000
    64  Li    c     1.959436    0.000000    5.867425    0.000000    1.000000
    65  Li    c     1.959436    0.000000   -5.867425    0.000000    1.000000
    66  Li    c     5.855280   -1.968924    3.919518    0.000000    1.000000
    67  Li    c     5.855280   -1.968924   -3.919518    0.000000    1.000000
    68  Li    c     5.855280    1.968924    3.919518    0.000000    1.000000
    69  Li    c     5.855280    1.968924   -3.919518    0.000000    1.000000
    70  Li    c    -1.936407   -1.968924    3.919518    0.000000    1.000000
    71  Li    c    -1.936407   -1.968924   -3.919518    0.000000    1.000000
    72  Li    c    -1.936407    1.968924    3.919518    0.000000    1.000000
    73  Li    c    -1.936407    1.968924   -3.919518    0.000000    1.000000
    74  Li    c     5.855280    3.919518   -1.968924    0.000000    1.000000
    75  Li    c     5.855280    3.919518    1.968924    0.000000    1.000000
    76  Li    c     5.855280   -3.919518   -1.968924    0.000000    1.000000
    77  Li    c     5.855280   -3.919518    1.968924    0.000000    1.000000
    78  Li    c    -1.936407    3.919518   -1.968924    0.000000    1.000000
    79  Li    c    -1.936407    3.919518    1.968924    0.000000    1.000000
    80  Li    c    -1.936407   -3.919518   -1.968924    0.000000    1.000000
    81  Li    c    -1.936407   -3.919518    1.968924    0.000000    1.000000
    82  O     c     1.959436   -1.966528    5.913576    0.000000    0.183000
    83  O     c     1.959436   -1.966528   -5.913576    0.000000    0.183000
    84  O     c     1.959436    1.966528    5.913576    0.000000    0.183000
    85  O     c     1.959436    1.966528   -5.913576    0.000000    0.183000
    86  O     c     1.959436    5.913576   -1.966528    0.000000    0.183000
    87  O     c     1.959436    5.913576    1.966528    0.000000    0.183000
    88  O     c     1.959436   -5.913576   -1.966528    0.000000    0.183000
    89  O     c     1.959436   -5.913576    1.966528    0.000000    0.183000
    90  Li    c     3.919901    5.877756   -1.960669    0.000000    1.000000
    91  Li    c     3.919901    5.877756    1.960669    0.000000    1.000000
    92  Li    c     3.919901   -5.877756   -1.960669    0.000000    1.000000
    93  Li    c     3.919901   -5.877756    1.960669    0.000000    1.000000
    94  Li    c    -0.001028    5.877756   -1.960669    0.000000    1.000000
    95  Li    c    -0.001028    5.877756    1.960669    0.000000    1.000000
    96  Li    c    -0.001028   -5.877756   -1.960669    0.000000    1.000000
    97  Li    c    -0.001028   -5.877756    1.960669    0.000000    1.000000
    98  Li    c     3.919901   -1.960669    5.877756    0.000000    1.000000
    99  Li    c     3.919901   -1.960669   -5.877756    0.000000    1.000000
   100  Li    c     3.919901    1.960669    5.877756    0.000000    1.000000
   101  Li    c     3.919901    1.960669   -5.877756    0.000000    1.000000
   102  Li    c    -0.001028   -1.960669    5.877756    0.000000    1.000000
   103  Li    c    -0.001028   -1.960669   -5.877756    0.000000    1.000000
   104  Li    c    -0.001028    1.960669    5.877756    0.000000    1.000000
   105  Li    c    -0.001028    1.960669   -5.877756    0.000000    1.000000
   106  Li    c     7.833992   -1.994839   -1.994839    0.000000    1.000000
   107  Li    c     7.833992   -1.994839    1.994839    0.000000    1.000000
   108  Li    c     7.833992    1.994839   -1.994839    0.000000    1.000000
   109  Li    c     7.833992    1.994839    1.994839    0.000000    1.000000
   110  Li    c    -3.915119   -1.994839   -1.994839    0.000000    1.000000
   111  Li    c    -3.915119   -1.994839    1.994839    0.000000    1.000000
   112  Li    c    -3.915119    1.994839   -1.994839    0.000000    1.000000
   113  Li    c    -3.915119    1.994839    1.994839    0.000000    1.000000
   114  Cl    c     7.873230    0.000000    3.945098    0.000000    1.485000
   115  Cl    c     7.873230    0.000000   -3.945098    0.000000    1.485000
   116  Cl    c     7.873230    3.945098    0.000000    0.000000    1.485000
   117  Cl    c     7.873230   -3.945098    0.000000    0.000000    1.485000
   118  Cl    c    -3.954357    0.000000    3.945098    0.000000    1.485000
   119  Cl    c    -3.954357    0.000000   -3.945098    0.000000    1.485000
   120  Cl    c    -3.954357    3.945098    0.000000    0.000000    1.485000
   121  Cl    c    -3.954357   -3.945098    0.000000    0.000000    1.485000
   122  Li    c     1.959436    5.871868    3.923302    0.000000    1.000000
   123  Li    c     1.959436    5.871868   -3.923302    0.000000    1.000000
   124  Li    c     1.959436   -5.871868    3.923302    0.000000    1.000000
   125  Li    c     1.959436   -5.871868   -3.923302    0.000000    1.000000
   126  Li    c     1.959436    3.923302    5.871868    0.000000    1.000000
   127  Li    c     1.959436    3.923302   -5.871868    0.000000    1.000000
   128  Li    c     1.959436   -3.923302    5.871868    0.000000    1.000000
   129  Li    c     1.959436   -3.923302   -5.871868    0.000000    1.000000
   130  Li    c     5.868549    5.857483    0.000000    0.000000    1.000000
   131  Li    c     5.868549   -5.857483    0.000000    0.000000    1.000000
   132  Li    c    -1.949676    5.857483    0.000000    0.000000    1.000000
   133  Li    c    -1.949676   -5.857483    0.000000    0.000000    1.000000
   134  Li    c     5.868549    0.000000    5.857483    0.000000    1.000000
   135  Li    c     5.868549    0.000000   -5.857483    0.000000    1.000000
   136  Li    c    -1.949676    0.000000    5.857483    0.000000    1.000000
   137  Li    c    -1.949676    0.000000   -5.857483    0.000000    1.000000
   138  O     c     5.888989   -1.967787    5.900257    0.000000    0.183000
   139  O     c     5.888989   -1.967787   -5.900257    0.000000    0.183000
   140  O     c     5.888989    1.967787    5.900257    0.000000    0.183000
   141  O     c     5.888989    1.967787   -5.900257    0.000000    0.183000
   142  O     c     5.888989    5.900257   -1.967787    0.000000    0.183000
   143  O     c     5.888989    5.900257    1.967787    0.000000    0.183000
   144  O     c     5.888989   -5.900257   -1.967787    0.000000    0.183000
   145  O     c     5.888989   -5.900257    1.967787    0.000000    0.183000
   146  O     c    -1.970116   -1.967787    5.900257    0.000000    0.183000
   147  O     c    -1.970116   -1.967787   -5.900257    0.000000    0.183000
   148  O     c    -1.970116    1.967787    5.900257    0.000000    0.183000
   149  O     c    -1.970116    1.967787   -5.900257    0.000000    0.183000
   150  O     c    -1.970116    5.900257   -1.967787    0.000000    0.183000
   151  O     c    -1.970116    5.900257    1.967787    0.000000    0.183000
   152  O     c    -1.970116   -5.900257   -1.967787    0.000000    0.183000
   153  O     c    -1.970116   -5.900257    1.967787    0.000000    0.183000
   154  Li    c     9.767333   -1.949911    0.000000    0.000000    1.000000
   155  Li    c     9.767333    1.949911    0.000000    0.000000    1.000000
   156  Li    c     9.767333    0.000000   -1.949911    0.000000    1.000000
   157  Li    c     9.767333    0.000000    1.949911    0.000000    1.000000
   158  Li    c    -5.848460   -1.949911    0.000000    0.000000    1.000000
   159  Li    c    -5.848460    1.949911    0.000000    0.000000    1.000000
   160  Li    c    -5.848460    0.000000   -1.949911    0.000000    1.000000
   161  Li    c    -5.848460    0.000000    1.949911    0.000000    1.000000
   162  Cl    c     3.926713    0.000000    7.866832    0.000000    1.485000
   163  Cl    c     3.926713    0.000000   -7.866832    0.000000    1.485000
   164  Cl    c     3.926713    7.866832    0.000000    0.000000    1.485000
   165  Cl    c     3.926713   -7.866832    0.000000    0.000000    1.485000
   166  Cl    c    -0.007840    0.000000    7.866832    0.000000    1.485000
   167  Cl    c    -0.007840    0.000000   -7.866832    0.000000    1.485000
   168  Cl    c    -0.007840    7.866832    0.000000    0.000000    1.485000
   169  Cl    c    -0.007840   -7.866832    0.000000    0.000000    1.485000
   170  Cl    c     7.879670    3.957876    3.957876    0.000000    1.485000
   171  Cl    c     7.879670    3.957876   -3.957876    0.000000    1.485000
   172  Cl    c     7.879670   -3.957876    3.957876    0.000000    1.485000
   173  Cl    c     7.879670   -3.957876   -3.957876    0.000000    1.485000
   174  Cl    c    -3.960797    3.957876    3.957876    0.000000    1.485000
   175  Cl    c    -3.960797    3.957876   -3.957876    0.000000    1.485000
   176  Cl    c    -3.960797   -3.957876    3.957876    0.000000    1.485000
   177  Cl    c    -3.960797   -3.957876   -3.957876    0.000000    1.485000
   178  Li    c     1.959436   -1.958658    7.839915    0.000000    1.000000
   179  Li    c     1.959436   -1.958658   -7.839915    0.000000    1.000000
   180  Li    c     1.959436    1.958658    7.839915    0.000000    1.000000
   181  Li    c     1.959436    1.958658   -7.839915    0.000000    1.000000
   182  Li    c     1.959436    7.839915   -1.958658    0.000000    1.000000
   183  Li    c     1.959436    7.839915    1.958658    0.000000    1.000000
   184  Li    c     1.959436   -7.839915   -1.958658    0.000000    1.000000
   185  Li    c     1.959436   -7.839915    1.958658    0.000000    1.000000
   186  Li    c     5.873775    5.873552    3.925865    0.000000    1.000000
   187  Li    c     5.873775    5.873552   -3.925865    0.000000    1.000000
   188  Li    c     5.873775   -5.873552    3.925865    0.000000    1.000000
   189  Li    c     5.873775   -5.873552   -3.925865    0.000000    1.000000
   190  Li    c    -1.954902    5.873552    3.925865    0.000000    1.000000
   191  Li    c    -1.954902    5.873552   -3.925865    0.000000    1.000000
   192  Li    c    -1.954902   -5.873552    3.925865    0.000000    1.000000
   193  Li    c    -1.954902   -5.873552   -3.925865    0.000000    1.000000
   194  Li    c     5.873775    3.925865    5.873552    0.000000    1.000000
   195  Li    c     5.873775    3.925865   -5.873552    0.000000    1.000000
   196  Li    c     5.873775   -3.925865    5.873552    0.000000    1.000000
   197  Li    c     5.873775   -3.925865   -5.873552    0.000000    1.000000
   198  Li    c    -1.954902    3.925865    5.873552    0.000000    1.000000
   199  Li    c    -1.954902    3.925865   -5.873552    0.000000    1.000000
   200  Li    c    -1.954902   -3.925865    5.873552    0.000000    1.000000
   201  Li    c    -1.954902   -3.925865   -5.873552    0.000000    1.000000
   202  O     c     9.812952   -1.977625   -1.977625    0.000000    0.183000
   203  O     c     9.812952   -1.977625    1.977625    0.000000    0.183000
   204  O     c     9.812952    1.977625   -1.977625    0.000000    0.183000
   205  O     c     9.812952    1.977625    1.977625    0.000000    0.183000
   206  O     c    -5.894079   -1.977625   -1.977625    0.000000    0.183000
   207  O     c    -5.894079   -1.977625    1.977625    0.000000    0.183000
   208  O     c    -5.894079    1.977625   -1.977625    0.000000    0.183000
   209  O     c    -5.894079    1.977625    1.977625    0.000000    0.183000
   210  O     c     1.959436    5.897639    5.897639    0.000000    0.183000
   211  O     c     1.959436    5.897639   -5.897639    0.000000    0.183000
   212  O     c     1.959436   -5.897639    5.897639    0.000000    0.183000
   213  O     c     1.959436   -5.897639   -5.897639    0.000000    0.183000
   214  Li    c     3.923372    5.872449    5.872449    0.000000    1.000000
   215  Li    c     3.923372    5.872449   -5.872449    0.000000    1.000000
   216  Li    c     3.923372   -5.872449    5.872449    0.000000    1.000000
   217  Li    c     3.923372   -5.872449   -5.872449    0.000000    1.000000
   218  Li    c    -0.004499    5.872449    5.872449    0.000000    1.000000
   219  Li    c    -0.004499    5.872449   -5.872449    0.000000    1.000000
   220  Li    c    -0.004499   -5.872449    5.872449    0.000000    1.000000
   221  Li    c    -0.004499   -5.872449   -5.872449    0.000000    1.000000
   222  Li    c     7.834601   -1.960365    5.870121    0.000000    1.000000
   223  Li    c     7.834601   -1.960365   -5.870121    0.000000    1.000000
   224  Li    c     7.834601    1.960365    5.870121    0.000000    1.000000
   225  Li    c     7.834601    1.960365   -5.870121    0.000000    1.000000
   226  Li    c     7.834601    5.870121   -1.960365    0.000000    1.000000
   227  Li    c     7.834601    5.870121    1.960365    0.000000    1.000000
   228  Li    c     7.834601   -5.870121   -1.960365    0.000000    1.000000
   229  Li    c     7.834601   -5.870121    1.960365    0.000000    1.000000
   230  Li    c    -3.915728   -1.960365    5.870121    0.000000    1.000000
   231  Li    c    -3.915728   -1.960365   -5.870121    0.000000    1.000000
   232  Li    c    -3.915728    1.960365    5.870121    0.000000    1.000000
   233  Li    c    -3.915728    1.960365   -5.870121    0.000000    1.000000
   234  Li    c    -3.915728    5.870121   -1.960365    0.000000    1.000000
   235  Li    c    -3.915728    5.870121    1.960365    0.000000    1.000000
   236  Li    c    -3.915728   -5.870121   -1.960365    0.000000    1.000000
   237  Li    c    -3.915728   -5.870121    1.960365    0.000000    1.000000
   238  Li    c     9.801860   -1.959092    3.922874    0.000000    1.000000
   239  Li    c     9.801860   -1.959092   -3.922874    0.000000    1.000000
   240  Li    c     9.801860    1.959092    3.922874    0.000000    1.000000
   241  Li    c     9.801860    1.959092   -3.922874    0.000000    1.000000
   242  Li    c     9.801860    3.922874   -1.959092    0.000000    1.000000
   243  Li    c     9.801860    3.922874    1.959092    0.000000    1.000000
   244  Li    c     9.801860   -3.922874   -1.959092    0.000000    1.000000
   245  Li    c     9.801860   -3.922874    1.959092    0.000000    1.000000
   246  Li    c    -5.882987   -1.959092    3.922874    0.000000    1.000000
   247  Li    c    -5.882987   -1.959092   -3.922874    0.000000    1.000000
   248  Li    c    -5.882987    1.959092    3.922874    0.000000    1.000000
   249  Li    c    -5.882987    1.959092   -3.922874    0.000000    1.000000
   250  Li    c    -5.882987    3.922874   -1.959092    0.000000    1.000000
   251  Li    c    -5.882987    3.922874    1.959092    0.000000    1.000000
   252  Li    c    -5.882987   -3.922874   -1.959092    0.000000    1.000000
   253  Li    c    -5.882987   -3.922874    1.959092    0.000000    1.000000
   254  Cl    c     3.926059    3.931632    7.867000    0.000000    1.485000
   255  Cl    c     3.926059    3.931632   -7.867000    0.000000    1.485000
   256  Cl    c     3.926059    7.867000    3.931632    0.000000    1.485000
   257  Cl    c     3.926059    7.867000   -3.931632    0.000000    1.485000
   258  Cl    c     3.926059   -3.931632    7.867000    0.000000    1.485000
   259  Cl    c     3.926059   -3.931632   -7.867000    0.000000    1.485000
   260  Cl    c     3.926059   -7.867000    3.931632    0.000000    1.485000
   261  Cl    c     3.926059   -7.867000   -3.931632    0.000000    1.485000
   262  Cl    c    -0.007186    3.931632    7.867000    0.000000    1.485000
   263  Cl    c    -0.007186    3.931632   -7.867000    0.000000    1.485000
   264  Cl    c    -0.007186    7.867000    3.931632    0.000000    1.485000
   265  Cl    c    -0.007186    7.867000   -3.931632    0.000000    1.485000
   266  Cl    c    -0.007186   -3.931632    7.867000    0.000000    1.485000
   267  Cl    c    -0.007186   -3.931632   -7.867000    0.000000    1.485000
   268  Cl    c    -0.007186   -7.867000    3.931632    0.000000    1.485000
   269  Cl    c    -0.007186   -7.867000   -3.931632    0.000000    1.485000
   270  Li    c     5.882396   -1.957854    7.835750    0.000000    1.000000
   271  Li    c     5.882396   -1.957854   -7.835750    0.000000    1.000000
   272  Li    c     5.882396    1.957854    7.835750    0.000000    1.000000
   273  Li    c     5.882396    1.957854   -7.835750    0.000000    1.000000
   274  Li    c    -1.963523   -1.957854    7.835750    0.000000    1.000000
   275  Li    c    -1.963523   -1.957854   -7.835750    0.000000    1.000000
   276  Li    c    -1.963523    1.957854    7.835750    0.000000    1.000000
   277  Li    c    -1.963523    1.957854   -7.835750    0.000000    1.000000
   278  Li    c     5.882396    7.835750   -1.957854    0.000000    1.000000
   279  Li    c     5.882396    7.835750    1.957854    0.000000    1.000000
   280  Li    c     5.882396   -7.835750   -1.957854    0.000000    1.000000
   281  Li    c     5.882396   -7.835750    1.957854    0.000000    1.000000
   282  Li    c    -1.963523    7.835750   -1.957854    0.000000    1.000000
   283  Li    c    -1.963523    7.835750    1.957854    0.000000    1.000000
   284  Li    c    -1.963523   -7.835750   -1.957854    0.000000    1.000000
   285  Li    c    -1.963523   -7.835750    1.957854    0.000000    1.000000
   286  O     c     5.897284    5.902418    5.902418    0.000000    0.183000
   287  O     c     5.897284    5.902418   -5.902418    0.000000    0.183000
   288  O     c     5.897284   -5.902418    5.902418    0.000000    0.183000
   289  O     c     5.897284   -5.902418   -5.902418    0.000000    0.183000
   290  O     c    -1.978411    5.902418    5.902418    0.000000    0.183000
   291  O     c    -1.978411    5.902418   -5.902418    0.000000    0.183000
   292  O     c    -1.978411   -5.902418    5.902418    0.000000    0.183000
   293  O     c    -1.978411   -5.902418   -5.902418    0.000000    0.183000
   294  Cl    c    11.785784    0.000000    0.000000    0.000000    1.485000
   295  Cl    c    -7.866911    0.000000    0.000000    0.000000    1.485000
   296  Li    c     1.959436    9.792318    0.000000    0.000000    1.000000
   297  Li    c     1.959436   -9.792318    0.000000    0.000000    1.000000
   298  Li    c     1.959436    0.000000    9.792318    0.000000    1.000000
   299  Li    c     1.959436    0.000000   -9.792318    0.000000    1.000000
   300  Li    c     9.788151    5.873374    0.000000    0.000000    1.000000
   301  Li    c     9.788151   -5.873374    0.000000    0.000000    1.000000
   302  Li    c     9.788151    0.000000    5.873374    0.000000    1.000000
   303  Li    c     9.788151    0.000000   -5.873374    0.000000    1.000000
   304  Li    c    -5.869278    5.873374    0.000000    0.000000    1.000000
   305  Li    c    -5.869278   -5.873374    0.000000    0.000000    1.000000
   306  Li    c    -5.869278    0.000000    5.873374    0.000000    1.000000
   307  Li    c    -5.869278    0.000000   -5.873374    0.000000    1.000000
   308  Cl    c     7.852801    0.000000    7.858267    0.000000    1.485000
   309  Cl    c     7.852801    0.000000   -7.858267    0.000000    1.485000
   310  Cl    c     7.852801    7.858267    0.000000    0.000000    1.485000
   311  Cl    c     7.852801   -7.858267    0.000000    0.000000    1.485000
   312  Cl    c    -3.933928    0.000000    7.858267    0.000000    1.485000
   313  Cl    c    -3.933928    0.000000   -7.858267    0.000000    1.485000
   314  Cl    c    -3.933928    7.858267    0.000000    0.000000    1.485000
   315  Cl    c    -3.933928   -7.858267    0.000000    0.000000    1.485000
   316  Li    c     1.959436    5.879455    7.836398    0.000000    1.000000
   317  Li    c     1.959436    5.879455   -7.836398    0.000000    1.000000
   318  Li    c     1.959436   -5.879455    7.836398    0.000000    1.000000
   319  Li    c     1.959436   -5.879455   -7.836398    0.000000    1.000000
   320  Li    c     1.959436    7.836398    5.879455    0.000000    1.000000
   321  Li    c     1.959436    7.836398   -5.879455    0.000000    1.000000
   322  Li    c     1.959436   -7.836398    5.879455    0.000000    1.000000
   323  Li    c     1.959436   -7.836398   -5.879455    0.000000    1.000000
   324  O     c     1.959436   -1.961808    9.808226    0.000000    0.183000
   325  O     c     1.959436   -1.961808   -9.808226    0.000000    0.183000
   326  O     c     1.959436    1.961808    9.808226    0.000000    0.183000
   327  O     c     1.959436    1.961808   -9.808226    0.000000    0.183000
   328  O     c     1.959436    9.808226   -1.961808    0.000000    0.183000
   329  O     c     1.959436    9.808226    1.961808    0.000000    0.183000
   330  O     c     1.959436   -9.808226   -1.961808    0.000000    0.183000
   331  O     c     1.959436   -9.808226    1.961808    0.000000    0.183000
   332  O     c     9.808048   -1.962376    5.889550    0.000000    0.183000
   333  O     c     9.808048   -1.962376   -5.889550    0.000000    0.183000
   334  O     c     9.808048    1.962376    5.889550    0.000000    0.183000
   335  O     c     9.808048    1.962376   -5.889550    0.000000    0.183000
   336  O     c     9.808048    5.889550   -1.962376    0.000000    0.183000
   337  O     c     9.808048    5.889550    1.962376    0.000000    0.183000
   338  O     c     9.808048   -5.889550   -1.962376    0.000000    0.183000
   339  O     c     9.808048   -5.889550    1.962376    0.000000    0.183000
   340  O     c    -5.889175   -1.962376    5.889550    0.000000    0.183000
   341  O     c    -5.889175   -1.962376   -5.889550    0.000000    0.183000
   342  O     c    -5.889175    1.962376    5.889550    0.000000    0.183000
   343  O     c    -5.889175    1.962376   -5.889550    0.000000    0.183000
   344  O     c    -5.889175    5.889550   -1.962376    0.000000    0.183000
   345  O     c    -5.889175    5.889550    1.962376    0.000000    0.183000
   346  O     c    -5.889175   -5.889550   -1.962376    0.000000    0.183000
   347  O     c    -5.889175   -5.889550    1.962376    0.000000    0.183000
   348  Li    c     3.920457   -1.958938    9.790529    0.000000    1.000000
   349  Li    c     3.920457   -1.958938   -9.790529    0.000000    1.000000
   350  Li    c     3.920457    1.958938    9.790529    0.000000    1.000000
   351  Li    c     3.920457    1.958938   -9.790529    0.000000    1.000000
   352  Li    c    -0.001584   -1.958938    9.790529    0.000000    1.000000
   353  Li    c    -0.001584   -1.958938   -9.790529    0.000000    1.000000
   354  Li    c    -0.001584    1.958938    9.790529    0.000000    1.000000
   355  Li    c    -0.001584    1.958938   -9.790529    0.000000    1.000000
   356  Li    c     3.920457    9.790529   -1.958938    0.000000    1.000000
   357  Li    c     3.920457    9.790529    1.958938    0.000000    1.000000
   358  Li    c     3.920457   -9.790529   -1.958938    0.000000    1.000000
   359  Li    c     3.920457   -9.790529    1.958938    0.000000    1.000000
   360  Li    c    -0.001584    9.790529   -1.958938    0.000000    1.000000
   361  Li    c    -0.001584    9.790529    1.958938    0.000000    1.000000
   362  Li    c    -0.001584   -9.790529   -1.958938    0.000000    1.000000
   363  Li    c    -0.001584   -9.790529    1.958938    0.000000    1.000000
   364  Li    c    11.749207   -1.955793   -1.955793    0.000000    1.000000
   365  Li    c    11.749207   -1.955793    1.955793    0.000000    1.000000
   366  Li    c    11.749207    1.955793   -1.955793    0.000000    1.000000
   367  Li    c    11.749207    1.955793    1.955793    0.000000    1.000000
   368  Li    c    -7.830334   -1.955793   -1.955793    0.000000    1.000000
   369  Li    c    -7.830334   -1.955793    1.955793    0.000000    1.000000
   370  Li    c    -7.830334    1.955793   -1.955793    0.000000    1.000000
   371  Li    c    -7.830334    1.955793    1.955793    0.000000    1.000000
   372  Li    c     7.841691    5.879387    5.879387    0.000000    1.000000
   373  Li    c     7.841691    5.879387   -5.879387    0.000000    1.000000
   374  Li    c     7.841691   -5.879387    5.879387    0.000000    1.000000
   375  Li    c     7.841691   -5.879387   -5.879387    0.000000    1.000000
   376  Li    c    -3.922818    5.879387    5.879387    0.000000    1.000000
   377  Li    c    -3.922818    5.879387   -5.879387    0.000000    1.000000
   378  Li    c    -3.922818   -5.879387    5.879387    0.000000    1.000000
   379  Li    c    -3.922818   -5.879387   -5.879387    0.000000    1.000000
   380  Cl    c    11.774593    0.000000    3.927766    0.000000    1.485000
   381  Cl    c    11.774593    0.000000   -3.927766    0.000000    1.485000
   382  Cl    c    11.774593    3.927766    0.000000    0.000000    1.485000
   383  Cl    c    11.774593   -3.927766    0.000000    0.000000    1.485000
   384  Cl    c    -7.855720    0.000000    3.927766    0.000000    1.485000
[...]
    113 y          9.797182      9.795139    -0.002043    Cartesian   -0.02
    113 z          9.797182      9.795139    -0.002043    Cartesian   -0.02
    114 x         -9.797182     -9.794867     0.002316    Cartesian   -0.02
    114 y          9.797182      9.794584    -0.002598    Cartesian   -0.03
    114 z          0.000000      0.000000     0.000000    Cartesian    0.00
    115 x         -9.797182     -9.790422     0.006760    Cartesian   -0.07
    115 y          5.878309      5.875610    -0.002700    Cartesian   -0.05
    115 z          7.837746      7.835172    -0.002574    Cartesian   -0.03
    116 x         11.756619     11.763028     0.006409    Cartesian    0.05
    116 y          0.000000      0.000000     0.000000    Cartesian    0.00
    116 z         11.756619     11.767284     0.010665    Cartesian    0.09
    117 x          1.959436      1.959436     0.000000    Cartesian    0.00
    117 y          9.797182      9.792654    -0.004528    Cartesian   -0.05
    117 z         11.756619     11.751670    -0.004949    Cartesian   -0.04
    118 x          9.797182      9.794081    -0.003102    Cartesian   -0.03
    118 y          5.878309      5.875219    -0.003090    Cartesian   -0.05
    118 z         11.756619     11.754162    -0.002457    Cartesian   -0.02
    119 x          7.837746      7.843139     0.005393    Cartesian    0.07
    119 y          7.837746      7.844729     0.006983    Cartesian    0.09
    119 z         11.756619     11.767467     0.010848    Cartesian    0.09
    120 x         -9.797182     -9.802454    -0.005271    Cartesian    0.05
    120 y          9.797182      9.801686     0.004504    Cartesian    0.05
    120 z         -1.959436     -1.959590    -0.000153    Cartesian    0.01
    121 x          5.878309      5.881347     0.003038    Cartesian    0.05
    121 y         13.716055     13.723616     0.007560    Cartesian    0.06
    121 z          5.878309      5.881782     0.003473    Cartesian    0.06
    122 x         -9.797182     -9.788235     0.008947    Cartesian   -0.09
    122 y          9.797182      9.790343    -0.006839    Cartesian   -0.07
    122 z          3.918873      3.917309    -0.001564    Cartesian   -0.04
    123 x        -11.756619    -11.770756    -0.014137    Cartesian    0.12
    123 y          0.000000      0.000000     0.000000    Cartesian    0.00
    123 z          7.837746      7.845165     0.007419    Cartesian    0.09
    124 x         11.756619     11.765485     0.008866    Cartesian    0.08
    124 y         11.756619     11.768494     0.011875    Cartesian    0.10
    124 z          3.918873      3.922276     0.003403    Cartesian    0.09
    125 x          9.797182      9.794569    -0.002613    Cartesian   -0.03
    125 y         13.716055     13.710740    -0.005315    Cartesian   -0.04
    125 z          0.000000      0.000000     0.000000    Cartesian    0.00
    126 x          3.918873      3.920743     0.001870    Cartesian    0.05
    126 y          0.000000      0.000000     0.000000    Cartesian    0.00
    126 z         15.675492     15.690932     0.015440    Cartesian    0.10
    127 x          1.959436      1.959436     0.000000    Cartesian    0.00
    127 y         -1.959436     -1.954500     0.004937    Cartesian   -0.25
    127 z         15.675492     15.668617    -0.006875    Cartesian   -0.04
    128 x          1.959436      1.959436     0.000000    Cartesian    0.00
    128 y         13.716055     13.705054    -0.011001    Cartesian   -0.08
    128 z          7.837746      7.834006    -0.003740    Cartesian   -0.05
    129 x          5.878309      5.876217    -0.002093    Cartesian   -0.04
    129 y          9.797182      9.790794    -0.006388    Cartesian   -0.07
    129 z         11.756619     11.751667    -0.004952    Cartesian   -0.04
    130 x         17.634928     17.627860    -0.007069    Cartesian   -0.04
    130 y         -1.959436     -1.958606     0.000831    Cartesian   -0.04
    130 z          0.000000      0.000000     0.000000    Cartesian    0.00
    131 x          9.797182      9.801797     0.004614    Cartesian    0.05
    131 y         -1.959436     -1.961436    -0.001999    Cartesian    0.10
    131 z         13.716055     13.724338     0.008282    Cartesian    0.06
    132 x          9.797182      9.803592     0.006410    Cartesian    0.07
    132 y          9.797182      9.804949     0.007766    Cartesian    0.08
    132 z          9.797182      9.804949     0.007766    Cartesian    0.08
    133 x         17.634928     17.643164     0.008236    Cartesian    0.05
    133 y         -1.959436     -1.961593    -0.002157    Cartesian    0.11
    133 z         -1.959436     -1.961593    -0.002157    Cartesian    0.11
    134 x          1.959436      1.959436     0.000000    Cartesian    0.00
    134 y          0.000000      0.000000     0.000000    Cartesian    0.00
    134 z          0.000000      0.000000     0.000000    Cartesian    0.00
    135 x          3.918873      4.683864     0.764991    Cartesian   19.52
    135 y          0.000000      0.000000     0.000000    Cartesian    0.00
    135 z          0.000000      0.000000     0.000000    Cartesian    0.00
    136 x          1.959436      1.959436     0.000000    Cartesian    0.00
    136 y         -1.959436     -2.132164    -0.172727    Cartesian    8.82
    136 z         -1.959436     -2.132164    -0.172727    Cartesian    8.82
    137 x          3.918873      3.967699     0.048826    Cartesian    1.25
    137 y          0.000000      0.000000     0.000000    Cartesian    0.00
    137 z          3.918873      3.986388     0.067515    Cartesian    1.72
    138 x          5.878309      5.924883     0.046574    Cartesian    0.79
    138 y         -1.959436     -2.029141    -0.069705    Cartesian    3.56
    138 z         -1.959436     -2.029141    -0.069705    Cartesian    3.56
    139 x          3.918873      3.974580     0.055707    Cartesian    1.42
    139 y          3.918873      4.016443     0.097570    Cartesian    2.49
    139 z          3.918873      4.016443     0.097570    Cartesian    2.49
    140 x          7.837746      8.032744     0.194998    Cartesian    2.49
    140 y          0.000000      0.000000     0.000000    Cartesian    0.00
    140 z          0.000000      0.000000     0.000000    Cartesian    0.00
    141 x          1.959436      1.959436     0.000000    Cartesian    0.00
    141 y         -1.959436     -1.966533    -0.007097    Cartesian    0.36
    141 z          5.878309      5.913611     0.035301    Cartesian    0.60
    142 x          7.837746      7.881927     0.044181    Cartesian    0.56
    142 y          0.000000      0.000000     0.000000    Cartesian    0.00
    142 z          3.918873      3.950862     0.031989    Cartesian    0.82
    143 x          5.878309      5.889002     0.010692    Cartesian    0.18
    143 y         -1.959436     -1.967794    -0.008357    Cartesian    0.43
    143 z          5.878309      5.900289     0.021979    Cartesian    0.37
    144 x          3.918873      3.928047     0.009174    Cartesian    0.23
    144 y          0.000000      0.000000     0.000000    Cartesian    0.00
    144 z          7.837746      7.873366     0.035620    Cartesian    0.45
    145 x          7.837746      7.888185     0.050439    Cartesian    0.64
    145 y          3.918873      3.964105     0.045232    Cartesian    1.15
    145 z          3.918873      3.964105     0.045232    Cartesian    1.15
    146 x          9.797182      9.812983     0.015800    Cartesian    0.16
    146 y         -1.959436     -1.977656    -0.018219    Cartesian    0.93
    146 z         -1.959436     -1.977656    -0.018219    Cartesian    0.93
    147 x          1.959436      1.959436     0.000000    Cartesian    0.00
    147 y          5.878309      5.897663     0.019354    Cartesian    0.33
    147 z          5.878309      5.897663     0.019354    Cartesian    0.33
    148 x          3.918873      3.927209     0.008336    Cartesian    0.21
    148 y          3.918873      3.933953     0.015080    Cartesian    0.38
    148 z          7.837746      7.873020     0.035274    Cartesian    0.45
    149 x          5.878309      5.897304     0.018994    Cartesian    0.32
    149 y          5.878309      5.902445     0.024136    Cartesian    0.41
    149 z          5.878309      5.902445     0.024136    Cartesian    0.41
    150 x         11.756619     11.793251     0.036632    Cartesian    0.31
    150 y          0.000000      0.000000     0.000000    Cartesian    0.00
    150 z          0.000000      0.000000     0.000000    Cartesian    0.00
    151 x          7.837746      7.856389     0.018643    Cartesian    0.24
    151 y          0.000000      0.000000     0.000000    Cartesian    0.00
    151 z          7.837746      7.863402     0.025656    Cartesian    0.33
    152 x          1.959436      1.959436     0.000000    Cartesian    0.00
    152 y         -1.959436     -1.961811    -0.002374    Cartesian    0.12
    152 z          9.797182      9.808241     0.011059    Cartesian    0.11
    153 x          9.797182      9.808069     0.010886    Cartesian    0.11
    153 y         -1.959436     -1.962378    -0.002941    Cartesian    0.15
    153 z          5.878309      5.889561     0.011252    Cartesian    0.19
    154 x         11.756619     11.779607     0.022988    Cartesian    0.20
    154 y          0.000000      0.000000     0.000000    Cartesian    0.00
    154 z          3.918873      3.930288     0.011415    Cartesian    0.29
    155 x          7.837746      7.855159     0.017413    Cartesian    0.22
    155 y          3.918873      3.927730     0.008857    Cartesian    0.23
    155 z          7.837746      7.863094     0.025348    Cartesian    0.32
    156 x          5.878309      5.883839     0.005529    Cartesian    0.09
    156 y         -1.959436     -1.960799    -0.001362    Cartesian    0.07
    156 z          9.797182      9.806988     0.009806    Cartesian    0.10
    157 x         11.756619     11.781209     0.024590    Cartesian    0.21
    157 y          3.918873      3.931625     0.012752    Cartesian    0.33
    157 z          3.918873      3.931625     0.012752    Cartesian    0.33
    158 x          3.918873      3.923648     0.004775    Cartesian    0.12
    158 y          7.837746      7.857255     0.019509    Cartesian    0.25
    158 z          7.837746      7.857255     0.019509    Cartesian    0.25
    159 x          1.959436      1.959436     0.000000    Cartesian    0.00
    159 y          5.878309      5.883552     0.005243    Cartesian    0.09
    159 z          9.797182      9.805257     0.008075    Cartesian    0.08
    160 x          9.797182      9.809850     0.012667    Cartesian    0.13
    160 y          5.878309      5.890354     0.012044    Cartesian    0.20
    160 z          5.878309      5.890354     0.012044    Cartesian    0.20
    161 x          3.918873      3.922669     0.003796    Cartesian    0.10
    161 y          0.000000      0.000000     0.000000    Cartesian    0.00
    161 z         11.756619     11.773559     0.016940    Cartesian    0.14
    162 x         -9.797182     -9.803158    -0.005976    Cartesian    0.06
    162 y         -1.959436     -1.961410    -0.001973    Cartesian    0.10
    162 z         -1.959436     -1.961410    -0.001973    Cartesian    0.10
    163 x          5.878309      5.884293     0.005984    Cartesian    0.10
    163 y          5.878309      5.884601     0.006292    Cartesian    0.11
    163 z          9.797182      9.806070     0.008887    Cartesian    0.09
    164 x          3.918873      3.922796     0.003923    Cartesian    0.10
    164 y         11.756619     11.772596     0.015977    Cartesian    0.14
    164 z          3.918873      3.925001     0.006128    Cartesian    0.16
    165 x         11.756619     11.772750     0.016131    Cartesian    0.14
    165 y          0.000000      0.000000     0.000000    Cartesian    0.00
    165 z          7.837746      7.853498     0.015752    Cartesian    0.20
    166 x          7.837746      7.854466     0.016720    Cartesian    0.21
    166 y          7.837746      7.858545     0.020799    Cartesian    0.27
    166 z          7.837746      7.858545     0.020799    Cartesian    0.27
    167 x          9.797182      9.803689     0.006506    Cartesian    0.07
    167 y         -1.959436     -1.960726    -0.001290    Cartesian    0.07
    167 z          9.797182      9.805938     0.008756    Cartesian    0.09
    168 x         11.756619     11.769557     0.012938    Cartesian    0.11
    168 y          7.837746      7.851160     0.013414    Cartesian    0.17
    168 z          3.918873      3.921808     0.002935    Cartesian    0.07
    169 x          7.837746      7.848429     0.010683    Cartesian    0.14
    169 y          0.000000      0.000000     0.000000    Cartesian    0.00
    169 z         11.756619     11.773563     0.016944    Cartesian    0.14
    170 x         -9.797182     -9.801907    -0.004725    Cartesian    0.05
    170 y         -1.959436     -1.958499     0.000938    Cartesian   -0.05
    170 z          5.878309      5.881715     0.003405    Cartesian    0.06
    171 x        -11.756619    -11.775491    -0.018872    Cartesian    0.16
    171 y          0.000000      0.000000     0.000000    Cartesian    0.00
    171 z          0.000000      0.000000     0.000000    Cartesian    0.00
    172 x          7.837746      7.843876     0.006130    Cartesian    0.08
    172 y         11.756619     11.770401     0.013782    Cartesian    0.12
    172 z          3.918873      3.921106     0.002233    Cartesian    0.06
    173 x          1.959436      1.959436     0.000000    Cartesian    0.00
    173 y         -1.959436     -1.957540     0.001896    Cartesian   -0.10
    173 z         13.716055     13.719032     0.002976    Cartesian    0.02
    174 x          1.959436      1.959436     0.000000    Cartesian    0.00
    174 y          9.797182      9.799650     0.002467    Cartesian    0.03
    174 z          9.797182      9.799650     0.002467    Cartesian    0.03
    175 x          9.797182      9.801453     0.004270    Cartesian    0.04
    175 y          5.878309      5.880747     0.002437    Cartesian    0.04
    175 z          9.797182      9.802837     0.005654    Cartesian    0.06
    176 x        -11.756619    -11.769925    -0.013306    Cartesian    0.11
    176 y          0.000000      0.000000     0.000000    Cartesian    0.00
    176 z          3.918873      3.919390     0.000517    Cartesian    0.01
    177 x          3.918873      3.921106     0.002233    Cartesian    0.06
    177 y          7.837746      7.843258     0.005512    Cartesian    0.07
    177 z         11.756619     11.768048     0.011429    Cartesian    0.10
    178 x         -9.797182     -9.801153    -0.003971    Cartesian    0.04
    178 y          5.878309      5.881072     0.002763    Cartesian    0.05
    178 z          5.878309      5.881072     0.002763    Cartesian    0.05
    179 x          5.878309      5.880634     0.002325    Cartesian    0.04
    179 y          9.797182      9.799831     0.002648    Cartesian    0.03
    179 z          9.797182      9.799831     0.002648    Cartesian    0.03
    180 x          5.878309      5.879430     0.001121    Cartesian    0.02
    180 y         13.716055     13.720706     0.004650    Cartesian    0.03
    180 z         -1.959436     -1.959559    -0.000122    Cartesian    0.01
    181 x        -11.756619    -11.770113    -0.013494    Cartesian    0.11
    181 y          3.918873      3.922105     0.003232    Cartesian    0.08
    181 z          3.918873      3.922105     0.003232    Cartesian    0.08
    182 x         11.756619     11.766492     0.009873    Cartesian    0.08
    182 y          7.837746      7.848659     0.010913    Cartesian    0.14
    182 z          7.837746      7.848659     0.010913    Cartesian    0.14
    183 x          1.959436      1.959436     0.000000    Cartesian    0.00
    183 y          5.878309      5.879587     0.001277    Cartesian    0.02
    183 z         13.716055     13.720015     0.003960    Cartesian    0.03
    184 x         11.756619     11.764292     0.007673    Cartesian    0.07
    184 y          0.000000      0.000000     0.000000    Cartesian    0.00
    184 z         11.756619     11.769403     0.012784    Cartesian    0.11
    185 x          7.837746      7.843996     0.006250    Cartesian    0.08
    185 y          7.837746      7.846177     0.008431    Cartesian    0.11
    185 z         11.756619     11.769636     0.013017    Cartesian    0.11
    186 x         -9.797182     -9.802461    -0.005278    Cartesian    0.05
    186 y          9.797182      9.801692     0.004510    Cartesian    0.05
    186 z         -1.959436     -1.959591    -0.000154    Cartesian    0.01
    187 x          5.878309      5.881352     0.003043    Cartesian    0.05
    187 y         13.716055     13.723627     0.007572    Cartesian    0.06
    187 z          5.878309      5.881788     0.003479    Cartesian    0.06
    188 x        -11.756619    -11.773645    -0.017026    Cartesian    0.14
    188 y          0.000000      0.000000     0.000000    Cartesian    0.00
    188 z          7.837746      7.847068     0.009322    Cartesian    0.12
    189 x         11.756619     11.767284     0.010665    Cartesian    0.09
    189 y         11.756619     11.771017     0.014398    Cartesian    0.12
    189 z          3.918873      3.922924     0.004051    Cartesian    0.10
    190 x          3.918873      3.921065     0.002192    Cartesian    0.06
    190 y          0.000000      0.000000     0.000000    Cartesian    0.00
    190 z         15.675492     15.694489     0.018997    Cartesian    0.12
    191 x          9.797182      9.801805     0.004623    Cartesian    0.05
    191 y         -1.959436     -1.961439    -0.002003    Cartesian    0.10
    191 z         13.716055     13.724350     0.008295    Cartesian    0.06
    192 x          9.797182      9.803602     0.006419    Cartesian    0.07
    192 y          9.797182      9.804961     0.007778    Cartesian    0.08
    192 z          9.797182      9.804961     0.007778    Cartesian    0.08
    193 x         17.634928     17.643179     0.008250    Cartesian    0.05
    193 y         -1.959436     -1.961598    -0.002161    Cartesian    0.11
    193 z         -1.959436     -1.961598    -0.002161    Cartesian    0.11
--------------------------------------------------------------------------------


  Time to end of optimisation  =       63.6522 seconds


  Peak dynamic memory used =     692.96 MB 


  Timing analysis for GULP :

--------------------------------------------------------------------------------
  Task / Subroutine                                          Time (Seconds)
--------------------------------------------------------------------------------
  Calculation of reciprocal space energy and derivatives          0.0005
  Calculation of reciprocal space energy using symmetry           0.0003
  Calculation of real space energy and derivatives                0.0041
  Calculation of real space energy using symmetry                 0.0029
  Calculation for region 1 energy and derivatives (2-b)          43.1638
  Calculation for region 2a energy                               16.9968
  Calculation for region 2b energy                                0.0003
  Calculation and manipulation of Hessian matrix                  2.5432
  Calculation of matrix inversion                                 0.1564
  Symmetry generation of equivalent positions                     0.0044
--------------------------------------------------------------------------------
  Total CPU time                                                 63.6547
--------------------------------------------------------------------------------


  Dump file written as Li3OCl.grs


  Job Finished at 12:31.16  1st December   2020                               

