********************************************************************************
*                       GENERAL UTILITY LATTICE PROGRAM                        *
*                                 Julian Gale                                  *
*                       Curtin Institute for Computation                       *
*                    School of Molecular and Life Sciences                     *
*                    Curtin University, Western Australia                      *
********************************************************************************
* Version = 5.2.0 * Last modified =  10th September 2020                       *
********************************************************************************
*  optimise     - perform optimisation run                                     *
*  conp         - constant pressure calculation                                *
*  property     - calculate properties for final geometry                      *
*  defect       - perform defect calculation after bulk run                    *
*  compare      - compare initial and final structures                         *
********************************************************************************

  Job Started  at 12:30.11 28th October    2020                               

  Number of CPUs =     1


  Total number of configurations input =      1

********************************************************************************
*  Input for Configuration =   1                                               *
********************************************************************************

  Formula = ClOLi3                                                      

  Number of irreducible atoms/shells =       5


  Total number atoms/shells =       7

  Dimensionality = 3               :  Bulk   


  Symmetry :

  Crystal family                   :  Cubic       
  Crystal class  (Groth - 1921)    :  Cubic Hexakisoctahedral              

  Space group (centrosymmetric)    :  P M 3 M         

  Patterson group                  :  P m -3 m 

  Cartesian lattice vectors (Angstroms) :

        3.918873    0.000000    0.000000
        0.000000    3.918873    0.000000
        0.000000    0.000000    3.918873

  Cell parameters (Angstroms/Degrees):

  a =       3.9189    alpha =  90.0000
  b =       3.9189    beta  =  90.0000
  c =       3.9189    gamma =  90.0000

  Initial cell volume =          60.184349 Angs**3

  Temperature of configuration =   0.00     K 

  Pressure of configuration =         0.000 GPa 

  Fractional coordinates of asymmetric unit :

--------------------------------------------------------------------------------
   No.  Atomic       x           y          z         Charge      Occupancy
        Label      (Frac)      (Frac)     (Frac)        (e)         (Frac)  
--------------------------------------------------------------------------------
      1 Cl    c    0.500000    0.500000    0.500000     1.48500    1.000000    
      2 O     c    0.000000    0.000000    0.000000     0.18300    1.000000    
      3 Li    c    0.500000    0.000000    0.000000     1.00000    1.000000    
      4 Cl    s    0.500000    0.500000    0.500000    -2.48500    1.000000    
      5 O     s    0.000000    0.000000    0.000000    -2.18300    1.000000    
--------------------------------------------------------------------------------


  Constraints : 

--------------------------------------------------------------------------------
  Constraint no.      Unconstrained     Constrained    Coefficient    Offset
                         Variable         Variable
--------------------------------------------------------------------------------
           1              Strain 1        Strain 2       1.00000      0.0000
           2              Strain 1        Strain 3       1.00000      0.0000
--------------------------------------------------------------------------------


********************************************************************************
*  General input information                                                   *
********************************************************************************

  Species output for all configurations : 

--------------------------------------------------------------------------------
  Species    Type    Atomic    Atomic    Charge       Radii (Angs)     Library
                     Number     Mass       (e)     Cova   Ionic  VDW   Symbol
--------------------------------------------------------------------------------
    Li       Core        3       6.94   1.000000   0.680  0.000  1.800          
    O        Core        8      16.00   0.183000   0.730  0.000  1.360          
    O        Shell       8       0.00  -2.183000   0.730  0.000  1.360          
    Cl       Core       17      35.45   1.485000   0.990  0.000  1.650          
    Cl       Shell      17       0.00  -2.485000   0.990  0.000  1.650          
--------------------------------------------------------------------------------


  Lattice summation method               =    Ewald          (3-D)
                                         =    Parry          (2-D)
                                         =    Saunders et al (1-D)
  Accuracy factor for lattice sums       =   12.000


  Analytic derivatives to be used

  Time limit = Infinity

  Maximum range for interatomic potentials =    100000.000000 Angstroms

  General interatomic potentials :

--------------------------------------------------------------------------------
Atom  Types   Potential      Parameter       Value         Units   Cutoffs(Ang)
  1     2                                                            Min /  Max 
--------------------------------------------------------------------------------
O    c O    s Spring (c-s)  Spring k 2       593.72000    eV*Ang^-2 0.000  0.800
                            Spring k 4       0.0000000    eV*Ang^-4 
--------------------------------------------------------------------------------
Cl   c Cl   s Spring (c-s)  Spring k 2       29.380000    eV*Ang^-2 0.000  0.800
                            Spring k 4       0.0000000    eV*Ang^-4 
--------------------------------------------------------------------------------
Li   c Li   c Buckingham    Buckingham A     360.53000    eV        0.000 12.000
                            Buckingham rho  0.16100000    Ang       
                            Buckingham C     0.0000000    eV*Ang^6  
--------------------------------------------------------------------------------
Li   c O    s Buckingham    Buckingham A     292.30000    eV        0.000 12.000
                            Buckingham rho  0.34720000    Ang       
                            Buckingham C     0.0000000    eV*Ang^6  
--------------------------------------------------------------------------------
Li   c Cl   s Buckingham    Buckingham A     421.04000    eV        0.000 12.000
                            Buckingham rho  0.33400000    Ang       
                            Buckingham C     0.0000000    eV*Ang^6  
--------------------------------------------------------------------------------
O    s O    s Buckingham    Buckingham A     22764.300    eV        0.000 12.000
                            Buckingham rho  0.14900000    Ang       
                            Buckingham C     13.190000    eV*Ang^6  
--------------------------------------------------------------------------------
O    s Cl   s Buckingham    Buckingham A     8286.9100    eV        0.000 12.000
                            Buckingham rho  0.25900000    Ang       
                            Buckingham C     62.200000    eV*Ang^6  
--------------------------------------------------------------------------------
Cl   s Cl   s Buckingham    Buckingham A     1227.2000    eV        0.000 12.000
                            Buckingham rho  0.32100000    Ang       
                            Buckingham C     14.530000    eV*Ang^6  
--------------------------------------------------------------------------------

********************************************************************************
*  Output for configuration   1                                                *
********************************************************************************


  Components of energy : 

--------------------------------------------------------------------------------
  Interatomic potentials     =           7.26836263 eV    
  Monopole - monopole (real) =         -11.53475722 eV    
  Monopole - monopole (recip)=         -33.94580548 eV    
  Monopole - monopole (total)=         -45.48056271 eV    
--------------------------------------------------------------------------------
  Total lattice energy       =         -38.21220008 eV    
--------------------------------------------------------------------------------
  Total lattice energy       =           -3686.8932 kJ/(mole unit cells)
--------------------------------------------------------------------------------


  Number of variables =        1

  Maximum number of calculations  =          1000
  Maximum Hessian update interval =            10
  Maximum step size               =   1.000000000
  Maximum parameter tolerance     =   0.000010000
  Maximum function  tolerance     =   0.000010000
  Maximum gradient  tolerance     =   0.001000000
  Maximum gradient  component     =   0.010000000

  Symmetry constrained optimisation

  Symmetry used for second derivatives

  Cell parameters to be optimised using strains

  Newton-Raphson optimiser to be used

  BFGS hessian update to be used

  Lower half triangular hessian to be used

  Start of bulk optimisation :

  Cycle:      0 Energy:       -38.212200  Gnorm:      0.095699  CPU:    0.013
  ** Hessian calculated **
  Cycle:      1 Energy:       -38.212222  Gnorm:      0.000105  CPU:    0.015


  **** Optimisation achieved ****


  Final energy =     -38.21222207 eV
  Final Gnorm  =       0.00000001

  Components of energy : 

--------------------------------------------------------------------------------
  Interatomic potentials     =           7.24743137 eV    
  Monopole - monopole (real) =         -11.52945422 eV    
  Monopole - monopole (recip)=         -33.93019921 eV    
  Monopole - monopole (total)=         -45.45965344 eV    
--------------------------------------------------------------------------------
  Total lattice energy       =         -38.21222207 eV    
--------------------------------------------------------------------------------
  Total lattice energy       =           -3686.8953 kJ/(mole unit cells)
--------------------------------------------------------------------------------

  Final asymmetric unit coordinates :

--------------------------------------------------------------------------------
   No.  Atomic        x           y           z         Radius
        Label       (Frac)      (Frac)      (Frac)       (Angs) 
--------------------------------------------------------------------------------
     1  Cl    c     0.500000    0.500000    0.500000    0.000000
     2  O     c     0.000000    0.000000    0.000000    0.000000
     3  Li    c     0.500000    0.000000    0.000000    0.000000
     4  Cl    s     0.500000    0.500000    0.500000    0.000000
     5  O     s     0.000000    0.000000    0.000000    0.000000
--------------------------------------------------------------------------------

  Final Cartesian lattice vectors (Angstroms) :

        3.920675    0.000000    0.000000
        0.000000    3.920675    0.000000
        0.000000    0.000000    3.920675


  Final cell parameters and derivatives :

--------------------------------------------------------------------------------
       a            3.920675 Angstrom     dE/de1(xx)     0.000000 eV/strain
       b            3.920675 Angstrom     dE/de2(yy)     0.000000 eV/strain
       c            3.920675 Angstrom     dE/de3(zz)     0.000000 eV/strain
       alpha       90.000000 Degrees      dE/de4(yz)     0.000000 eV/strain
       beta        90.000000 Degrees      dE/de5(xz)     0.000000 eV/strain
       gamma       90.000000 Degrees      dE/de6(xy)     0.000000 eV/strain
--------------------------------------------------------------------------------

  Primitive cell volume =            60.267433 Angs**3

  Density of cell =      1.991276 g/cm**3

  Non-primitive cell volume =            60.267433 Angs**3


  Final internal derivatives :

--------------------------------------------------------------------------------
   No.  Atomic          a             b             c           Radius
        Label          (eV)          (eV)          (eV)        (eV/Angs)
--------------------------------------------------------------------------------
      1 Cl    c       0.000000      0.000000      0.000000      0.000000
      2 O     c       0.000000      0.000000      0.000000      0.000000
      3 Li    c       0.000000      0.000000      0.000000      0.000000
      4 Cl    s       0.000000      0.000000      0.000000      0.000000
      5 O     s       0.000000      0.000000      0.000000      0.000000
--------------------------------------------------------------------------------
  Maximum abs         0.000000      0.000000      0.000000      0.000000
--------------------------------------------------------------------------------

  Comparison of initial and final structures : 

--------------------------------------------------------------------------------
  Parameter   Initial value   Final value   Difference    Units      Percent
--------------------------------------------------------------------------------
    Volume        60.184349     60.267433     0.083084    Angs**3      0.14
    a              3.918873      3.920675     0.001802    Angstroms    0.05
    b              3.918873      3.920675     0.001802    Angstroms    0.05
    c              3.918873      3.920675     0.001802    Angstroms    0.05
    alpha         90.000000     90.000000     0.000000    Degrees      0.00
    beta          90.000000     90.000000     0.000000    Degrees      0.00
    gamma         90.000000     90.000000     0.000000    Degrees      0.00
      1 x          0.500000      0.500000     0.000000    Fractional   0.00
      1 y          0.500000      0.500000     0.000000    Fractional   0.00
      1 z          0.500000      0.500000     0.000000    Fractional   0.00
      2 x          0.000000      0.000000     0.000000    Fractional   0.00
      2 y          0.000000      0.000000     0.000000    Fractional   0.00
      2 z          0.000000      0.000000     0.000000    Fractional   0.00
      3 x          0.500000      0.500000     0.000000    Fractional   0.00
      3 y          0.000000      0.000000     0.000000    Fractional   0.00
      3 z          0.000000      0.000000     0.000000    Fractional   0.00
      4 x          0.500000      0.500000     0.000000    Fractional   0.00
      4 y          0.500000      0.500000     0.000000    Fractional   0.00
      4 z          0.500000      0.500000     0.000000    Fractional   0.00
      5 x          0.000000      0.000000     0.000000    Fractional   0.00
      5 y          0.000000      0.000000     0.000000    Fractional   0.00
      5 z          0.000000      0.000000     0.000000    Fractional   0.00
--------------------------------------------------------------------------------


  Born effective charge tensors : 

-------------------------------------------------------------------------------
  Atom             x           y             z
-------------------------------------------------------------------------------
    1 Cl    x      -0.9489      0.0000     -0.0000
            y       0.0000     -0.9489     -0.0000
            z      -0.0000     -0.0000     -0.9489
-------------------------------------------------------------------------------
    2 O     x      -2.4688      0.0000     -0.0000
            y       0.0000     -2.4688     -0.0000
            z      -0.0000     -0.0000     -2.4688
-------------------------------------------------------------------------------
    3 Li    x       0.7919     -0.0000      0.0000
            y      -0.0000      1.3129      0.0000
            z      -0.0000      0.0000      1.3129
-------------------------------------------------------------------------------




  Elastic Constant Matrix: (Units=GPa)

-------------------------------------------------------------------------------
  Indices      1         2         3         4         5         6    
-------------------------------------------------------------------------------
       1     94.3368   44.9178   44.9178   -0.0000   -0.0000    0.0000
       2     44.9178   94.3368   44.9178    0.0000   -0.0000    0.0000
       3     44.9178   44.9178   94.3368    0.0000    0.0000   -0.0000
       4     -0.0000    0.0000    0.0000   44.9178   -0.0000    0.0000
       5     -0.0000   -0.0000    0.0000   -0.0000   44.9178    0.0000
       6      0.0000    0.0000   -0.0000    0.0000    0.0000   44.9178
-------------------------------------------------------------------------------


  Elastic Compliance Matrix: (Units=1/GPa)

-------------------------------------------------------------------------------
  Indices      1         2         3         4         5         6    
-------------------------------------------------------------------------------
       1    0.015300 -0.004935 -0.004935  0.000000  0.000000 -0.000000
       2   -0.004935  0.015300 -0.004935  0.000000 -0.000000 -0.000000
       3   -0.004935 -0.004935  0.015300 -0.000000 -0.000000  0.000000
       4    0.000000  0.000000 -0.000000  0.022263  0.000000 -0.000000
       5    0.000000 -0.000000 -0.000000  0.000000  0.022263 -0.000000
       6   -0.000000 -0.000000  0.000000 -0.000000 -0.000000  0.022263
-------------------------------------------------------------------------------

  Mechanical properties :

-------------------------------------------------------------------------------
  Convention :                    Reuss         Voigt         Hill
-------------------------------------------------------------------------------
  Bulk  Modulus (GPa)     =      61.39080      61.39080      61.39080
  Shear Modulus (GPa)     =      33.84570      36.83448      35.34009
-------------------------------------------------------------------------------
  Velocity S-wave (km/s)  =       4.12274       4.30092       4.21277
  Velocity P-wave (km/s)  =       7.31386       7.44942       7.38195
-------------------------------------------------------------------------------
  Compressibility (1/GPa) =    0.01628909
-------------------------------------------------------------------------------
  Stress axis :                     x             y             z
-------------------------------------------------------------------------------
  Youngs Moduli (GPa)     =      65.35947      65.35947      65.35947
-------------------------------------------------------------------------------
  Poissons Ratio (x)      =                     0.32256       0.32256
  Poissons Ratio (y)      =       0.32256                     0.32256
  Poissons Ratio (z)      =       0.32256       0.32256
-------------------------------------------------------------------------------


  Piezoelectric Strain Matrix: (Units=C/m**2)

-------------------------------------------------------------------------------
  Indices      1         2         3         4         5         6    
-------------------------------------------------------------------------------
       x     0.00000  -0.00000  -0.00000   0.00000   0.00000  -0.00000
       y    -0.00000   0.00000   0.00000  -0.00000   0.00000  -0.00000
       z    -0.00000   0.00000   0.00000   0.00000  -0.00000   0.00000
-------------------------------------------------------------------------------


  Piezoelectric Stress Matrix: (Units=10**-11 C/N)

-------------------------------------------------------------------------------
  Indices      1         2         3         4         5         6    
-------------------------------------------------------------------------------
       x     0.00000  -0.00000  -0.00000   0.00000   0.00000  -0.00000
       y    -0.00000   0.00000   0.00000  -0.00000   0.00000  -0.00000
       z    -0.00000  -0.00000   0.00000   0.00000  -0.00000   0.00000
-------------------------------------------------------------------------------


  Static dielectric constant tensor : 

-------------------------------------------------------------------------------
              x         y         z
-------------------------------------------------------------------------------
       x    12.11703  -0.00000   0.00000
       y    -0.00000  12.11703   0.00000
       z     0.00000   0.00000  12.11703
--------------------------------------------------------------------------------

  High frequency dielectric constant tensor : 

-------------------------------------------------------------------------------
              x         y         z
-------------------------------------------------------------------------------
       x     1.74104  -0.00000   0.00000
       y    -0.00000   1.74104   0.00000
       z     0.00000   0.00000   1.74104
-------------------------------------------------------------------------------

  Static refractive indices : 

-------------------------------------------------------------------------------
    1 =    3.48095      2 =    3.48095      3 =    3.48095
-------------------------------------------------------------------------------

  High frequency refractive indices : 

-------------------------------------------------------------------------------
    1 =    1.31948      2 =    1.31948      3 =    1.31948
-------------------------------------------------------------------------------


  Time to end of optimisation =       0.0230 seconds

********************************************************************************
*  Defect calculation for configuration   1 :                                  *
********************************************************************************

  Total number of defects =      3

  Total charge on defect  =   2.00

  Defect centre is at   0.0000   0.0000   0.0000  Angs

  Region 1 radius =  20.0000      Number of ions =   3938

  Number of symmetry inequivalent region 1 ions  =   1145

  Region 2 radius =  24.0000      Number of ions =   2810

  Number of symmetry inequivalent region 2a ions =    770

  Region 2a mode = 4 : screened electrostatics due to region 1 
                       neglect correction to region 1 forces from 2a
                       region 2a displacements based on defects only

  Region 2a ions will only interact with defects in region 1

  Vacancies:

--------------------------------------------------------------------------------
    Specification type     Symbol/Number         x          y          z
--------------------------------------------------------------------------------
    Cartesian                                0.000000   0.000000   0.000000
    Cartesian                                3.918873   3.918873   0.000000
--------------------------------------------------------------------------------

  Interstitials:

--------------------------------------------------------------------------------
    Specification type     Symbol/Number         x          y          z
--------------------------------------------------------------------------------
    Atom/Cartesian          O                0.000000   0.000000   0.000000
--------------------------------------------------------------------------------


  Symmetry reduced region 1 (Relative to defect centre) :

--------------------------------------------------------------------------------
   No.   Atomic       x            y             z       Radius  Multiplicity   
         Label      (Angs)       (Angs)        (Angs)    (Angs)     
--------------------------------------------------------------------------------
     1  O     c      0.0000       0.0000       0.0000    0.0000     1          
     2  Li    c     -1.9603 *     0.0000 *     0.0000    0.0000     2          
     3  Li    c      1.9603 *     0.0000 *     0.0000    0.0000     2          
     4  Li    c      0.0000 *     0.0000      -1.9603 *  0.0000     2          
     5  Cl    c     -1.9603 *    -1.9603      -1.9603 *  0.0000     2          
     6  Cl    c     -1.9603 *     1.9603 *    -1.9603 *  0.0000     4          
     7  Cl    c      1.9603 *     1.9603      -1.9603 *  0.0000     2          
     8  O     c      0.0000 *     0.0000       3.9207 *  0.0000     2          
     9  O     c      0.0000 *     3.9207 *     0.0000    0.0000     2          
    10  O     c      0.0000 *    -3.9207 *     0.0000    0.0000     2          
    11  Li    c     -1.9603 *     0.0000 *     3.9207 *  0.0000     4          
    12  Li    c     -1.9603 *     3.9207 *     0.0000    0.0000     2          
    13  Li    c     -1.9603 *    -3.9207 *     0.0000    0.0000     2          
    14  Li    c      1.9603 *     0.0000 *     3.9207 *  0.0000     4          
    15  Li    c      1.9603 *     3.9207 *     0.0000    0.0000     2          
    16  Li    c      1.9603 *    -3.9207 *     0.0000    0.0000     2          
    17  Li    c      0.0000 *     3.9207 *    -1.9603 *  0.0000     4          
    18  Li    c      0.0000 *    -3.9207 *    -1.9603 *  0.0000     4          
    19  O     c      0.0000 *     3.9207 *     3.9207 *  0.0000     4          
    20  O     c      0.0000 *    -3.9207 *     3.9207 *  0.0000     4          
    21  O     c      3.9207 *    -3.9207 *     0.0000    0.0000     2          
    22  O     c     -3.9207 *    -3.9207       0.0000    0.0000     1          
    23  Li    c     -1.9603 *     3.9207 *     3.9207 *  0.0000     4          
    24  Li    c     -1.9603 *    -3.9207 *     3.9207 *  0.0000     4          
    25  Li    c      1.9603 *     3.9207 *     3.9207 *  0.0000     4          
    26  Li    c      1.9603 *    -3.9207 *     3.9207 *  0.0000     4          
    27  Li    c      5.8810 *     0.0000 *     0.0000    0.0000     2          
    28  Li    c     -5.8810 *     0.0000 *     0.0000    0.0000     2          
    29  Li    c      0.0000 *     0.0000       5.8810 *  0.0000     2          
    30  Li    c      3.9207 *     3.9207      -1.9603 *  0.0000     2          
    31  Li    c      3.9207 *    -3.9207 *    -1.9603 *  0.0000     4          
    32  Li    c     -3.9207 *    -3.9207      -1.9603 *  0.0000     2          
    33  Cl    c     -1.9603 *    -1.9603       5.8810 *  0.0000     2          
    34  Cl    c     -1.9603 *     1.9603 *     5.8810 *  0.0000     4          
    35  Cl    c     -1.9603 *     5.8810 *    -1.9603 *  0.0000     4          
    36  Cl    c     -1.9603 *    -5.8810 *    -1.9603 *  0.0000     4          
    37  Cl    c      1.9603 *     1.9603       5.8810 *  0.0000     2          
    38  Cl    c      1.9603 *     5.8810 *    -1.9603 *  0.0000     4          
    39  Cl    c      1.9603 *    -5.8810 *    -1.9603 *  0.0000     4          
    40  O     c      3.9207 *     3.9207       3.9207 *  0.0000     2          
    41  O     c      3.9207 *    -3.9207 *     3.9207 *  0.0000     4          
    42  O     c     -3.9207 *    -3.9207       3.9207 *  0.0000     2          
    43  Li    c      5.8810 *     0.0000 *     3.9207 *  0.0000     4          
    44  Li    c      5.8810 *     3.9207 *     0.0000    0.0000     2          
    45  Li    c      5.8810 *    -3.9207 *     0.0000    0.0000     2          
    46  Li    c     -5.8810 *     0.0000 *     3.9207 *  0.0000     4          
    47  Li    c     -5.8810 *     3.9207 *     0.0000    0.0000     2          
    48  Li    c     -5.8810 *    -3.9207 *     0.0000    0.0000     2          
    49  Li    c      0.0000 *     3.9207 *     5.8810 *  0.0000     4          
    50  Li    c      0.0000 *    -3.9207 *     5.8810 *  0.0000     4          
    51  O     c      0.0000 *     0.0000       7.8414 *  0.0000     2          
    52  O     c      0.0000 *     7.8414 *     0.0000    0.0000     2          
    53  O     c      0.0000 *    -7.8414 *     0.0000    0.0000     2          
    54  Li    c     -1.9603 *     0.0000 *     7.8414 *  0.0000     4          
    55  Li    c     -1.9603 *     7.8414 *     0.0000    0.0000     2          
    56  Li    c     -1.9603 *    -7.8414 *     0.0000    0.0000     2          
    57  Li    c      1.9603 *     0.0000 *     7.8414 *  0.0000     4          
    58  Li    c      1.9603 *     7.8414 *     0.0000    0.0000     2          
    59  Li    c      1.9603 *    -7.8414 *     0.0000    0.0000     2          
    60  Li    c      5.8810 *     3.9207 *     3.9207 *  0.0000     4          
    61  Li    c      5.8810 *    -3.9207 *     3.9207 *  0.0000     4          
    62  Li    c     -5.8810 *     3.9207 *     3.9207 *  0.0000     4          
    63  Li    c     -5.8810 *    -3.9207 *     3.9207 *  0.0000     4          
    64  Li    c      0.0000 *     7.8414 *    -1.9603 *  0.0000     4          
    65  Li    c      0.0000 *    -7.8414 *    -1.9603 *  0.0000     4          
    66  Li    c      3.9207 *     3.9207       5.8810 *  0.0000     2          
    67  Li    c      3.9207 *    -3.9207 *     5.8810 *  0.0000     4          
    68  Li    c     -3.9207 *    -3.9207       5.8810 *  0.0000     2          
    69  Cl    c     -1.9603 *     5.8810 *     5.8810 *  0.0000     4          
    70  Cl    c     -1.9603 *    -5.8810 *     5.8810 *  0.0000     4          
    71  Cl    c      1.9603 *     5.8810 *     5.8810 *  0.0000     4          
    72  Cl    c      1.9603 *    -5.8810 *     5.8810 *  0.0000     4          
    73  Cl    c      5.8810 *     5.8810      -1.9603 *  0.0000     2          
    74  Cl    c      5.8810 *    -5.8810 *    -1.9603 *  0.0000     4          
    75  Cl    c     -5.8810 *    -5.8810      -1.9603 *  0.0000     2          
    76  O     c      0.0000 *     3.9207 *     7.8414 *  0.0000     4          
    77  O     c      0.0000 *     7.8414 *     3.9207 *  0.0000     4          
    78  O     c      0.0000 *    -3.9207 *     7.8414 *  0.0000     4          
    79  O     c      0.0000 *    -7.8414 *     3.9207 *  0.0000     4          
    80  O     c      3.9207 *     7.8414 *     0.0000    0.0000     2          
    81  O     c      3.9207 *    -7.8414 *     0.0000    0.0000     2          
    82  O     c      7.8414 *    -3.9207 *     0.0000    0.0000     2          
    83  O     c     -3.9207 *    -7.8414 *     0.0000    0.0000     2          
    84  Li    c     -1.9603 *     3.9207 *     7.8414 *  0.0000     4          
    85  Li    c     -1.9603 *     7.8414 *     3.9207 *  0.0000     4          
    86  Li    c     -1.9603 *    -3.9207 *     7.8414 *  0.0000     4          
    87  Li    c     -1.9603 *    -7.8414 *     3.9207 *  0.0000     4          
    88  Li    c      1.9603 *     3.9207 *     7.8414 *  0.0000     4          
    89  Li    c      1.9603 *     7.8414 *     3.9207 *  0.0000     4          
    90  Li    c      1.9603 *    -3.9207 *     7.8414 *  0.0000     4          
    91  Li    c      1.9603 *    -7.8414 *     3.9207 *  0.0000     4          
    92  Li    c      3.9207 *     7.8414 *    -1.9603 *  0.0000     4          
    93  Li    c      3.9207 *    -7.8414 *    -1.9603 *  0.0000     4          
    94  Li    c      7.8414 *    -3.9207 *    -1.9603 *  0.0000     4          
    95  Li    c     -3.9207 *    -7.8414 *    -1.9603 *  0.0000     4          
    96  O     c      3.9207 *     7.8414 *     3.9207 *  0.0000     4          
    97  O     c      3.9207 *    -7.8414 *     3.9207 *  0.0000     4          
    98  O     c      7.8414 *    -3.9207 *     3.9207 *  0.0000     4          
    99  O     c     -3.9207 *    -7.8414 *     3.9207 *  0.0000     4          
   100  O     c      3.9207 *     3.9207       7.8414 *  0.0000     2          
   101  O     c      3.9207 *    -3.9207 *     7.8414 *  0.0000     4          
   102  O     c     -3.9207 *    -3.9207       7.8414 *  0.0000     2          
   103  Li    c      9.8017 *     0.0000 *     0.0000    0.0000     2          
   104  Li    c     -9.8017 *     0.0000 *     0.0000    0.0000     2          
   105  Li    c      0.0000 *     0.0000       9.8017 *  0.0000     2          
   106  Li    c      5.8810 *     0.0000 *     7.8414 *  0.0000     4          
   107  Li    c      5.8810 *     7.8414 *     0.0000    0.0000     2          
   108  Li    c      5.8810 *    -7.8414 *     0.0000    0.0000     2          
   109  Li    c     -5.8810 *     0.0000 *     7.8414 *  0.0000     4          
   110  Li    c     -5.8810 *     7.8414 *     0.0000    0.0000     2          
   111  Li    c     -5.8810 *    -7.8414 *     0.0000    0.0000     2          
   112  Li    c      0.0000 *     7.8414 *     5.8810 *  0.0000     4          
   113  Li    c      0.0000 *    -7.8414 *     5.8810 *  0.0000     4          
   114  Cl    c     -1.9603 *    -1.9603       9.8017 *  0.0000     2          
   115  Cl    c     -1.9603 *     1.9603 *     9.8017 *  0.0000     4          
   116  Cl    c     -1.9603 *     9.8017 *    -1.9603 *  0.0000     4          
   117  Cl    c     -1.9603 *    -9.8017 *    -1.9603 *  0.0000     4          
   118  Cl    c      1.9603 *     1.9603       9.8017 *  0.0000     2          
   119  Cl    c      1.9603 *     9.8017 *    -1.9603 *  0.0000     4          
   120  Cl    c      1.9603 *    -9.8017 *    -1.9603 *  0.0000     4          
   121  Cl    c      5.8810 *     5.8810       5.8810 *  0.0000     2          
   122  Cl    c      5.8810 *    -5.8810 *     5.8810 *  0.0000     4          
   123  Cl    c     -5.8810 *    -5.8810       5.8810 *  0.0000     2          
   124  Li    c      9.8017 *     0.0000 *     3.9207 *  0.0000     4          
   125  Li    c      9.8017 *     3.9207 *     0.0000    0.0000     2          
   126  Li    c      9.8017 *    -3.9207 *     0.0000    0.0000     2          
   127  Li    c     -9.8017 *     0.0000 *     3.9207 *  0.0000     4          
   128  Li    c     -9.8017 *     3.9207 *     0.0000    0.0000     2          
   129  Li    c     -9.8017 *    -3.9207 *     0.0000    0.0000     2          
   130  Li    c      0.0000 *     3.9207 *     9.8017 *  0.0000     4          
   131  Li    c      0.0000 *    -3.9207 *     9.8017 *  0.0000     4          
   132  Li    c      3.9207 *     7.8414 *     5.8810 *  0.0000     4          
   133  Li    c      3.9207 *    -7.8414 *     5.8810 *  0.0000     4          
   134  Li    c      7.8414 *    -3.9207 *     5.8810 *  0.0000     4          
   135  Li    c     -3.9207 *    -7.8414 *     5.8810 *  0.0000     4          
   136  Li    c      5.8810 *     3.9207 *     7.8414 *  0.0000     4          
   137  Li    c      5.8810 *     7.8414 *     3.9207 *  0.0000     4          
   138  Li    c      5.8810 *    -3.9207 *     7.8414 *  0.0000     4          
   139  Li    c      5.8810 *    -7.8414 *     3.9207 *  0.0000     4          
   140  Li    c     -5.8810 *     3.9207 *     7.8414 *  0.0000     4          
   141  Li    c     -5.8810 *     7.8414 *     3.9207 *  0.0000     4          
   142  Li    c     -5.8810 *    -3.9207 *     7.8414 *  0.0000     4          
   143  Li    c     -5.8810 *    -7.8414 *     3.9207 *  0.0000     4          
   144  O     c      0.0000 *     7.8414 *     7.8414 *  0.0000     4          
   145  O     c      0.0000 *    -7.8414 *     7.8414 *  0.0000     4          
   146  O     c      7.8414 *     7.8414       0.0000    0.0000     1          
   147  O     c      7.8414 *    -7.8414 *     0.0000    0.0000     2          
   148  O     c     -7.8414 *    -7.8414       0.0000    0.0000     1          
   149  Li    c      9.8017 *     3.9207 *     3.9207 *  0.0000     4          
   150  Li    c      9.8017 *    -3.9207 *     3.9207 *  0.0000     4          
   151  Li    c     -9.8017 *     3.9207 *     3.9207 *  0.0000     4          
   152  Li    c     -9.8017 *    -3.9207 *     3.9207 *  0.0000     4          
   153  Li    c      3.9207 *     3.9207       9.8017 *  0.0000     2          
   154  Li    c      3.9207 *    -3.9207 *     9.8017 *  0.0000     4          
   155  Li    c     -3.9207 *    -3.9207       9.8017 *  0.0000     2          
   156  Li    c     -1.9603 *     7.8414 *     7.8414 *  0.0000     4          
   157  Li    c     -1.9603 *    -7.8414 *     7.8414 *  0.0000     4          
   158  Li    c      1.9603 *     7.8414 *     7.8414 *  0.0000     4          
   159  Li    c      1.9603 *    -7.8414 *     7.8414 *  0.0000     4          
   160  Li    c      7.8414 *     7.8414      -1.9603 *  0.0000     2          
   161  Li    c      7.8414 *    -7.8414 *    -1.9603 *  0.0000     4          
   162  Li    c     -7.8414 *    -7.8414      -1.9603 *  0.0000     2          
   163  Cl    c     -1.9603 *     5.8810 *     9.8017 *  0.0000     4          
   164  Cl    c     -1.9603 *     9.8017 *     5.8810 *  0.0000     4          
   165  Cl    c     -1.9603 *    -5.8810 *     9.8017 *  0.0000     4          
   166  Cl    c     -1.9603 *    -9.8017 *     5.8810 *  0.0000     4          
   167  Cl    c      1.9603 *     5.8810 *     9.8017 *  0.0000     4          
   168  Cl    c      1.9603 *     9.8017 *     5.8810 *  0.0000     4          
   169  Cl    c      1.9603 *    -5.8810 *     9.8017 *  0.0000     4          
   170  Cl    c      1.9603 *    -9.8017 *     5.8810 *  0.0000     4          
   171  Cl    c      5.8810 *     9.8017 *    -1.9603 *  0.0000     4          
   172  Cl    c      5.8810 *    -9.8017 *    -1.9603 *  0.0000     4          
   173  Cl    c      9.8017 *    -5.8810 *    -1.9603 *  0.0000     4          
   174  Cl    c     -5.8810 *    -9.8017 *    -1.9603 *  0.0000     4          
   175  O     c      0.0000 *     0.0000      11.7620 *  0.0000     2          
   176  O     c      0.0000 *    11.7620 *     0.0000    0.0000     2          
   177  O     c      0.0000 *   -11.7620 *     0.0000    0.0000     2          
   178  O     c      3.9207 *     7.8414 *     7.8414 *  0.0000     4          
   179  O     c      3.9207 *    -7.8414 *     7.8414 *  0.0000     4          
   180  O     c      7.8414 *     7.8414       3.9207 *  0.0000     2          
   181  O     c      7.8414 *    -3.9207 *     7.8414 *  0.0000     4          
   182  O     c      7.8414 *    -7.8414 *     3.9207 *  0.0000     4          
   183  O     c     -3.9207 *    -7.8414 *     7.8414 *  0.0000     4          
   184  O     c     -7.8414 *    -7.8414       3.9207 *  0.0000     2          
   185  Li    c     -1.9603 *     0.0000 *    11.7620 *  0.0000     4          
   186  Li    c     -1.9603 *    11.7620 *     0.0000    0.0000     2          
   187  Li    c     -1.9603 *   -11.7620 *     0.0000    0.0000     2          
   188  Li    c      1.9603 *     0.0000 *    11.7620 *  0.0000     4          
   189  Li    c      1.9603 *    11.7620 *     0.0000    0.0000     2          
   190  Li    c      1.9603 *   -11.7620 *     0.0000    0.0000     2          
   191  Li    c      0.0000 *    11.7620 *    -1.9603 *  0.0000     4          
   192  Li    c      0.0000 *   -11.7620 *    -1.9603 *  0.0000     4          
   193  O     c      0.0000 *     3.9207 *    11.7620 *  0.0000     4          
   194  O     c      0.0000 *    11.7620 *     3.9207 *  0.0000     4          
   195  O     c      0.0000 *    -3.9207 *    11.7620 *  0.0000     4          
   196  O     c      0.0000 *   -11.7620 *     3.9207 *  0.0000     4          
   197  O     c      3.9207 *    11.7620 *     0.0000    0.0000     2          
   198  O     c      3.9207 *   -11.7620 *     0.0000    0.0000     2          
   199  O     c     11.7620 *    -3.9207 *     0.0000    0.0000     2          
   200  O     c     -3.9207 *   -11.7620 *     0.0000    0.0000     2          
   201  Li    c     -1.9603 *     3.9207 *    11.7620 *  0.0000     4          
   202  Li    c     -1.9603 *    11.7620 *     3.9207 *  0.0000     4          
   203  Li    c     -1.9603 *    -3.9207 *    11.7620 *  0.0000     4          
   204  Li    c     -1.9603 *   -11.7620 *     3.9207 *  0.0000     4          
   205  Li    c      1.9603 *     3.9207 *    11.7620 *  0.0000     4          
   206  Li    c      1.9603 *    11.7620 *     3.9207 *  0.0000     4          
   207  Li    c      1.9603 *    -3.9207 *    11.7620 *  0.0000     4          
   208  Li    c      1.9603 *   -11.7620 *     3.9207 *  0.0000     4          
   209  Li    c      5.8810 *     7.8414 *     7.8414 *  0.0000     4          
   210  Li    c      5.8810 *    -7.8414 *     7.8414 *  0.0000     4          
   211  Li    c      9.8017 *     0.0000 *     7.8414 *  0.0000     4          
   212  Li    c      9.8017 *     7.8414 *     0.0000    0.0000     2          
   213  Li    c      9.8017 *    -7.8414 *     0.0000    0.0000     2          
   214  Li    c     -5.8810 *     7.8414 *     7.8414 *  0.0000     4          
   215  Li    c     -5.8810 *    -7.8414 *     7.8414 *  0.0000     4          
   216  Li    c     -9.8017 *     0.0000 *     7.8414 *  0.0000     4          
   217  Li    c     -9.8017 *     7.8414 *     0.0000    0.0000     2          
   218  Li    c     -9.8017 *    -7.8414 *     0.0000    0.0000     2          
   219  Li    c      0.0000 *     7.8414 *     9.8017 *  0.0000     4          
   220  Li    c      0.0000 *    -7.8414 *     9.8017 *  0.0000     4          
   221  Li    c      3.9207 *    11.7620 *    -1.9603 *  0.0000     4          
   222  Li    c      3.9207 *   -11.7620 *    -1.9603 *  0.0000     4          
   223  Li    c      7.8414 *     7.8414       5.8810 *  0.0000     2          
   224  Li    c      7.8414 *    -7.8414 *     5.8810 *  0.0000     4          
   225  Li    c     11.7620 *    -3.9207 *    -1.9603 *  0.0000     4          
   226  Li    c     -3.9207 *   -11.7620 *    -1.9603 *  0.0000     4          
   227  Li    c     -7.8414 *    -7.8414       5.8810 *  0.0000     2          
   228  Cl    c      5.8810 *     5.8810       9.8017 *  0.0000     2          
   229  Cl    c      5.8810 *     9.8017 *     5.8810 *  0.0000     4          
   230  Cl    c      5.8810 *    -5.8810 *     9.8017 *  0.0000     4          
   231  Cl    c      5.8810 *    -9.8017 *     5.8810 *  0.0000     4          
   232  Cl    c      9.8017 *    -5.8810 *     5.8810 *  0.0000     4          
   233  Cl    c     -5.8810 *    -5.8810       9.8017 *  0.0000     2          
   234  Cl    c     -5.8810 *    -9.8017 *     5.8810 *  0.0000     4          
   235  O     c      3.9207 *     3.9207      11.7620 *  0.0000     2          
   236  O     c      3.9207 *    11.7620 *     3.9207 *  0.0000     4          
   237  O     c      3.9207 *    -3.9207 *    11.7620 *  0.0000     4          
   238  O     c      3.9207 *   -11.7620 *     3.9207 *  0.0000     4          
   239  O     c     11.7620 *    -3.9207 *     3.9207 *  0.0000     4          
   240  O     c     -3.9207 *    -3.9207      11.7620 *  0.0000     2          
   241  O     c     -3.9207 *   -11.7620 *     3.9207 *  0.0000     4          
   242  Li    c      5.8810 *     0.0000 *    11.7620 *  0.0000     4          
   243  Li    c      5.8810 *    11.7620 *     0.0000    0.0000     2          
   244  Li    c      5.8810 *   -11.7620 *     0.0000    0.0000     2          
   245  Li    c      9.8017 *     3.9207 *     7.8414 *  0.0000     4          
   246  Li    c      9.8017 *     7.8414 *     3.9207 *  0.0000     4          
   247  Li    c      9.8017 *    -3.9207 *     7.8414 *  0.0000     4          
   248  Li    c      9.8017 *    -7.8414 *     3.9207 *  0.0000     4          
   249  Li    c     -5.8810 *     0.0000 *    11.7620 *  0.0000     4          
   250  Li    c     -5.8810 *    11.7620 *     0.0000    0.0000     2          
   251  Li    c     -5.8810 *   -11.7620 *     0.0000    0.0000     2          
   252  Li    c     -9.8017 *     3.9207 *     7.8414 *  0.0000     4          
   253  Li    c     -9.8017 *     7.8414 *     3.9207 *  0.0000     4          
   254  Li    c     -9.8017 *    -3.9207 *     7.8414 *  0.0000     4          
   255  Li    c     -9.8017 *    -7.8414 *     3.9207 *  0.0000     4          
   256  Li    c      0.0000 *    11.7620 *     5.8810 *  0.0000     4          
   257  Li    c      0.0000 *   -11.7620 *     5.8810 *  0.0000     4          
   258  Li    c      3.9207 *     7.8414 *     9.8017 *  0.0000     4          
   259  Li    c      3.9207 *    -7.8414 *     9.8017 *  0.0000     4          
   260  Li    c      7.8414 *    -3.9207 *     9.8017 *  0.0000     4          
   261  Li    c     -3.9207 *    -7.8414 *     9.8017 *  0.0000     4          
   262  O     c      7.8414 *     7.8414       7.8414 *  0.0000     2          
   263  O     c      7.8414 *    -7.8414 *     7.8414 *  0.0000     4          
   264  O     c     -7.8414 *    -7.8414       7.8414 *  0.0000     2          
   265  Li    c      5.8810 *    11.7620 *     3.9207 *  0.0000     4          
   266  Li    c      5.8810 *   -11.7620 *     3.9207 *  0.0000     4          
   267  Li    c     13.7224 *     0.0000 *     0.0000    0.0000     2          
   268  Li    c     -5.8810 *    11.7620 *     3.9207 *  0.0000     4          
   269  Li    c     -5.8810 *   -11.7620 *     3.9207 *  0.0000     4          
   270  Li    c    -13.7224 *     0.0000 *     0.0000    0.0000     2          
   271  Li    c      0.0000 *     0.0000      13.7224 *  0.0000     2          
   272  Li    c      3.9207 *    11.7620 *     5.8810 *  0.0000     4          
   273  Li    c      3.9207 *   -11.7620 *     5.8810 *  0.0000     4          
   274  Li    c     11.7620 *    -3.9207 *     5.8810 *  0.0000     4          
   275  Li    c     -3.9207 *   -11.7620 *     5.8810 *  0.0000     4          
   276  Li    c      5.8810 *     3.9207 *    11.7620 *  0.0000     4          
   277  Li    c      5.8810 *    -3.9207 *    11.7620 *  0.0000     4          
   278  Li    c     -5.8810 *     3.9207 *    11.7620 *  0.0000     4          
   279  Li    c     -5.8810 *    -3.9207 *    11.7620 *  0.0000     4          
   280  Cl    c     -1.9603 *    -1.9603      13.7224 *  0.0000     2          
   281  Cl    c     -1.9603 *     1.9603 *    13.7224 *  0.0000     4          
   282  Cl    c     -1.9603 *     9.8017 *     9.8017 *  0.0000     4          
   283  Cl    c     -1.9603 *    13.7224 *    -1.9603 *  0.0000     4          
   284  Cl    c     -1.9603 *    -9.8017 *     9.8017 *  0.0000     4          
   285  Cl    c     -1.9603 *   -13.7224 *    -1.9603 *  0.0000     4          
   286  Cl    c      1.9603 *     1.9603      13.7224 *  0.0000     2          
   287  Cl    c      1.9603 *     9.8017 *     9.8017 *  0.0000     4          
   288  Cl    c      1.9603 *    13.7224 *    -1.9603 *  0.0000     4          
   289  Cl    c      1.9603 *    -9.8017 *     9.8017 *  0.0000     4          
   290  Cl    c      1.9603 *   -13.7224 *    -1.9603 *  0.0000     4          
   291  Cl    c      9.8017 *     9.8017      -1.9603 *  0.0000     2          
   292  Cl    c      9.8017 *    -9.8017 *    -1.9603 *  0.0000     4          
   293  Cl    c     -9.8017 *    -9.8017      -1.9603 *  0.0000     2          
   294  O     c      0.0000 *     7.8414 *    11.7620 *  0.0000     4          
   295  O     c      0.0000 *    11.7620 *     7.8414 *  0.0000     4          
   296  O     c      0.0000 *    -7.8414 *    11.7620 *  0.0000     4          
   297  O     c      0.0000 *   -11.7620 *     7.8414 *  0.0000     4          
   298  O     c      7.8414 *    11.7620 *     0.0000    0.0000     2          
   299  O     c      7.8414 *   -11.7620 *     0.0000    0.0000     2          
   300  O     c     11.7620 *    -7.8414 *     0.0000    0.0000     2          
   301  O     c     -7.8414 *   -11.7620 *     0.0000    0.0000     2          
   302  Li    c     13.7224 *     0.0000 *     3.9207 *  0.0000     4          
   303  Li    c     13.7224 *     3.9207 *     0.0000    0.0000     2          
   304  Li    c     13.7224 *    -3.9207 *     0.0000    0.0000     2          
   305  Li    c    -13.7224 *     0.0000 *     3.9207 *  0.0000     4          
   306  Li    c    -13.7224 *     3.9207 *     0.0000    0.0000     2          
   307  Li    c    -13.7224 *    -3.9207 *     0.0000    0.0000     2          
   308  Li    c      0.0000 *     3.9207 *    13.7224 *  0.0000     4          
   309  Li    c      0.0000 *    -3.9207 *    13.7224 *  0.0000     4          
   310  Li    c     -1.9603 *     7.8414 *    11.7620 *  0.0000     4          
   311  Li    c     -1.9603 *    11.7620 *     7.8414 *  0.0000     4          
   312  Li    c     -1.9603 *    -7.8414 *    11.7620 *  0.0000     4          
   313  Li    c     -1.9603 *   -11.7620 *     7.8414 *  0.0000     4          
   314  Li    c      1.9603 *     7.8414 *    11.7620 *  0.0000     4          
   315  Li    c      1.9603 *    11.7620 *     7.8414 *  0.0000     4          
   316  Li    c      1.9603 *    -7.8414 *    11.7620 *  0.0000     4          
   317  Li    c      1.9603 *   -11.7620 *     7.8414 *  0.0000     4          
   318  Li    c      7.8414 *    11.7620 *    -1.9603 *  0.0000     4          
   319  Li    c      7.8414 *   -11.7620 *    -1.9603 *  0.0000     4          
   320  Li    c     11.7620 *    -7.8414 *    -1.9603 *  0.0000     4          
   321  Li    c     -7.8414 *   -11.7620 *    -1.9603 *  0.0000     4          
   322  O     c      3.9207 *     7.8414 *    11.7620 *  0.0000     4          
   323  O     c      3.9207 *    11.7620 *     7.8414 *  0.0000     4          
   324  O     c      3.9207 *    -7.8414 *    11.7620 *  0.0000     4          
   325  O     c      3.9207 *   -11.7620 *     7.8414 *  0.0000     4          
   326  O     c      7.8414 *    11.7620 *     3.9207 *  0.0000     4          
   327  O     c      7.8414 *    -3.9207 *    11.7620 *  0.0000     4          
   328  O     c      7.8414 *   -11.7620 *     3.9207 *  0.0000     4          
   329  O     c     11.7620 *    -3.9207 *     7.8414 *  0.0000     4          
   330  O     c     11.7620 *    -7.8414 *     3.9207 *  0.0000     4          
   331  O     c     -3.9207 *    -7.8414 *    11.7620 *  0.0000     4          
   332  O     c     -3.9207 *   -11.7620 *     7.8414 *  0.0000     4          
   333  O     c     -7.8414 *   -11.7620 *     3.9207 *  0.0000     4          
   334  Li    c     13.7224 *     3.9207 *     3.9207 *  0.0000     4          
   335  Li    c     13.7224 *    -3.9207 *     3.9207 *  0.0000     4          
   336  Li    c    -13.7224 *     3.9207 *     3.9207 *  0.0000     4          
   337  Li    c    -13.7224 *    -3.9207 *     3.9207 *  0.0000     4          
   338  Li    c      3.9207 *     3.9207      13.7224 *  0.0000     2          
   339  Li    c      3.9207 *    -3.9207 *    13.7224 *  0.0000     4          
   340  Li    c     -3.9207 *    -3.9207      13.7224 *  0.0000     2          
   341  Li    c      9.8017 *     7.8414 *     7.8414 *  0.0000     4          
   342  Li    c      9.8017 *    -7.8414 *     7.8414 *  0.0000     4          
   343  Li    c     -9.8017 *     7.8414 *     7.8414 *  0.0000     4          
   344  Li    c     -9.8017 *    -7.8414 *     7.8414 *  0.0000     4          
   345  Li    c      7.8414 *     7.8414       9.8017 *  0.0000     2          
   346  Li    c      7.8414 *    -7.8414 *     9.8017 *  0.0000     4          
   347  Li    c     -7.8414 *    -7.8414       9.8017 *  0.0000     2          
   348  Cl    c     -1.9603 *     5.8810 *    13.7224 *  0.0000     4          
   349  Cl    c     -1.9603 *    13.7224 *     5.8810 *  0.0000     4          
   350  Cl    c     -1.9603 *    -5.8810 *    13.7224 *  0.0000     4          
   351  Cl    c     -1.9603 *   -13.7224 *     5.8810 *  0.0000     4          
   352  Cl    c      1.9603 *     5.8810 *    13.7224 *  0.0000     4          
   353  Cl    c      1.9603 *    13.7224 *     5.8810 *  0.0000     4          
   354  Cl    c      1.9603 *    -5.8810 *    13.7224 *  0.0000     4          
   355  Cl    c      1.9603 *   -13.7224 *     5.8810 *  0.0000     4          
   356  Cl    c      5.8810 *    13.7224 *    -1.9603 *  0.0000     4          
   357  Cl    c      5.8810 *   -13.7224 *    -1.9603 *  0.0000     4          
   358  Cl    c      9.8017 *     9.8017       5.8810 *  0.0000     2          
   359  Cl    c      9.8017 *    -9.8017 *     5.8810 *  0.0000     4          
   360  Cl    c     13.7224 *    -5.8810 *    -1.9603 *  0.0000     4          
   361  Cl    c     -5.8810 *   -13.7224 *    -1.9603 *  0.0000     4          
   362  Cl    c     -9.8017 *    -9.8017       5.8810 *  0.0000     2          
   363  Cl    c      5.8810 *     9.8017 *     9.8017 *  0.0000     4          
   364  Cl    c      5.8810 *    -9.8017 *     9.8017 *  0.0000     4          
   365  Cl    c      9.8017 *    -5.8810 *     9.8017 *  0.0000     4          
   366  Cl    c     -5.8810 *    -9.8017 *     9.8017 *  0.0000     4          
   367  Li    c      5.8810 *    11.7620 *     7.8414 *  0.0000     4          
   368  Li    c      5.8810 *   -11.7620 *     7.8414 *  0.0000     4          
   369  Li    c      9.8017 *     0.0000 *    11.7620 *  0.0000     4          
   370  Li    c      9.8017 *    11.7620 *     0.0000    0.0000     2          
   371  Li    c      9.8017 *   -11.7620 *     0.0000    0.0000     2          
   372  Li    c     -5.8810 *    11.7620 *     7.8414 *  0.0000     4          
   373  Li    c     -5.8810 *   -11.7620 *     7.8414 *  0.0000     4          
   374  Li    c     -9.8017 *     0.0000 *    11.7620 *  0.0000     4          
   375  Li    c     -9.8017 *    11.7620 *     0.0000    0.0000     2          
   376  Li    c     -9.8017 *   -11.7620 *     0.0000    0.0000     2          
   377  Li    c      0.0000 *    11.7620 *     9.8017 *  0.0000     4          
   378  Li    c      0.0000 *   -11.7620 *     9.8017 *  0.0000     4          
   379  Li    c      5.8810 *     7.8414 *    11.7620 *  0.0000     4          
   380  Li    c      5.8810 *    -7.8414 *    11.7620 *  0.0000     4          
   381  Li    c     -5.8810 *     7.8414 *    11.7620 *  0.0000     4          
   382  Li    c     -5.8810 *    -7.8414 *    11.7620 *  0.0000     4          
   383  Li    c      7.8414 *    11.7620 *     5.8810 *  0.0000     4          
   384  Li    c      7.8414 *   -11.7620 *     5.8810 *  0.0000     4          
   385  Li    c     11.7620 *    -7.8414 *     5.8810 *  0.0000     4          
   386  Li    c     -7.8414 *   -11.7620 *     5.8810 *  0.0000     4          
   387  O     c      0.0000 *     0.0000      15.6827 *  0.0000     2          
   388  O     c      0.0000 *    15.6827 *     0.0000    0.0000     2          
   389  O     c      0.0000 *   -15.6827 *     0.0000    0.0000     2          
   390  Li    c      9.8017 *     3.9207 *    11.7620 *  0.0000     4          
   391  Li    c      9.8017 *    11.7620 *     3.9207 *  0.0000     4          
   392  Li    c      9.8017 *    -3.9207 *    11.7620 *  0.0000     4          
   393  Li    c      9.8017 *   -11.7620 *     3.9207 *  0.0000     4          
   394  Li    c     13.7224 *     0.0000 *     7.8414 *  0.0000     4          
   395  Li    c     13.7224 *     7.8414 *     0.0000    0.0000     2          
   396  Li    c     13.7224 *    -7.8414 *     0.0000    0.0000     2          
   397  Li    c     -9.8017 *     3.9207 *    11.7620 *  0.0000     4          
   398  Li    c     -9.8017 *    11.7620 *     3.9207 *  0.0000     4          
   399  Li    c     -9.8017 *    -3.9207 *    11.7620 *  0.0000     4          
   400  Li    c     -9.8017 *   -11.7620 *     3.9207 *  0.0000     4          
   401  Li    c    -13.7224 *     0.0000 *     7.8414 *  0.0000     4          
   402  Li    c    -13.7224 *     7.8414 *     0.0000    0.0000     2          
   403  Li    c    -13.7224 *    -7.8414 *     0.0000    0.0000     2          
   404  Li    c      0.0000 *     7.8414 *    13.7224 *  0.0000     4          
   405  Li    c      0.0000 *    -7.8414 *    13.7224 *  0.0000     4          
   406  Li    c      3.9207 *    11.7620 *     9.8017 *  0.0000     4          
   407  Li    c      3.9207 *   -11.7620 *     9.8017 *  0.0000     4          
   408  Li    c     11.7620 *    -3.9207 *     9.8017 *  0.0000     4          
   409  Li    c     -3.9207 *   -11.7620 *     9.8017 *  0.0000     4          
   410  Li    c     -1.9603 *     0.0000 *    15.6827 *  0.0000     4          
   411  Li    c     -1.9603 *    15.6827 *     0.0000    0.0000     2          
   412  Li    c     -1.9603 *   -15.6827 *     0.0000    0.0000     2          
   413  Li    c      1.9603 *     0.0000 *    15.6827 *  0.0000     4          
   414  Li    c      1.9603 *    15.6827 *     0.0000    0.0000     2          
   415  Li    c      1.9603 *   -15.6827 *     0.0000    0.0000     2          
   416  Li    c      0.0000 *    15.6827 *    -1.9603 *  0.0000     4          
   417  Li    c      0.0000 *   -15.6827 *    -1.9603 *  0.0000     4          
   418  Cl    c      5.8810 *    13.7224 *     5.8810 *  0.0000     4          
   419  Cl    c      5.8810 *   -13.7224 *     5.8810 *  0.0000     4          
   420  Cl    c     13.7224 *    -5.8810 *     5.8810 *  0.0000     4          
   421  Cl    c     -5.8810 *   -13.7224 *     5.8810 *  0.0000     4          
   422  Cl    c      5.8810 *     5.8810      13.7224 *  0.0000     2          
   423  Cl    c      5.8810 *    -5.8810 *    13.7224 *  0.0000     4          
   424  Cl    c     -5.8810 *    -5.8810      13.7224 *  0.0000     2          
   425  O     c      0.0000 *     3.9207 *    15.6827 *  0.0000     4          
   426  O     c      0.0000 *    15.6827 *     3.9207 *  0.0000     4          
   427  O     c      0.0000 *    -3.9207 *    15.6827 *  0.0000     4          
   428  O     c      0.0000 *   -15.6827 *     3.9207 *  0.0000     4          
   429  O     c      3.9207 *    15.6827 *     0.0000    0.0000     2          
   430  O     c      3.9207 *   -15.6827 *     0.0000    0.0000     2          
   431  O     c      7.8414 *     7.8414      11.7620 *  0.0000     2          
   432  O     c      7.8414 *    11.7620 *     7.8414 *  0.0000     4          
   433  O     c      7.8414 *    -7.8414 *    11.7620 *  0.0000     4          
   434  O     c      7.8414 *   -11.7620 *     7.8414 *  0.0000     4          
   435  O     c     11.7620 *    -7.8414 *     7.8414 *  0.0000     4          
   436  O     c     15.6827 *    -3.9207 *     0.0000    0.0000     2          
   437  O     c     -3.9207 *   -15.6827 *     0.0000    0.0000     2          
   438  O     c     -7.8414 *    -7.8414      11.7620 *  0.0000     2          
   439  O     c     -7.8414 *   -11.7620 *     7.8414 *  0.0000     4          
   440  Li    c     -1.9603 *     3.9207 *    15.6827 *  0.0000     4          
   441  Li    c     -1.9603 *    15.6827 *     3.9207 *  0.0000     4          
   442  Li    c     -1.9603 *    -3.9207 *    15.6827 *  0.0000     4          
   443  Li    c     -1.9603 *   -15.6827 *     3.9207 *  0.0000     4          
   444  Li    c      1.9603 *     3.9207 *    15.6827 *  0.0000     4          
   445  Li    c      1.9603 *    15.6827 *     3.9207 *  0.0000     4          
   446  Li    c      1.9603 *    -3.9207 *    15.6827 *  0.0000     4          
   447  Li    c      1.9603 *   -15.6827 *     3.9207 *  0.0000     4          
   448  Li    c     13.7224 *     3.9207 *     7.8414 *  0.0000     4          
   449  Li    c     13.7224 *     7.8414 *     3.9207 *  0.0000     4          
   450  Li    c     13.7224 *    -3.9207 *     7.8414 *  0.0000     4          
   451  Li    c     13.7224 *    -7.8414 *     3.9207 *  0.0000     4          
   452  Li    c    -13.7224 *     3.9207 *     7.8414 *  0.0000     4          
   453  Li    c    -13.7224 *     7.8414 *     3.9207 *  0.0000     4          
   454  Li    c    -13.7224 *    -3.9207 *     7.8414 *  0.0000     4          
   455  Li    c    -13.7224 *    -7.8414 *     3.9207 *  0.0000     4          
   456  Li    c      3.9207 *     7.8414 *    13.7224 *  0.0000     4          
   457  Li    c      3.9207 *    15.6827 *    -1.9603 *  0.0000     4          
   458  Li    c      3.9207 *    -7.8414 *    13.7224 *  0.0000     4          
   459  Li    c      3.9207 *   -15.6827 *    -1.9603 *  0.0000     4          
   460  Li    c      7.8414 *    -3.9207 *    13.7224 *  0.0000     4          
   461  Li    c     15.6827 *    -3.9207 *    -1.9603 *  0.0000     4          
   462  Li    c     -3.9207 *    -7.8414 *    13.7224 *  0.0000     4          
   463  Li    c     -3.9207 *   -15.6827 *    -1.9603 *  0.0000     4          
   464  O     c      0.0000 *    11.7620 *    11.7620 *  0.0000     4          
   465  O     c      0.0000 *   -11.7620 *    11.7620 *  0.0000     4          
   466  O     c      3.9207 *     3.9207      15.6827 *  0.0000     2          
   467  O     c      3.9207 *    15.6827 *     3.9207 *  0.0000     4          
   468  O     c      3.9207 *    -3.9207 *    15.6827 *  0.0000     4          
   469  O     c      3.9207 *   -15.6827 *     3.9207 *  0.0000     4          
   470  O     c     11.7620 *    11.7620       0.0000    0.0000     1          
   471  O     c     11.7620 *   -11.7620 *     0.0000    0.0000     2          
   472  O     c     15.6827 *    -3.9207 *     3.9207 *  0.0000     4          
   473  O     c     -3.9207 *    -3.9207      15.6827 *  0.0000     2          
   474  O     c     -3.9207 *   -15.6827 *     3.9207 *  0.0000     4          
   475  O     c    -11.7620 *   -11.7620       0.0000    0.0000     1          
   476  Li    c     -1.9603 *    11.7620 *    11.7620 *  0.0000     4          
   477  Li    c     -1.9603 *   -11.7620 *    11.7620 *  0.0000     4          
   478  Li    c      1.9603 *    11.7620 *    11.7620 *  0.0000     4          
   479  Li    c      1.9603 *   -11.7620 *    11.7620 *  0.0000     4          
   480  Li    c      5.8810 *     0.0000 *    15.6827 *  0.0000     4          
   481  Li    c      5.8810 *    15.6827 *     0.0000    0.0000     2          
   482  Li    c      5.8810 *   -15.6827 *     0.0000    0.0000     2          
   483  Li    c     -5.8810 *     0.0000 *    15.6827 *  0.0000     4          
   484  Li    c     -5.8810 *    15.6827 *     0.0000    0.0000     2          
   485  Li    c     -5.8810 *   -15.6827 *     0.0000    0.0000     2          
   486  Li    c      0.0000 *    15.6827 *     5.8810 *  0.0000     4          
   487  Li    c      0.0000 *   -15.6827 *     5.8810 *  0.0000     4          
   488  Li    c     11.7620 *    11.7620      -1.9603 *  0.0000     2          
   489  Li    c     11.7620 *   -11.7620 *    -1.9603 *  0.0000     4          
   490  Li    c    -11.7620 *   -11.7620      -1.9603 *  0.0000     2          
   491  Cl    c     -1.9603 *     9.8017 *    13.7224 *  0.0000     4          
   492  Cl    c     -1.9603 *    13.7224 *     9.8017 *  0.0000     4          
   493  Cl    c     -1.9603 *    -9.8017 *    13.7224 *  0.0000     4          
   494  Cl    c     -1.9603 *   -13.7224 *     9.8017 *  0.0000     4          
   495  Cl    c      1.9603 *     9.8017 *    13.7224 *  0.0000     4          
   496  Cl    c      1.9603 *    13.7224 *     9.8017 *  0.0000     4          
   497  Cl    c      1.9603 *    -9.8017 *    13.7224 *  0.0000     4          
   498  Cl    c      1.9603 *   -13.7224 *     9.8017 *  0.0000     4          
   499  Cl    c      9.8017 *     9.8017       9.8017 *  0.0000     2          
   500  Cl    c      9.8017 *    13.7224 *    -1.9603 *  0.0000     4          
   501  Cl    c      9.8017 *    -9.8017 *     9.8017 *  0.0000     4          
   502  Cl    c      9.8017 *   -13.7224 *    -1.9603 *  0.0000     4          
   503  Cl    c     13.7224 *    -9.8017 *    -1.9603 *  0.0000     4          
   504  Cl    c     -9.8017 *    -9.8017       9.8017 *  0.0000     2          
   505  Cl    c     -9.8017 *   -13.7224 *    -1.9603 *  0.0000     4          
   506  O     c      3.9207 *    11.7620 *    11.7620 *  0.0000     4          
   507  O     c      3.9207 *   -11.7620 *    11.7620 *  0.0000     4          
   508  O     c     11.7620 *    11.7620       3.9207 *  0.0000     2          
   509  O     c     11.7620 *    -3.9207 *    11.7620 *  0.0000     4          
   510  O     c     11.7620 *   -11.7620 *     3.9207 *  0.0000     4          
   511  O     c     -3.9207 *   -11.7620 *    11.7620 *  0.0000     4          
   512  O     c    -11.7620 *   -11.7620       3.9207 *  0.0000     2          
   513  Li    c      5.8810 *     3.9207 *    15.6827 *  0.0000     4          
   514  Li    c      5.8810 *    15.6827 *     3.9207 *  0.0000     4          
   515  Li    c      5.8810 *    -3.9207 *    15.6827 *  0.0000     4          
   516  Li    c      5.8810 *   -15.6827 *     3.9207 *  0.0000     4          
   517  Li    c      9.8017 *     7.8414 *    11.7620 *  0.0000     4          
   518  Li    c      9.8017 *    11.7620 *     7.8414 *  0.0000     4          
   519  Li    c      9.8017 *    -7.8414 *    11.7620 *  0.0000     4          
   520  Li    c      9.8017 *   -11.7620 *     7.8414 *  0.0000     4          
   521  Li    c     -5.8810 *     3.9207 *    15.6827 *  0.0000     4          
   522  Li    c     -5.8810 *    15.6827 *     3.9207 *  0.0000     4          
   523  Li    c     -5.8810 *    -3.9207 *    15.6827 *  0.0000     4          
   524  Li    c     -5.8810 *   -15.6827 *     3.9207 *  0.0000     4          
   525  Li    c     -9.8017 *     7.8414 *    11.7620 *  0.0000     4          
   526  Li    c     -9.8017 *    11.7620 *     7.8414 *  0.0000     4          
   527  Li    c     -9.8017 *    -7.8414 *    11.7620 *  0.0000     4          
   528  Li    c     -9.8017 *   -11.7620 *     7.8414 *  0.0000     4          
   529  Li    c      3.9207 *    15.6827 *     5.8810 *  0.0000     4          
   530  Li    c      3.9207 *   -15.6827 *     5.8810 *  0.0000     4          
   531  Li    c      7.8414 *    11.7620 *     9.8017 *  0.0000     4          
   532  Li    c      7.8414 *   -11.7620 *     9.8017 *  0.0000     4          
   533  Li    c     11.7620 *    -7.8414 *     9.8017 *  0.0000     4          
   534  Li    c     15.6827 *    -3.9207 *     5.8810 *  0.0000     4          
   535  Li    c     -3.9207 *   -15.6827 *     5.8810 *  0.0000     4          
   536  Li    c     -7.8414 *   -11.7620 *     9.8017 *  0.0000     4          
   537  O     c      0.0000 *     7.8414 *    15.6827 *  0.0000     4          
   538  O     c      0.0000 *    15.6827 *     7.8414 *  0.0000     4          
   539  O     c      0.0000 *    -7.8414 *    15.6827 *  0.0000     4          
   540  O     c      0.0000 *   -15.6827 *     7.8414 *  0.0000     4          
   541  O     c      7.8414 *    15.6827 *     0.0000    0.0000     2          
   542  O     c      7.8414 *   -15.6827 *     0.0000    0.0000     2          
   543  O     c     15.6827 *    -7.8414 *     0.0000    0.0000     2          
   544  O     c     -7.8414 *   -15.6827 *     0.0000    0.0000     2          
   545  Li    c     -1.9603 *     7.8414 *    15.6827 *  0.0000     4          
   546  Li    c     -1.9603 *    15.6827 *     7.8414 *  0.0000     4          
   547  Li    c     -1.9603 *    -7.8414 *    15.6827 *  0.0000     4          
   548  Li    c     -1.9603 *   -15.6827 *     7.8414 *  0.0000     4          
   549  Li    c      1.9603 *     7.8414 *    15.6827 *  0.0000     4          
   550  Li    c      1.9603 *    15.6827 *     7.8414 *  0.0000     4          
   551  Li    c      1.9603 *    -7.8414 *    15.6827 *  0.0000     4          
   552  Li    c      1.9603 *   -15.6827 *     7.8414 *  0.0000     4          
   553  Li    c      5.8810 *    11.7620 *    11.7620 *  0.0000     4          
   554  Li    c      5.8810 *   -11.7620 *    11.7620 *  0.0000     4          
   555  Li    c     13.7224 *     7.8414 *     7.8414 *  0.0000     4          
   556  Li    c     13.7224 *    -7.8414 *     7.8414 *  0.0000     4          
   557  Li    c     17.6430 *     0.0000 *     0.0000    0.0000     2          
   558  Li    c     -5.8810 *    11.7620 *    11.7620 *  0.0000     4          
   559  Li    c     -5.8810 *   -11.7620 *    11.7620 *  0.0000     4          
   560  Li    c    -13.7224 *     7.8414 *     7.8414 *  0.0000     4          
   561  Li    c    -13.7224 *    -7.8414 *     7.8414 *  0.0000     4          
   562  Li    c    -17.6430 *     0.0000 *     0.0000    0.0000     2          
   563  Li    c      0.0000 *     0.0000      17.6430 *  0.0000     2          
   564  Li    c      7.8414 *     7.8414      13.7224 *  0.0000     2          
   565  Li    c      7.8414 *    15.6827 *    -1.9603 *  0.0000     4          
   566  Li    c      7.8414 *    -7.8414 *    13.7224 *  0.0000     4          
   567  Li    c      7.8414 *   -15.6827 *    -1.9603 *  0.0000     4          
   568  Li    c     11.7620 *    11.7620       5.8810 *  0.0000     2          
   569  Li    c     11.7620 *   -11.7620 *     5.8810 *  0.0000     4          
   570  Li    c     15.6827 *    -7.8414 *    -1.9603 *  0.0000     4          
   571  Li    c     -7.8414 *    -7.8414      13.7224 *  0.0000     2          
   572  Li    c     -7.8414 *   -15.6827 *    -1.9603 *  0.0000     4          
   573  Li    c    -11.7620 *   -11.7620       5.8810 *  0.0000     2          
   574  Cl    c     -1.9603 *    -1.9603      17.6430 *  0.0000     2          
   575  Cl    c     -1.9603 *     1.9603 *    17.6430 *  0.0000     4          
   576  Cl    c     -1.9603 *    17.6430 *    -1.9603 *  0.0000     4          
   577  Cl    c     -1.9603 *   -17.6430 *    -1.9603 *  0.0000     4          
   578  Cl    c      1.9603 *     1.9603      17.6430 *  0.0000     2          
   579  Cl    c      1.9603 *    17.6430 *    -1.9603 *  0.0000     4          
   580  Cl    c      1.9603 *   -17.6430 *    -1.9603 *  0.0000     4          
   581  Cl    c      5.8810 *     9.8017 *    13.7224 *  0.0000     4          
   582  Cl    c      5.8810 *    13.7224 *     9.8017 *  0.0000     4          
   583  Cl    c      5.8810 *    -9.8017 *    13.7224 *  0.0000     4          
   584  Cl    c      5.8810 *   -13.7224 *     9.8017 *  0.0000     4          
   585  Cl    c      9.8017 *    13.7224 *     5.8810 *  0.0000     4          
   586  Cl    c      9.8017 *    -5.8810 *    13.7224 *  0.0000     4          
   587  Cl    c      9.8017 *   -13.7224 *     5.8810 *  0.0000     4          
   588  Cl    c     13.7224 *    -5.8810 *     9.8017 *  0.0000     4          
   589  Cl    c     13.7224 *    -9.8017 *     5.8810 *  0.0000     4          
   590  Cl    c     -5.8810 *    -9.8017 *    13.7224 *  0.0000     4          
   591  Cl    c     -5.8810 *   -13.7224 *     9.8017 *  0.0000     4          
   592  Cl    c     -9.8017 *   -13.7224 *     5.8810 *  0.0000     4          
   593  O     c      3.9207 *     7.8414 *    15.6827 *  0.0000     4          
   594  O     c      3.9207 *    15.6827 *     7.8414 *  0.0000     4          
   595  O     c      3.9207 *    -7.8414 *    15.6827 *  0.0000     4          
   596  O     c      3.9207 *   -15.6827 *     7.8414 *  0.0000     4          
   597  O     c      7.8414 *    15.6827 *     3.9207 *  0.0000     4          
   598  O     c      7.8414 *    -3.9207 *    15.6827 *  0.0000     4          
   599  O     c      7.8414 *   -15.6827 *     3.9207 *  0.0000     4          
   600  O     c     15.6827 *    -3.9207 *     7.8414 *  0.0000     4          
   601  O     c     15.6827 *    -7.8414 *     3.9207 *  0.0000     4          
   602  O     c     -3.9207 *    -7.8414 *    15.6827 *  0.0000     4          
   603  O     c     -3.9207 *   -15.6827 *     7.8414 *  0.0000     4          
   604  O     c     -7.8414 *   -15.6827 *     3.9207 *  0.0000     4          
   605  Li    c     13.7224 *     0.0000 *    11.7620 *  0.0000     4          
   606  Li    c     13.7224 *    11.7620 *     0.0000    0.0000     2          
   607  Li    c     13.7224 *   -11.7620 *     0.0000    0.0000     2          
   608  Li    c     17.6430 *     0.0000 *     3.9207 *  0.0000     4          
   609  Li    c     17.6430 *     3.9207 *     0.0000    0.0000     2          
   610  Li    c     17.6430 *    -3.9207 *     0.0000    0.0000     2          
   611  Li    c    -13.7224 *     0.0000 *    11.7620 *  0.0000     4          
   612  Li    c    -13.7224 *    11.7620 *     0.0000    0.0000     2          
   613  Li    c    -13.7224 *   -11.7620 *     0.0000    0.0000     2          
   614  Li    c    -17.6430 *     0.0000 *     3.9207 *  0.0000     4          
   615  Li    c    -17.6430 *     3.9207 *     0.0000    0.0000     2          
   616  Li    c    -17.6430 *    -3.9207 *     0.0000    0.0000     2          
   617  Li    c      0.0000 *     3.9207 *    17.6430 *  0.0000     4          
   618  Li    c      0.0000 *    11.7620 *    13.7224 *  0.0000     4          
   619  Li    c      0.0000 *    -3.9207 *    17.6430 *  0.0000     4          
   620  Li    c      0.0000 *   -11.7620 *    13.7224 *  0.0000     4          
   621  O     c      7.8414 *    11.7620 *    11.7620 *  0.0000     4          
   622  O     c      7.8414 *   -11.7620 *    11.7620 *  0.0000     4          
   623  O     c     11.7620 *    11.7620       7.8414 *  0.0000     2          
   624  O     c     11.7620 *    -7.8414 *    11.7620 *  0.0000     4          
   625  O     c     11.7620 *   -11.7620 *     7.8414 *  0.0000     4          
   626  O     c     -7.8414 *   -11.7620 *    11.7620 *  0.0000     4          
   627  O     c    -11.7620 *   -11.7620       7.8414 *  0.0000     2          
   628  Li    c      5.8810 *    15.6827 *     7.8414 *  0.0000     4          
   629  Li    c      5.8810 *   -15.6827 *     7.8414 *  0.0000     4          
   630  Li    c      9.8017 *     0.0000 *    15.6827 *  0.0000     4          
   631  Li    c      9.8017 *    15.6827 *     0.0000    0.0000     2          
   632  Li    c      9.8017 *   -15.6827 *     0.0000    0.0000     2          
   633  Li    c     13.7224 *     3.9207 *    11.7620 *  0.0000     4          
   634  Li    c     13.7224 *    11.7620 *     3.9207 *  0.0000     4          
   635  Li    c     13.7224 *    -3.9207 *    11.7620 *  0.0000     4          
   636  Li    c     13.7224 *   -11.7620 *     3.9207 *  0.0000     4          
   637  Li    c     17.6430 *     3.9207 *     3.9207 *  0.0000     4          
   638  Li    c     17.6430 *    -3.9207 *     3.9207 *  0.0000     4          
   639  Li    c     -5.8810 *    15.6827 *     7.8414 *  0.0000     4          
   640  Li    c     -5.8810 *   -15.6827 *     7.8414 *  0.0000     4          
   641  Li    c     -9.8017 *     0.0000 *    15.6827 *  0.0000     4          
   642  Li    c     -9.8017 *    15.6827 *     0.0000    0.0000     2          
   643  Li    c     -9.8017 *   -15.6827 *     0.0000    0.0000     2          
   644  Li    c    -13.7224 *     3.9207 *    11.7620 *  0.0000     4          
   645  Li    c    -13.7224 *    11.7620 *     3.9207 *  0.0000     4          
   646  Li    c    -13.7224 *    -3.9207 *    11.7620 *  0.0000     4          
   647  Li    c    -13.7224 *   -11.7620 *     3.9207 *  0.0000     4          
   648  Li    c    -17.6430 *     3.9207 *     3.9207 *  0.0000     4          
   649  Li    c    -17.6430 *    -3.9207 *     3.9207 *  0.0000     4          
   650  Li    c      0.0000 *    15.6827 *     9.8017 *  0.0000     4          
   651  Li    c      0.0000 *   -15.6827 *     9.8017 *  0.0000     4          
   652  Li    c      3.9207 *     3.9207      17.6430 *  0.0000     2          
   653  Li    c      3.9207 *    11.7620 *    13.7224 *  0.0000     4          
   654  Li    c      3.9207 *    -3.9207 *    17.6430 *  0.0000     4          
   655  Li    c      3.9207 *   -11.7620 *    13.7224 *  0.0000     4          
   656  Li    c      7.8414 *    15.6827 *     5.8810 *  0.0000     4          
   657  Li    c      7.8414 *   -15.6827 *     5.8810 *  0.0000     4          
   658  Li    c     11.7620 *    -3.9207 *    13.7224 *  0.0000     4          
   659  Li    c     15.6827 *    -7.8414 *     5.8810 *  0.0000     4          
   660  Li    c     -3.9207 *    -3.9207      17.6430 *  0.0000     2          
   661  Li    c     -3.9207 *   -11.7620 *    13.7224 *  0.0000     4          
   662  Li    c     -7.8414 *   -15.6827 *     5.8810 *  0.0000     4          
   663  Li    c      5.8810 *     7.8414 *    15.6827 *  0.0000     4          
   664  Li    c      5.8810 *    -7.8414 *    15.6827 *  0.0000     4          
   665  Li    c     -5.8810 *     7.8414 *    15.6827 *  0.0000     4          
   666  Li    c     -5.8810 *    -7.8414 *    15.6827 *  0.0000     4          
   667  Cl    c     -1.9603 *     5.8810 *    17.6430 *  0.0000     4          
   668  Cl    c     -1.9603 *    17.6430 *     5.8810 *  0.0000     4          
   669  Cl    c     -1.9603 *    -5.8810 *    17.6430 *  0.0000     4          
   670  Cl    c     -1.9603 *   -17.6430 *     5.8810 *  0.0000     4          
   671  Cl    c      1.9603 *     5.8810 *    17.6430 *  0.0000     4          
   672  Cl    c      1.9603 *    17.6430 *     5.8810 *  0.0000     4          
   673  Cl    c      1.9603 *    -5.8810 *    17.6430 *  0.0000     4          
   674  Cl    c      1.9603 *   -17.6430 *     5.8810 *  0.0000     4          
   675  Cl    c      5.8810 *    17.6430 *    -1.9603 *  0.0000     4          
   676  Cl    c      5.8810 *   -17.6430 *    -1.9603 *  0.0000     4          
   677  Cl    c     17.6430 *    -5.8810 *    -1.9603 *  0.0000     4          
   678  Cl    c     -5.8810 *   -17.6430 *    -1.9603 *  0.0000     4          
   679  Li    c      9.8017 *     3.9207 *    15.6827 *  0.0000     4          
   680  Li    c      9.8017 *    15.6827 *     3.9207 *  0.0000     4          
   681  Li    c      9.8017 *    -3.9207 *    15.6827 *  0.0000     4          
   682  Li    c      9.8017 *   -15.6827 *     3.9207 *  0.0000     4          
   683  Li    c     -9.8017 *     3.9207 *    15.6827 *  0.0000     4          
   684  Li    c     -9.8017 *    15.6827 *     3.9207 *  0.0000     4          
   685  Li    c     -9.8017 *    -3.9207 *    15.6827 *  0.0000     4          
   686  Li    c     -9.8017 *   -15.6827 *     3.9207 *  0.0000     4          
   687  Li    c      3.9207 *    15.6827 *     9.8017 *  0.0000     4          
   688  Li    c      3.9207 *   -15.6827 *     9.8017 *  0.0000     4          
   689  Li    c     15.6827 *    -3.9207 *     9.8017 *  0.0000     4          
   690  Li    c     -3.9207 *   -15.6827 *     9.8017 *  0.0000     4          
   691  O     c      7.8414 *    15.6827 *     7.8414 *  0.0000     4          
   692  O     c      7.8414 *   -15.6827 *     7.8414 *  0.0000     4          
   693  O     c     15.6827 *    -7.8414 *     7.8414 *  0.0000     4          
   694  O     c     -7.8414 *   -15.6827 *     7.8414 *  0.0000     4          
   695  O     c      7.8414 *     7.8414      15.6827 *  0.0000     2          
   696  O     c      7.8414 *    -7.8414 *    15.6827 *  0.0000     4          
   697  O     c     -7.8414 *    -7.8414      15.6827 *  0.0000     2          
   698  Li    c      9.8017 *    11.7620 *    11.7620 *  0.0000     4          
   699  Li    c      9.8017 *   -11.7620 *    11.7620 *  0.0000     4          
[...]
   1065 y         -7.841351     -7.841875    -0.000524    Cartesian    0.01
   1065 z         15.682702     15.682746     0.000044    Cartesian    0.00
   1066 x         -3.920675     -3.920394     0.000282    Cartesian   -0.01
   1066 y        -15.682702    -15.682585     0.000117    Cartesian   -0.00
   1066 z          7.841351      7.842192     0.000841    Cartesian    0.01
   1067 x         -7.841351     -7.842226    -0.000875    Cartesian    0.01
   1067 y        -15.682702    -15.682730    -0.000029    Cartesian    0.00
   1067 z          3.920675      3.920413    -0.000263    Cartesian   -0.01
   1068 x          7.841351      7.841785     0.000434    Cartesian    0.01
   1068 y         11.762026     11.764007     0.001981    Cartesian    0.02
   1068 z         11.762026     11.763694     0.001667    Cartesian    0.01
   1069 x          7.841351      7.841592     0.000241    Cartesian    0.00
   1069 y        -11.762026    -11.763363    -0.001336    Cartesian    0.01
   1069 z         11.762026     11.763616     0.001590    Cartesian    0.01
   1070 x         11.762026     11.761370    -0.000657    Cartesian   -0.01
   1070 y         11.762026     11.761370    -0.000657    Cartesian   -0.01
   1070 z          7.841351      7.839522    -0.001829    Cartesian   -0.02
   1071 x         11.762026     11.763239     0.001212    Cartesian    0.01
   1071 y         -7.841351     -7.841246     0.000105    Cartesian   -0.00
   1071 z         11.762026     11.762672     0.000646    Cartesian    0.01
   1072 x         11.762026     11.763659     0.001632    Cartesian    0.01
   1072 y        -11.762026    -11.763020    -0.000994    Cartesian    0.01
   1072 z          7.841351      7.841603     0.000252    Cartesian    0.00
   1073 x         -7.841351     -7.841352    -0.000001    Cartesian    0.00
   1073 y        -11.762026    -11.762834    -0.000808    Cartesian    0.01
   1073 z         11.762026     11.763119     0.001092    Cartesian    0.01
   1074 x        -11.762026    -11.763095    -0.001069    Cartesian    0.01
   1074 y        -11.762026    -11.763095    -0.001069    Cartesian    0.01
   1074 z          7.841351      7.841477     0.000126    Cartesian    0.00
   1075 x         -1.960338     -1.958136     0.002202    Cartesian   -0.11
   1075 y          5.881013      5.881718     0.000705    Cartesian    0.01
   1075 z         17.643040     17.635603    -0.007437    Cartesian   -0.04
   1076 x         -1.960338     -1.956426     0.003911    Cartesian   -0.20
   1076 y         17.643040     17.636610    -0.006430    Cartesian   -0.04
   1076 z          5.881013      5.878718    -0.002295    Cartesian   -0.04
   1077 x         -1.960338     -1.958264     0.002073    Cartesian   -0.11
   1077 y         -5.881013     -5.878077     0.002936    Cartesian   -0.05
   1077 z         17.643040     17.637408    -0.005631    Cartesian   -0.03
   1078 x         -1.960338     -1.958993     0.001345    Cartesian   -0.07
   1078 y        -17.643040    -17.636638     0.006401    Cartesian   -0.04
   1078 z          5.881013      5.880163    -0.000850    Cartesian   -0.01
   1079 x          1.960338      1.963252     0.002914    Cartesian    0.15
   1079 y          5.881013      5.882174     0.001161    Cartesian    0.02
   1079 z         17.643040     17.634532    -0.008508    Cartesian   -0.05
   1080 x          1.960338      1.963845     0.003508    Cartesian    0.18
   1080 y         17.643040     17.635143    -0.007896    Cartesian   -0.04
   1080 z          5.881013      5.879134    -0.001879    Cartesian   -0.03
   1081 x          1.960338      1.962277     0.001939    Cartesian    0.10
   1081 y         -5.881013     -5.878244     0.002770    Cartesian   -0.05
   1081 z         17.643040     17.636784    -0.006255    Cartesian   -0.04
   1082 x          1.960338      1.962218     0.001881    Cartesian    0.10
   1082 y        -17.643040    -17.636065     0.006975    Cartesian   -0.04
   1082 z          5.881013      5.880347    -0.000666    Cartesian   -0.01
   1083 x          5.881013      5.882636     0.001622    Cartesian    0.03
   1083 y         17.643040     17.633702    -0.009338    Cartesian   -0.05
   1083 z         -1.960338     -1.960550    -0.000212    Cartesian    0.01
   1084 x          5.881013      5.881715     0.000702    Cartesian    0.01
   1084 y        -17.643040    -17.635584     0.007456    Cartesian   -0.04
   1084 z         -1.960338     -1.960704    -0.000366    Cartesian    0.02
   1085 x         17.643040     17.637335    -0.005705    Cartesian   -0.03
   1085 y         -5.881013     -5.876357     0.004657    Cartesian   -0.08
   1085 z         -1.960338     -1.959793     0.000545    Cartesian   -0.03
   1086 x         -5.881013     -5.879035     0.001978    Cartesian   -0.03
   1086 y        -17.643040    -17.636982     0.006058    Cartesian   -0.03
   1086 z         -1.960338     -1.960429    -0.000091    Cartesian    0.00
   1087 x          7.841351      7.839769    -0.001582    Cartesian   -0.02
   1087 y         15.682702     15.679433    -0.003269    Cartesian   -0.02
   1087 z          7.841351      7.838811    -0.002540    Cartesian   -0.03
   1088 x          7.841351      7.840309    -0.001042    Cartesian   -0.01
   1088 y        -15.682702    -15.679356     0.003346    Cartesian   -0.02
   1088 z          7.841351      7.839973    -0.001378    Cartesian   -0.02
   1089 x         15.682702     15.680126    -0.002576    Cartesian   -0.02
   1089 y         -7.841351     -7.838246     0.003105    Cartesian   -0.04
   1089 z          7.841351      7.838951    -0.002399    Cartesian   -0.03
   1090 x         -7.841351     -7.839523     0.001828    Cartesian   -0.02
   1090 y        -15.682702    -15.679840     0.002862    Cartesian   -0.02
   1090 z          7.841351      7.839808    -0.001543    Cartesian   -0.02
   1091 x          7.841351      7.840448    -0.000903    Cartesian   -0.01
   1091 y          7.841351      7.840448    -0.000903    Cartesian   -0.01
   1091 z         15.682702     15.678908    -0.003794    Cartesian   -0.02
   1092 x          7.841351      7.840020    -0.001331    Cartesian   -0.02
   1092 y         -7.841351     -7.839156     0.002195    Cartesian   -0.03
   1092 z         15.682702     15.679744    -0.002958    Cartesian   -0.02
   1093 x         -7.841351     -7.839120     0.002231    Cartesian   -0.03
   1093 y         -7.841351     -7.839120     0.002231    Cartesian   -0.03
   1093 z         15.682702     15.680128    -0.002574    Cartesian   -0.02
   1094 x         -1.960338     -1.955815     0.004522    Cartesian   -0.23
   1094 y         13.722364     13.718268    -0.004096    Cartesian   -0.03
   1094 z         13.722364     13.714986    -0.007379    Cartesian   -0.05
   1095 x         -1.960338     -1.957505     0.002833    Cartesian   -0.14
   1095 y        -13.722364    -13.716289     0.006075    Cartesian   -0.04
   1095 z         13.722364     13.717934    -0.004431    Cartesian   -0.03
   1096 x          1.960338      1.961118     0.000780    Cartesian    0.04
   1096 y         13.722364     13.718422    -0.003943    Cartesian   -0.03
   1096 z         13.722364     13.714403    -0.007961    Cartesian   -0.06
   1097 x          1.960338      1.960246    -0.000092    Cartesian   -0.00
   1097 y        -13.722364    -13.716011     0.006353    Cartesian   -0.05
   1097 z         13.722364     13.717862    -0.004502    Cartesian   -0.03
   1098 x          5.881013      5.880575    -0.000438    Cartesian   -0.01
   1098 y          5.881013      5.880575    -0.000438    Cartesian   -0.01
   1098 z         17.643040     17.632228    -0.010812    Cartesian   -0.06
   1099 x          5.881013      5.880693    -0.000321    Cartesian   -0.01
   1099 y         17.643040     17.632793    -0.010247    Cartesian   -0.06
   1099 z          5.881013      5.877376    -0.003638    Cartesian   -0.06
   1100 x          5.881013      5.880380    -0.000633    Cartesian   -0.01
   1100 y         -5.881013     -5.876802     0.004211    Cartesian   -0.07
   1100 z         17.643040     17.634470    -0.008570    Cartesian   -0.05
   1101 x          5.881013      5.880318    -0.000695    Cartesian   -0.01
   1101 y        -17.643040    -17.633867     0.009173    Cartesian   -0.05
   1101 z          5.881013      5.878916    -0.002097    Cartesian   -0.04
   1102 x          9.801689      9.799818    -0.001871    Cartesian   -0.02
   1102 y          9.801689      9.799818    -0.001871    Cartesian   -0.02
   1102 z         13.722364     13.713227    -0.009137    Cartesian   -0.07
   1103 x          9.801689      9.798919    -0.002770    Cartesian   -0.03
   1103 y         13.722364     13.715204    -0.007160    Cartesian   -0.05
   1103 z          9.801689      9.794043    -0.007646    Cartesian   -0.08
   1104 x          9.801689      9.799775    -0.001914    Cartesian   -0.02
   1104 y         -9.801689     -9.795848     0.005841    Cartesian   -0.06
   1104 z         13.722364     13.716127    -0.006237    Cartesian   -0.05
   1105 x          9.801689      9.800053    -0.001636    Cartesian   -0.02
   1105 y        -13.722364    -13.714765     0.007599    Cartesian   -0.06
   1105 z          9.801689      9.798374    -0.003315    Cartesian   -0.03
   1106 x         13.722364     13.715427    -0.006937    Cartesian   -0.05
   1106 y         13.722364     13.715427    -0.006937    Cartesian   -0.05
   1106 z         -1.960338     -1.957544     0.002794    Cartesian   -0.14
   1107 x         13.722364     13.718082    -0.004283    Cartesian   -0.03
   1107 y         -9.801689     -9.794912     0.006777    Cartesian   -0.07
   1107 z          9.801689      9.797324    -0.004364    Cartesian   -0.04
   1108 x         13.722364     13.719199    -0.003165    Cartesian   -0.02
   1108 y        -13.722364    -13.714605     0.007759    Cartesian   -0.06
   1108 z         -1.960338     -1.958718     0.001620    Cartesian   -0.08
   1109 x         17.643040     17.635149    -0.007891    Cartesian   -0.04
   1109 y         -5.881013     -5.875262     0.005751    Cartesian   -0.10
   1109 z          5.881013      5.877874    -0.003140    Cartesian   -0.05
   1110 x         -5.881013     -5.877364     0.003650    Cartesian   -0.06
   1110 y         -5.881013     -5.877364     0.003650    Cartesian   -0.06
   1110 z         17.643040     17.635555    -0.007485    Cartesian   -0.04
   1111 x         -5.881013     -5.877908     0.003105    Cartesian   -0.05
   1111 y        -17.643040    -17.635011     0.008029    Cartesian   -0.05
   1111 z          5.881013      5.879086    -0.001928    Cartesian   -0.03
   1112 x         -9.801689     -9.797089     0.004599    Cartesian   -0.05
   1112 y         -9.801689     -9.797089     0.004599    Cartesian   -0.05
   1112 z         13.722364     13.717355    -0.005009    Cartesian   -0.04
   1113 x         -9.801689     -9.797560     0.004129    Cartesian   -0.04
   1113 y        -13.722364    -13.716294     0.006071    Cartesian   -0.04
   1113 z          9.801689      9.798796    -0.002893    Cartesian   -0.03
   1114 x        -13.722364    -13.717151     0.005214    Cartesian   -0.04
   1114 y        -13.722364    -13.717151     0.005214    Cartesian   -0.04
   1114 z         -1.960338     -1.958934     0.001404    Cartesian   -0.07
   1115 x          0.000000      0.000686     0.000686    Cartesian    0.00
   1115 y          0.000000      0.000686     0.000686    Cartesian    0.00
   1115 z         19.603377     19.600721    -0.002656    Cartesian   -0.01
   1116 x          0.000000      0.000930     0.000930    Cartesian    0.00
   1116 y         19.603377     19.600923    -0.002455    Cartesian   -0.01
   1116 z          0.000000      0.000000     0.000000    Cartesian    0.00
   1117 x          0.000000      0.000498     0.000498    Cartesian    0.00
   1117 y        -19.603377    -19.600705     0.002673    Cartesian   -0.01
   1117 z          0.000000      0.000000     0.000000    Cartesian    0.00
   1118 x          0.000000      0.000647     0.000647    Cartesian    0.00
   1118 y         11.762026     11.759929    -0.002098    Cartesian   -0.02
   1118 z         15.682702     15.679680    -0.003021    Cartesian   -0.02
   1119 x          0.000000      0.000603     0.000603    Cartesian    0.00
   1119 y         15.682702     15.679667    -0.003035    Cartesian   -0.02
   1119 z         11.762026     11.759169    -0.002858    Cartesian   -0.02
   1120 x          0.000000      0.000330     0.000330    Cartesian    0.00
   1120 y        -11.762026    -11.759711     0.002315    Cartesian   -0.02
   1120 z         15.682702     15.679932    -0.002770    Cartesian   -0.02
   1121 x          0.000000      0.000359     0.000359    Cartesian    0.00
   1121 y        -15.682702    -15.679859     0.002843    Cartesian   -0.02
   1121 z         11.762026     11.759993    -0.002034    Cartesian   -0.02
   1122 x         11.762026     11.759769    -0.002258    Cartesian   -0.02
   1122 y         15.682702     15.680016    -0.002686    Cartesian   -0.02
   1122 z          0.000000      0.000000     0.000000    Cartesian    0.00
   1123 x         11.762026     11.760094    -0.001932    Cartesian   -0.02
   1123 y        -15.682702    -15.679730     0.002972    Cartesian   -0.02
   1123 z          0.000000      0.000000     0.000000    Cartesian    0.00
   1124 x         15.682702     15.680071    -0.002631    Cartesian   -0.02
   1124 y        -11.762026    -11.759543     0.002484    Cartesian   -0.02
   1124 z          0.000000      0.000000     0.000000    Cartesian    0.00
   1125 x        -11.762026    -11.759928     0.002098    Cartesian   -0.02
   1125 y        -15.682702    -15.679966     0.002736    Cartesian   -0.02
   1125 z          0.000000      0.000000     0.000000    Cartesian    0.00
   1126 x          0.000000      0.000777     0.000777    Cartesian    0.00
   1126 y          3.920675      3.919795    -0.000881    Cartesian   -0.02
   1126 z         19.603377     19.597085    -0.006292    Cartesian   -0.03
   1127 x          0.000000      0.001127     0.001127    Cartesian    0.00
   1127 y         19.603377     19.597004    -0.006373    Cartesian   -0.03
   1127 z          3.920675      3.918527    -0.002148    Cartesian   -0.05
   1128 x          0.000000      0.000646     0.000646    Cartesian    0.00
   1128 y         -3.920675     -3.918198     0.002478    Cartesian   -0.06
   1128 z         19.603377     19.597616    -0.005761    Cartesian   -0.03
   1129 x          0.000000      0.000501     0.000501    Cartesian    0.00
   1129 y        -19.603377    -19.597580     0.005797    Cartesian   -0.03
   1129 z          3.920675      3.919131    -0.001544    Cartesian   -0.04
   1130 x          3.920675      3.919854    -0.000821    Cartesian   -0.02
   1130 y         19.603377     19.596722    -0.006655    Cartesian   -0.03
   1130 z          0.000000      0.000000     0.000000    Cartesian    0.00
   1131 x          3.920675      3.919734    -0.000942    Cartesian   -0.02
   1131 y        -19.603377    -19.597393     0.005984    Cartesian   -0.03
   1131 z          0.000000      0.000000     0.000000    Cartesian    0.00
   1132 x         19.603377     19.597512    -0.005866    Cartesian   -0.03
   1132 y         -3.920675     -3.917443     0.003232    Cartesian   -0.08
   1132 z          0.000000      0.000000     0.000000    Cartesian    0.00
   1133 x         -3.920675     -3.918599     0.002077    Cartesian   -0.05
   1133 y        -19.603377    -19.597761     0.005616    Cartesian   -0.03
   1133 z          0.000000      0.000000     0.000000    Cartesian    0.00
   1134 x          3.920675      3.918878    -0.001798    Cartesian   -0.05
   1134 y         11.762026     11.758738    -0.003288    Cartesian   -0.03
   1134 z         15.682702     15.678091    -0.004611    Cartesian   -0.03
   1135 x          3.920675      3.919326    -0.001350    Cartesian   -0.03
   1135 y         15.682702     15.678161    -0.004541    Cartesian   -0.03
   1135 z         11.762026     11.758144    -0.003883    Cartesian   -0.03
   1136 x          3.920675      3.919279    -0.001396    Cartesian   -0.04
   1136 y        -11.762026    -11.758618     0.003408    Cartesian   -0.03
   1136 z         15.682702     15.678452    -0.004250    Cartesian   -0.03
   1137 x          3.920675      3.919063    -0.001612    Cartesian   -0.04
   1137 y        -15.682702    -15.678396     0.004306    Cartesian   -0.03
   1137 z         11.762026     11.758906    -0.003121    Cartesian   -0.03
   1138 x         11.762026     11.758303    -0.003723    Cartesian   -0.03
   1138 y         15.682702     15.677597    -0.005105    Cartesian   -0.03
   1138 z          3.920675      3.918116    -0.002559    Cartesian   -0.07
   1139 x         11.762026     11.759303    -0.002724    Cartesian   -0.02
   1139 y         -3.920675     -3.917838     0.002838    Cartesian   -0.07
   1139 z         15.682702     15.678103    -0.004599    Cartesian   -0.03
   1140 x         11.762026     11.759175    -0.002851    Cartesian   -0.02
   1140 y        -15.682702    -15.678258     0.004444    Cartesian   -0.03
   1140 z          3.920675      3.918471    -0.002204    Cartesian   -0.06
   1141 x         15.682702     15.677983    -0.004719    Cartesian   -0.03
   1141 y         -3.920675     -3.918067     0.002608    Cartesian   -0.07
   1141 z         11.762026     11.758607    -0.003420    Cartesian   -0.03
   1142 x         15.682702     15.678366    -0.004336    Cartesian   -0.03
   1142 y        -11.762026    -11.758504     0.003522    Cartesian   -0.03
   1142 z          3.920675      3.919030    -0.001645    Cartesian   -0.04
   1143 x         -3.920675     -3.918610     0.002065    Cartesian   -0.05
   1143 y        -11.762026    -11.758927     0.003099    Cartesian   -0.03
   1143 z         15.682702     15.678448    -0.004254    Cartesian   -0.03
   1144 x         -3.920675     -3.918436     0.002240    Cartesian   -0.06
   1144 y        -15.682702    -15.678440     0.004262    Cartesian   -0.03
   1144 z         11.762026     11.759225    -0.002802    Cartesian   -0.02
   1145 x        -11.762026    -11.758983     0.003044    Cartesian   -0.03
   1145 y        -15.682702    -15.678536     0.004166    Cartesian   -0.03
   1145 z          3.920675      3.918928    -0.001748    Cartesian   -0.04
--------------------------------------------------------------------------------


  Time to end of optimisation  =      460.6276 seconds


  Peak dynamic memory used =    1274.18 MB 


  Timing analysis for GULP :

--------------------------------------------------------------------------------
  Task / Subroutine                                          Time (Seconds)
--------------------------------------------------------------------------------
  Calculation of reciprocal space energy and derivatives          0.0004
  Calculation of reciprocal space energy using symmetry           0.0006
  Calculation of real space energy and derivatives                0.0035
  Calculation of real space energy using symmetry                 0.0075
  Calculation for region 1 energy and derivatives (2-b)         124.2879
  Calculation for region 2a energy                               38.0304
  Calculation for region 2b energy                                0.0038
  Calculation and manipulation of Hessian matrix                264.3388
  Calculation of matrix inversion                                32.5845
  Symmetry generation of equivalent positions                     0.0036
--------------------------------------------------------------------------------
  Total CPU time                                                460.6277
--------------------------------------------------------------------------------


  Dump file written as Li3OCl.grs


  Job Finished at 12:37.52 28th October    2020                               

