********************************************************************************
*                       GENERAL UTILITY LATTICE PROGRAM                        *
*                                 Julian Gale                                  *
*                       Curtin Institute for Computation                       *
*                    School of Molecular and Life Sciences                     *
*                    Curtin University, Western Australia                      *
********************************************************************************
* Version = 5.2.0 * Last modified =  10th September 2020                       *
********************************************************************************
*  optimise     - perform optimisation run                                     *
*  conp         - constant pressure calculation                                *
*  property     - calculate properties for final geometry                      *
*  defect       - perform defect calculation after bulk run                    *
*  compare      - compare initial and final structures                         *
********************************************************************************

  Job Started  at 12:37.52 28th October    2020                               

  Number of CPUs =     1


  Total number of configurations input =      1

********************************************************************************
*  Input for Configuration =   1                                               *
********************************************************************************

  Formula = ClOLi3                                                      

  Number of irreducible atoms/shells =       5


  Total number atoms/shells =       7

  Dimensionality = 3               :  Bulk   


  Symmetry :

  Crystal family                   :  Cubic       
  Crystal class  (Groth - 1921)    :  Cubic Hexakisoctahedral              

  Space group (centrosymmetric)    :  P M 3 M         

  Patterson group                  :  P m -3 m 

  Cartesian lattice vectors (Angstroms) :

        3.918873    0.000000    0.000000
        0.000000    3.918873    0.000000
        0.000000    0.000000    3.918873

  Cell parameters (Angstroms/Degrees):

  a =       3.9189    alpha =  90.0000
  b =       3.9189    beta  =  90.0000
  c =       3.9189    gamma =  90.0000

  Initial cell volume =          60.184349 Angs**3

  Temperature of configuration =   0.00     K 

  Pressure of configuration =         0.000 GPa 

  Fractional coordinates of asymmetric unit :

--------------------------------------------------------------------------------
   No.  Atomic       x           y          z         Charge      Occupancy
        Label      (Frac)      (Frac)     (Frac)        (e)         (Frac)  
--------------------------------------------------------------------------------
      1 Cl    c    0.500000    0.500000    0.500000     1.48500    1.000000    
      2 O     c    0.000000    0.000000    0.000000     0.18300    1.000000    
      3 Li    c    0.500000    0.000000    0.000000     1.00000    1.000000    
      4 Cl    s    0.500000    0.500000    0.500000    -2.48500    1.000000    
      5 O     s    0.000000    0.000000    0.000000    -2.18300    1.000000    
--------------------------------------------------------------------------------


  Constraints : 

--------------------------------------------------------------------------------
  Constraint no.      Unconstrained     Constrained    Coefficient    Offset
                         Variable         Variable
--------------------------------------------------------------------------------
           1              Strain 1        Strain 2       1.00000      0.0000
           2              Strain 1        Strain 3       1.00000      0.0000
--------------------------------------------------------------------------------


********************************************************************************
*  General input information                                                   *
********************************************************************************

  Species output for all configurations : 

--------------------------------------------------------------------------------
  Species    Type    Atomic    Atomic    Charge       Radii (Angs)     Library
                     Number     Mass       (e)     Cova   Ionic  VDW   Symbol
--------------------------------------------------------------------------------
    Li       Core        3       6.94   1.000000   0.680  0.000  1.800          
    O        Core        8      16.00   0.183000   0.730  0.000  1.360          
    O        Shell       8       0.00  -2.183000   0.730  0.000  1.360          
    Cl       Core       17      35.45   1.485000   0.990  0.000  1.650          
    Cl       Shell      17       0.00  -2.485000   0.990  0.000  1.650          
--------------------------------------------------------------------------------


  Lattice summation method               =    Ewald          (3-D)
                                         =    Parry          (2-D)
                                         =    Saunders et al (1-D)
  Accuracy factor for lattice sums       =   12.000


  Analytic derivatives to be used

  Time limit = Infinity

  Maximum range for interatomic potentials =    100000.000000 Angstroms

  General interatomic potentials :

--------------------------------------------------------------------------------
Atom  Types   Potential      Parameter       Value         Units   Cutoffs(Ang)
  1     2                                                            Min /  Max 
--------------------------------------------------------------------------------
O    c O    s Spring (c-s)  Spring k 2       593.72000    eV*Ang^-2 0.000  0.800
                            Spring k 4       0.0000000    eV*Ang^-4 
--------------------------------------------------------------------------------
Cl   c Cl   s Spring (c-s)  Spring k 2       29.380000    eV*Ang^-2 0.000  0.800
                            Spring k 4       0.0000000    eV*Ang^-4 
--------------------------------------------------------------------------------
Li   c Li   c Buckingham    Buckingham A     360.53000    eV        0.000 12.000
                            Buckingham rho  0.16100000    Ang       
                            Buckingham C     0.0000000    eV*Ang^6  
--------------------------------------------------------------------------------
Li   c O    s Buckingham    Buckingham A     292.30000    eV        0.000 12.000
                            Buckingham rho  0.34720000    Ang       
                            Buckingham C     0.0000000    eV*Ang^6  
--------------------------------------------------------------------------------
Li   c Cl   s Buckingham    Buckingham A     421.04000    eV        0.000 12.000
                            Buckingham rho  0.33400000    Ang       
                            Buckingham C     0.0000000    eV*Ang^6  
--------------------------------------------------------------------------------
O    s O    s Buckingham    Buckingham A     22764.300    eV        0.000 12.000
                            Buckingham rho  0.14900000    Ang       
                            Buckingham C     13.190000    eV*Ang^6  
--------------------------------------------------------------------------------
O    s Cl   s Buckingham    Buckingham A     8286.9100    eV        0.000 12.000
                            Buckingham rho  0.25900000    Ang       
                            Buckingham C     62.200000    eV*Ang^6  
--------------------------------------------------------------------------------
Cl   s Cl   s Buckingham    Buckingham A     1227.2000    eV        0.000 12.000
                            Buckingham rho  0.32100000    Ang       
                            Buckingham C     14.530000    eV*Ang^6  
--------------------------------------------------------------------------------

********************************************************************************
*  Output for configuration   1                                                *
********************************************************************************


  Components of energy : 

--------------------------------------------------------------------------------
  Interatomic potentials     =           7.26836263 eV    
  Monopole - monopole (real) =         -11.53475722 eV    
  Monopole - monopole (recip)=         -33.94580548 eV    
  Monopole - monopole (total)=         -45.48056271 eV    
--------------------------------------------------------------------------------
  Total lattice energy       =         -38.21220008 eV    
--------------------------------------------------------------------------------
  Total lattice energy       =           -3686.8932 kJ/(mole unit cells)
--------------------------------------------------------------------------------


  Number of variables =        1

  Maximum number of calculations  =          1000
  Maximum Hessian update interval =            10
  Maximum step size               =   1.000000000
  Maximum parameter tolerance     =   0.000010000
  Maximum function  tolerance     =   0.000010000
  Maximum gradient  tolerance     =   0.001000000
  Maximum gradient  component     =   0.010000000

  Symmetry constrained optimisation

  Symmetry used for second derivatives

  Cell parameters to be optimised using strains

  Newton-Raphson optimiser to be used

  BFGS hessian update to be used

  Lower half triangular hessian to be used

  Start of bulk optimisation :

  Cycle:      0 Energy:       -38.212200  Gnorm:      0.095699  CPU:    0.009
  ** Hessian calculated **
  Cycle:      1 Energy:       -38.212222  Gnorm:      0.000105  CPU:    0.010


  **** Optimisation achieved ****


  Final energy =     -38.21222207 eV
  Final Gnorm  =       0.00000001

  Components of energy : 

--------------------------------------------------------------------------------
  Interatomic potentials     =           7.24743137 eV    
  Monopole - monopole (real) =         -11.52945422 eV    
  Monopole - monopole (recip)=         -33.93019921 eV    
  Monopole - monopole (total)=         -45.45965344 eV    
--------------------------------------------------------------------------------
  Total lattice energy       =         -38.21222207 eV    
--------------------------------------------------------------------------------
  Total lattice energy       =           -3686.8953 kJ/(mole unit cells)
--------------------------------------------------------------------------------

  Final asymmetric unit coordinates :

--------------------------------------------------------------------------------
   No.  Atomic        x           y           z         Radius
        Label       (Frac)      (Frac)      (Frac)       (Angs) 
--------------------------------------------------------------------------------
     1  Cl    c     0.500000    0.500000    0.500000    0.000000
     2  O     c     0.000000    0.000000    0.000000    0.000000
     3  Li    c     0.500000    0.000000    0.000000    0.000000
     4  Cl    s     0.500000    0.500000    0.500000    0.000000
     5  O     s     0.000000    0.000000    0.000000    0.000000
--------------------------------------------------------------------------------

  Final Cartesian lattice vectors (Angstroms) :

        3.920675    0.000000    0.000000
        0.000000    3.920675    0.000000
        0.000000    0.000000    3.920675


  Final cell parameters and derivatives :

--------------------------------------------------------------------------------
       a            3.920675 Angstrom     dE/de1(xx)     0.000000 eV/strain
       b            3.920675 Angstrom     dE/de2(yy)     0.000000 eV/strain
       c            3.920675 Angstrom     dE/de3(zz)     0.000000 eV/strain
       alpha       90.000000 Degrees      dE/de4(yz)     0.000000 eV/strain
       beta        90.000000 Degrees      dE/de5(xz)     0.000000 eV/strain
       gamma       90.000000 Degrees      dE/de6(xy)     0.000000 eV/strain
--------------------------------------------------------------------------------

  Primitive cell volume =            60.267433 Angs**3

  Density of cell =      1.991276 g/cm**3

  Non-primitive cell volume =            60.267433 Angs**3


  Final internal derivatives :

--------------------------------------------------------------------------------
   No.  Atomic          a             b             c           Radius
        Label          (eV)          (eV)          (eV)        (eV/Angs)
--------------------------------------------------------------------------------
      1 Cl    c       0.000000      0.000000      0.000000      0.000000
      2 O     c       0.000000      0.000000      0.000000      0.000000
      3 Li    c       0.000000      0.000000      0.000000      0.000000
      4 Cl    s       0.000000      0.000000      0.000000      0.000000
      5 O     s       0.000000      0.000000      0.000000      0.000000
--------------------------------------------------------------------------------
  Maximum abs         0.000000      0.000000      0.000000      0.000000
--------------------------------------------------------------------------------

  Comparison of initial and final structures : 

--------------------------------------------------------------------------------
  Parameter   Initial value   Final value   Difference    Units      Percent
--------------------------------------------------------------------------------
    Volume        60.184349     60.267433     0.083084    Angs**3      0.14
    a              3.918873      3.920675     0.001802    Angstroms    0.05
    b              3.918873      3.920675     0.001802    Angstroms    0.05
    c              3.918873      3.920675     0.001802    Angstroms    0.05
    alpha         90.000000     90.000000     0.000000    Degrees      0.00
    beta          90.000000     90.000000     0.000000    Degrees      0.00
    gamma         90.000000     90.000000     0.000000    Degrees      0.00
      1 x          0.500000      0.500000     0.000000    Fractional   0.00
      1 y          0.500000      0.500000     0.000000    Fractional   0.00
      1 z          0.500000      0.500000     0.000000    Fractional   0.00
      2 x          0.000000      0.000000     0.000000    Fractional   0.00
      2 y          0.000000      0.000000     0.000000    Fractional   0.00
      2 z          0.000000      0.000000     0.000000    Fractional   0.00
      3 x          0.500000      0.500000     0.000000    Fractional   0.00
      3 y          0.000000      0.000000     0.000000    Fractional   0.00
      3 z          0.000000      0.000000     0.000000    Fractional   0.00
      4 x          0.500000      0.500000     0.000000    Fractional   0.00
      4 y          0.500000      0.500000     0.000000    Fractional   0.00
      4 z          0.500000      0.500000     0.000000    Fractional   0.00
      5 x          0.000000      0.000000     0.000000    Fractional   0.00
      5 y          0.000000      0.000000     0.000000    Fractional   0.00
      5 z          0.000000      0.000000     0.000000    Fractional   0.00
--------------------------------------------------------------------------------


  Born effective charge tensors : 

-------------------------------------------------------------------------------
  Atom             x           y             z
-------------------------------------------------------------------------------
    1 Cl    x      -0.9489      0.0000     -0.0000
            y       0.0000     -0.9489     -0.0000
            z      -0.0000     -0.0000     -0.9489
-------------------------------------------------------------------------------
    2 O     x      -2.4688      0.0000     -0.0000
            y       0.0000     -2.4688     -0.0000
            z      -0.0000     -0.0000     -2.4688
-------------------------------------------------------------------------------
    3 Li    x       0.7919     -0.0000      0.0000
            y      -0.0000      1.3129      0.0000
            z      -0.0000      0.0000      1.3129
-------------------------------------------------------------------------------




  Elastic Constant Matrix: (Units=GPa)

-------------------------------------------------------------------------------
  Indices      1         2         3         4         5         6    
-------------------------------------------------------------------------------
       1     94.3368   44.9178   44.9178   -0.0000   -0.0000    0.0000
       2     44.9178   94.3368   44.9178    0.0000   -0.0000    0.0000
       3     44.9178   44.9178   94.3368    0.0000    0.0000   -0.0000
       4     -0.0000    0.0000    0.0000   44.9178   -0.0000    0.0000
       5     -0.0000   -0.0000    0.0000   -0.0000   44.9178    0.0000
       6      0.0000    0.0000   -0.0000    0.0000    0.0000   44.9178
-------------------------------------------------------------------------------


  Elastic Compliance Matrix: (Units=1/GPa)

-------------------------------------------------------------------------------
  Indices      1         2         3         4         5         6    
-------------------------------------------------------------------------------
       1    0.015300 -0.004935 -0.004935  0.000000  0.000000 -0.000000
       2   -0.004935  0.015300 -0.004935  0.000000 -0.000000 -0.000000
       3   -0.004935 -0.004935  0.015300 -0.000000 -0.000000  0.000000
       4    0.000000  0.000000 -0.000000  0.022263  0.000000 -0.000000
       5    0.000000 -0.000000 -0.000000  0.000000  0.022263 -0.000000
       6   -0.000000 -0.000000  0.000000 -0.000000 -0.000000  0.022263
-------------------------------------------------------------------------------

  Mechanical properties :

-------------------------------------------------------------------------------
  Convention :                    Reuss         Voigt         Hill
-------------------------------------------------------------------------------
  Bulk  Modulus (GPa)     =      61.39080      61.39080      61.39080
  Shear Modulus (GPa)     =      33.84570      36.83448      35.34009
-------------------------------------------------------------------------------
  Velocity S-wave (km/s)  =       4.12274       4.30092       4.21277
  Velocity P-wave (km/s)  =       7.31386       7.44942       7.38195
-------------------------------------------------------------------------------
  Compressibility (1/GPa) =    0.01628909
-------------------------------------------------------------------------------
  Stress axis :                     x             y             z
-------------------------------------------------------------------------------
  Youngs Moduli (GPa)     =      65.35947      65.35947      65.35947
-------------------------------------------------------------------------------
  Poissons Ratio (x)      =                     0.32256       0.32256
  Poissons Ratio (y)      =       0.32256                     0.32256
  Poissons Ratio (z)      =       0.32256       0.32256
-------------------------------------------------------------------------------


  Piezoelectric Strain Matrix: (Units=C/m**2)

-------------------------------------------------------------------------------
  Indices      1         2         3         4         5         6    
-------------------------------------------------------------------------------
       x     0.00000  -0.00000  -0.00000   0.00000   0.00000  -0.00000
       y    -0.00000   0.00000   0.00000  -0.00000   0.00000  -0.00000
       z    -0.00000   0.00000   0.00000   0.00000  -0.00000   0.00000
-------------------------------------------------------------------------------


  Piezoelectric Stress Matrix: (Units=10**-11 C/N)

-------------------------------------------------------------------------------
  Indices      1         2         3         4         5         6    
-------------------------------------------------------------------------------
       x     0.00000  -0.00000  -0.00000   0.00000   0.00000  -0.00000
       y    -0.00000   0.00000   0.00000  -0.00000   0.00000  -0.00000
       z    -0.00000  -0.00000   0.00000   0.00000  -0.00000   0.00000
-------------------------------------------------------------------------------


  Static dielectric constant tensor : 

-------------------------------------------------------------------------------
              x         y         z
-------------------------------------------------------------------------------
       x    12.11703  -0.00000   0.00000
       y    -0.00000  12.11703   0.00000
       z     0.00000   0.00000  12.11703
--------------------------------------------------------------------------------

  High frequency dielectric constant tensor : 

-------------------------------------------------------------------------------
              x         y         z
-------------------------------------------------------------------------------
       x     1.74104  -0.00000   0.00000
       y    -0.00000   1.74104   0.00000
       z     0.00000   0.00000   1.74104
-------------------------------------------------------------------------------

  Static refractive indices : 

-------------------------------------------------------------------------------
    1 =    3.48095      2 =    3.48095      3 =    3.48095
-------------------------------------------------------------------------------

  High frequency refractive indices : 

-------------------------------------------------------------------------------
    1 =    1.31948      2 =    1.31948      3 =    1.31948
-------------------------------------------------------------------------------


  Time to end of optimisation =       0.0138 seconds

********************************************************************************
*  Defect calculation for configuration   1 :                                  *
********************************************************************************

  Total number of defects =      3

  Total charge on defect  =   2.00

  Defect centre is at   0.1959   0.1959   0.0000  Angs

  Region 1 radius =  20.0000      Number of ions =   3894

  Number of symmetry inequivalent region 1 ions  =   1132

  Region 2 radius =  24.0000      Number of ions =   2802

  Number of symmetry inequivalent region 2a ions =    768

  Region 2a mode = 4 : screened electrostatics due to region 1 
                       neglect correction to region 1 forces from 2a
                       region 2a displacements based on defects only

  Region 2a ions will only interact with defects in region 1

  Vacancies:

--------------------------------------------------------------------------------
    Specification type     Symbol/Number         x          y          z
--------------------------------------------------------------------------------
    Cartesian                                0.000000   0.000000   0.000000
    Cartesian                                3.918873   3.918873   0.000000
--------------------------------------------------------------------------------

  Interstitials:

--------------------------------------------------------------------------------
    Specification type     Symbol/Number         x          y          z
--------------------------------------------------------------------------------
    Atom/Cartesian          O                0.195944   0.195944   0.000000
--------------------------------------------------------------------------------


  Symmetry reduced region 1 (Relative to defect centre) :

--------------------------------------------------------------------------------
   No.   Atomic       x            y             z       Radius  Multiplicity   
         Label      (Angs)       (Angs)        (Angs)    (Angs)     
--------------------------------------------------------------------------------
     1  O     c      0.0000       0.0000       0.0000    0.0000     1    Defect
     2  Li    c      1.7644 *    -0.1959 *     0.0000    0.0000     2          
     3  Li    c     -0.1959 *    -0.1959      -1.9603 *  0.0000     2          
     4  Li    c     -2.1563 *    -0.1959 *     0.0000    0.0000     2          
     5  Cl    c      1.7644 *     1.7644      -1.9603 *  0.0000     2          
     6  Cl    c     -2.1563 *     1.7644 *    -1.9603 *  0.0000     4          
     7  Cl    c     -2.1563 *    -2.1563      -1.9603 *  0.0000     2          
     8  O     c     -0.1959 *     3.7247 *     0.0000    0.0000     2          
     9  O     c     -0.1959 *    -0.1959       3.9207 *  0.0000     2          
    10  O     c     -0.1959 *    -4.1166 *     0.0000    0.0000     2          
    11  Li    c      1.7644 *     3.7247 *     0.0000    0.0000     2          
    12  Li    c     -0.1959 *     3.7247 *    -1.9603 *  0.0000     4          
    13  Li    c     -2.1563 *     3.7247 *     0.0000    0.0000     2          
    14  Li    c      1.7644 *    -0.1959 *     3.9207 *  0.0000     4          
    15  Li    c     -2.1563 *    -0.1959 *     3.9207 *  0.0000     4          
    16  Li    c      1.7644 *    -4.1166 *     0.0000    0.0000     2          
    17  Li    c     -0.1959 *    -4.1166 *    -1.9603 *  0.0000     4          
    18  Li    c     -2.1563 *    -4.1166 *     0.0000    0.0000     2          
    19  O     c     -0.1959 *     3.7247 *     3.9207 *  0.0000     4          
    20  O     c      3.7247 *    -4.1166 *     0.0000    0.0000     2          
    21  Li    c      3.7247 *     3.7247      -1.9603 *  0.0000     2          
    22  O     c     -0.1959 *    -4.1166 *     3.9207 *  0.0000     4          
    23  Li    c      5.6851 *    -0.1959 *     0.0000    0.0000     2          
    24  Li    c      1.7644 *     3.7247 *     3.9207 *  0.0000     4          
    25  O     c     -4.1166 *    -4.1166       0.0000    0.0000     1          
    26  Li    c     -2.1563 *     3.7247 *     3.9207 *  0.0000     4          
    27  Li    c     -0.1959 *    -0.1959       5.8810 *  0.0000     2          
    28  Li    c      3.7247 *    -4.1166 *    -1.9603 *  0.0000     4          
    29  Li    c      1.7644 *    -4.1166 *     3.9207 *  0.0000     4          
    30  Li    c     -6.0770 *    -0.1959 *     0.0000    0.0000     2          
    31  Li    c     -2.1563 *    -4.1166 *     3.9207 *  0.0000     4          
    32  Li    c     -4.1166 *    -4.1166      -1.9603 *  0.0000     2          
    33  Cl    c      1.7644 *     5.6851 *    -1.9603 *  0.0000     4          
    34  Cl    c     -2.1563 *     5.6851 *    -1.9603 *  0.0000     4          
    35  Cl    c      1.7644 *     1.7644       5.8810 *  0.0000     2          
    36  Cl    c     -2.1563 *     1.7644 *     5.8810 *  0.0000     4          
    37  O     c      3.7247 *     3.7247       3.9207 *  0.0000     2          
    38  Cl    c     -2.1563 *    -2.1563       5.8810 *  0.0000     2          
    39  Cl    c      1.7644 *    -6.0770 *    -1.9603 *  0.0000     4          
    40  Cl    c     -2.1563 *    -6.0770 *    -1.9603 *  0.0000     4          
    41  O     c      3.7247 *    -4.1166 *     3.9207 *  0.0000     4          
    42  Li    c      5.6851 *     3.7247 *     0.0000    0.0000     2          
    43  Li    c      5.6851 *    -0.1959 *     3.9207 *  0.0000     4          
    44  Li    c     -0.1959 *     3.7247 *     5.8810 *  0.0000     4          
    45  O     c     -4.1166 *    -4.1166       3.9207 *  0.0000     2          
    46  Li    c      5.6851 *    -4.1166 *     0.0000    0.0000     2          
    47  Li    c     -6.0770 *     3.7247 *     0.0000    0.0000     2          
    48  Li    c     -0.1959 *    -4.1166 *     5.8810 *  0.0000     4          
    49  Li    c     -6.0770 *    -0.1959 *     3.9207 *  0.0000     4          
    50  Li    c     -6.0770 *    -4.1166 *     0.0000    0.0000     2          
    51  O     c     -0.1959 *     7.6454 *     0.0000    0.0000     2          
    52  O     c     -0.1959 *    -0.1959       7.8414 *  0.0000     2          
    53  Li    c      5.6851 *     3.7247 *     3.9207 *  0.0000     4          
    54  Li    c      1.7644 *     7.6454 *     0.0000    0.0000     2          
    55  Li    c     -0.1959 *     7.6454 *    -1.9603 *  0.0000     4          
    56  Li    c      3.7247 *     3.7247       5.8810 *  0.0000     2          
    57  Li    c     -2.1563 *     7.6454 *     0.0000    0.0000     2          
    58  O     c     -0.1959 *    -8.0373 *     0.0000    0.0000     2          
    59  Li    c      1.7644 *    -0.1959 *     7.8414 *  0.0000     4          
    60  Li    c      5.6851 *    -4.1166 *     3.9207 *  0.0000     4          
    61  Li    c      3.7247 *    -4.1166 *     5.8810 *  0.0000     4          
    62  Li    c     -6.0770 *     3.7247 *     3.9207 *  0.0000     4          
    63  Li    c     -2.1563 *    -0.1959 *     7.8414 *  0.0000     4          
    64  Li    c      1.7644 *    -8.0373 *     0.0000    0.0000     2          
    65  Li    c     -0.1959 *    -8.0373 *    -1.9603 *  0.0000     4          
    66  Li    c     -4.1166 *    -4.1166       5.8810 *  0.0000     2          
    67  Cl    c      5.6851 *     5.6851      -1.9603 *  0.0000     2          
    68  Li    c     -2.1563 *    -8.0373 *     0.0000    0.0000     2          
    69  Li    c     -6.0770 *    -4.1166 *     3.9207 *  0.0000     4          
    70  Cl    c      1.7644 *     5.6851 *     5.8810 *  0.0000     4          
    71  Cl    c     -2.1563 *     5.6851 *     5.8810 *  0.0000     4          
    72  O     c      3.7247 *     7.6454 *     0.0000    0.0000     2          
    73  Cl    c      5.6851 *    -6.0770 *    -1.9603 *  0.0000     4          
    74  O     c     -0.1959 *     7.6454 *     3.9207 *  0.0000     4          
    75  Cl    c      1.7644 *    -6.0770 *     5.8810 *  0.0000     4          
    76  O     c     -0.1959 *     3.7247 *     7.8414 *  0.0000     4          
    77  O     c      7.6454 *    -4.1166 *     0.0000    0.0000     2          
    78  Cl    c     -2.1563 *    -6.0770 *     5.8810 *  0.0000     4          
    79  Li    c      3.7247 *     7.6454 *    -1.9603 *  0.0000     4          
    80  Li    c      1.7644 *     7.6454 *     3.9207 *  0.0000     4          
    81  Cl    c     -6.0770 *    -6.0770      -1.9603 *  0.0000     2          
    82  O     c      3.7247 *    -8.0373 *     0.0000    0.0000     2          
    83  O     c     -0.1959 *    -4.1166 *     7.8414 *  0.0000     4          
    84  Li    c     -2.1563 *     7.6454 *     3.9207 *  0.0000     4          
    85  Li    c      1.7644 *     3.7247 *     7.8414 *  0.0000     4          
    86  Li    c      7.6454 *    -4.1166 *    -1.9603 *  0.0000     4          
    87  O     c     -0.1959 *    -8.0373 *     3.9207 *  0.0000     4          
    88  Li    c     -2.1563 *     3.7247 *     7.8414 *  0.0000     4          
    89  O     c     -4.1166 *    -8.0373 *     0.0000    0.0000     2          
    90  Li    c      1.7644 *    -4.1166 *     7.8414 *  0.0000     4          
    91  Li    c      3.7247 *    -8.0373 *    -1.9603 *  0.0000     4          
    92  Li    c     -2.1563 *    -4.1166 *     7.8414 *  0.0000     4          
    93  Li    c      1.7644 *    -8.0373 *     3.9207 *  0.0000     4          
    94  Li    c     -2.1563 *    -8.0373 *     3.9207 *  0.0000     4          
    95  Li    c     -4.1166 *    -8.0373 *    -1.9603 *  0.0000     4          
    96  O     c      3.7247 *     7.6454 *     3.9207 *  0.0000     4          
    97  O     c      3.7247 *     3.7247       7.8414 *  0.0000     2          
    98  O     c      7.6454 *    -4.1166 *     3.9207 *  0.0000     4          
    99  Li    c      5.6851 *     7.6454 *     0.0000    0.0000     2          
   100  O     c      3.7247 *    -4.1166 *     7.8414 *  0.0000     4          
   101  Li    c      9.6057 *    -0.1959 *     0.0000    0.0000     2          
   102  Li    c     -0.1959 *     7.6454 *     5.8810 *  0.0000     4          
   103  O     c      3.7247 *    -8.0373 *     3.9207 *  0.0000     4          
   104  Li    c      5.6851 *    -0.1959 *     7.8414 *  0.0000     4          
   105  O     c     -4.1166 *    -4.1166       7.8414 *  0.0000     2          
   106  Li    c     -6.0770 *     7.6454 *     0.0000    0.0000     2          
   107  Li    c     -0.1959 *    -0.1959       9.8017 *  0.0000     2          
   108  O     c     -4.1166 *    -8.0373 *     3.9207 *  0.0000     4          
   109  Li    c      5.6851 *    -8.0373 *     0.0000    0.0000     2          
   110  Li    c     -6.0770 *    -0.1959 *     7.8414 *  0.0000     4          
   111  Li    c     -0.1959 *    -8.0373 *     5.8810 *  0.0000     4          
   112  Cl    c      1.7644 *     9.6057 *    -1.9603 *  0.0000     4          
   113  Cl    c      5.6851 *     5.6851       5.8810 *  0.0000     2          
   114  Li    c     -9.9976 *    -0.1959 *     0.0000    0.0000     2          
   115  Cl    c     -2.1563 *     9.6057 *    -1.9603 *  0.0000     4          
   116  Li    c     -6.0770 *    -8.0373 *     0.0000    0.0000     2          
   117  Cl    c      1.7644 *     1.7644       9.8017 *  0.0000     2          
   118  Cl    c     -2.1563 *     1.7644 *     9.8017 *  0.0000     4          
   119  Cl    c      5.6851 *    -6.0770 *     5.8810 *  0.0000     4          
   120  Cl    c     -2.1563 *    -2.1563       9.8017 *  0.0000     2          
   121  Li    c      9.6057 *     3.7247 *     0.0000    0.0000     2          
   122  Li    c      5.6851 *     7.6454 *     3.9207 *  0.0000     4          
   123  Cl    c      1.7644 *    -9.9976 *    -1.9603 *  0.0000     4          
   124  Li    c      3.7247 *     7.6454 *     5.8810 *  0.0000     4          
   125  Li    c      5.6851 *     3.7247 *     7.8414 *  0.0000     4          
   126  Li    c      9.6057 *    -0.1959 *     3.9207 *  0.0000     4          
   127  Cl    c     -2.1563 *    -9.9976 *    -1.9603 *  0.0000     4          
   128  Cl    c     -6.0770 *    -6.0770       5.8810 *  0.0000     2          
   129  Li    c      9.6057 *    -4.1166 *     0.0000    0.0000     2          
   130  Li    c     -0.1959 *     3.7247 *     9.8017 *  0.0000     4          
   131  Li    c      7.6454 *    -4.1166 *     5.8810 *  0.0000     4          
   132  Li    c     -6.0770 *     7.6454 *     3.9207 *  0.0000     4          
   133  Li    c      5.6851 *    -4.1166 *     7.8414 *  0.0000     4          
   134  Li    c      5.6851 *    -8.0373 *     3.9207 *  0.0000     4          
   135  Li    c     -6.0770 *     3.7247 *     7.8414 *  0.0000     4          
   136  Li    c     -0.1959 *    -4.1166 *     9.8017 *  0.0000     4          
   137  Li    c      3.7247 *    -8.0373 *     5.8810 *  0.0000     4          
   138  Li    c     -9.9976 *     3.7247 *     0.0000    0.0000     2          
   139  Li    c     -9.9976 *    -0.1959 *     3.9207 *  0.0000     4          
   140  Li    c     -6.0770 *    -4.1166 *     7.8414 *  0.0000     4          
   141  Li    c     -4.1166 *    -8.0373 *     5.8810 *  0.0000     4          
   142  Li    c     -9.9976 *    -4.1166 *     0.0000    0.0000     2          
   143  Li    c     -6.0770 *    -8.0373 *     3.9207 *  0.0000     4          
   144  O     c      7.6454 *     7.6454       0.0000    0.0000     1          
   145  O     c     -0.1959 *     7.6454 *     7.8414 *  0.0000     4          
   146  Li    c      7.6454 *     7.6454      -1.9603 *  0.0000     2          
   147  Li    c      9.6057 *     3.7247 *     3.9207 *  0.0000     4          
   148  O     c      7.6454 *    -8.0373 *     0.0000    0.0000     2          
   149  Li    c      1.7644 *     7.6454 *     7.8414 *  0.0000     4          
   150  Li    c      3.7247 *     3.7247       9.8017 *  0.0000     2          
   151  Li    c      9.6057 *    -4.1166 *     3.9207 *  0.0000     4          
   152  Li    c     -2.1563 *     7.6454 *     7.8414 *  0.0000     4          
   153  O     c     -0.1959 *    -8.0373 *     7.8414 *  0.0000     4          
   154  Li    c      3.7247 *    -4.1166 *     9.8017 *  0.0000     4          
   155  Li    c      7.6454 *    -8.0373 *    -1.9603 *  0.0000     4          
   156  Cl    c      5.6851 *     9.6057 *    -1.9603 *  0.0000     4          
   157  O     c     -8.0373 *    -8.0373       0.0000    0.0000     1          
   158  Li    c      1.7644 *    -8.0373 *     7.8414 *  0.0000     4          
   159  Li    c     -9.9976 *     3.7247 *     3.9207 *  0.0000     4          
   160  Li    c     -4.1166 *    -4.1166       9.8017 *  0.0000     2          
   161  Cl    c      1.7644 *     9.6057 *     5.8810 *  0.0000     4          
   162  Li    c     -2.1563 *    -8.0373 *     7.8414 *  0.0000     4          
   163  Cl    c     -2.1563 *     9.6057 *     5.8810 *  0.0000     4          
   164  Cl    c      1.7644 *     5.6851 *     9.8017 *  0.0000     4          
   165  Li    c     -9.9976 *    -4.1166 *     3.9207 *  0.0000     4          
   166  O     c      7.6454 *     7.6454       3.9207 *  0.0000     2          
   167  Li    c     -8.0373 *    -8.0373      -1.9603 *  0.0000     2          
   168  Cl    c     -2.1563 *     5.6851 *     9.8017 *  0.0000     4          
   169  Cl    c      9.6057 *    -6.0770 *    -1.9603 *  0.0000     4          
   170  O     c     -0.1959 *    11.5661 *     0.0000    0.0000     2          
   171  O     c      3.7247 *     7.6454 *     7.8414 *  0.0000     4          
   172  Cl    c      1.7644 *    -6.0770 *     9.8017 *  0.0000     4          
   173  Cl    c      5.6851 *    -9.9976 *    -1.9603 *  0.0000     4          
   174  O     c      7.6454 *    -4.1166 *     7.8414 *  0.0000     4          
   175  Li    c      1.7644 *    11.5661 *     0.0000    0.0000     2          
   176  Cl    c     -2.1563 *    -6.0770 *     9.8017 *  0.0000     4          
   177  Cl    c      1.7644 *    -9.9976 *     5.8810 *  0.0000     4          
   178  Li    c     -0.1959 *    11.5661 *    -1.9603 *  0.0000     4          
   179  O     c      7.6454 *    -8.0373 *     3.9207 *  0.0000     4          
   180  O     c     -0.1959 *    -0.1959      11.7620 *  0.0000     2          
   181  Li    c     -2.1563 *    11.5661 *     0.0000    0.0000     2          
   182  Cl    c     -2.1563 *    -9.9976 *     5.8810 *  0.0000     4          
   183  O     c      3.7247 *    -8.0373 *     7.8414 *  0.0000     4          
   184  Cl    c     -6.0770 *    -9.9976 *    -1.9603 *  0.0000     4          
   185  Li    c      1.7644 *    -0.1959 *    11.7620 *  0.0000     4          
   186  O     c     -0.1959 *   -11.9580 *     0.0000    0.0000     2          
   187  O     c     -4.1166 *    -8.0373 *     7.8414 *  0.0000     4          
   188  Li    c     -2.1563 *    -0.1959 *    11.7620 *  0.0000     4          
   189  O     c     -8.0373 *    -8.0373       3.9207 *  0.0000     2          
   190  Li    c      1.7644 *   -11.9580 *     0.0000    0.0000     2          
   191  Li    c     -0.1959 *   -11.9580 *    -1.9603 *  0.0000     4          
   192  Li    c     -2.1563 *   -11.9580 *     0.0000    0.0000     2          
   193  O     c      3.7247 *    11.5661 *     0.0000    0.0000     2          
   194  O     c     -0.1959 *    11.5661 *     3.9207 *  0.0000     4          
   195  O     c     11.5661 *    -4.1166 *     0.0000    0.0000     2          
   196  Li    c      9.6057 *     7.6454 *     0.0000    0.0000     2          
   197  Li    c      3.7247 *    11.5661 *    -1.9603 *  0.0000     4          
   198  Li    c      7.6454 *     7.6454       5.8810 *  0.0000     2          
   199  O     c     -0.1959 *     3.7247 *    11.7620 *  0.0000     4          
   200  Li    c      1.7644 *    11.5661 *     3.9207 *  0.0000     4          
   201  Li    c      5.6851 *     7.6454 *     7.8414 *  0.0000     4          
   202  Li    c     -2.1563 *    11.5661 *     3.9207 *  0.0000     4          
   203  Li    c      9.6057 *    -0.1959 *     7.8414 *  0.0000     4          
   204  Li    c     -0.1959 *     7.6454 *     9.8017 *  0.0000     4          
   205  Li    c     11.5661 *    -4.1166 *    -1.9603 *  0.0000     4          
   206  O     c     -0.1959 *    -4.1166 *    11.7620 *  0.0000     4          
   207  Li    c      1.7644 *     3.7247 *    11.7620 *  0.0000     4          
   208  O     c      3.7247 *   -11.9580 *     0.0000    0.0000     2          
   209  Li    c      9.6057 *    -8.0373 *     0.0000    0.0000     2          
   210  Li    c     -2.1563 *     3.7247 *    11.7620 *  0.0000     4          
   211  Li    c     -6.0770 *     7.6454 *     7.8414 *  0.0000     4          
   212  Li    c      7.6454 *    -8.0373 *     5.8810 *  0.0000     4          
   213  O     c     -0.1959 *   -11.9580 *     3.9207 *  0.0000     4          
   214  Li    c     -9.9976 *     7.6454 *     0.0000    0.0000     2          
   215  Li    c      1.7644 *    -4.1166 *    11.7620 *  0.0000     4          
   216  Li    c      5.6851 *    -8.0373 *     7.8414 *  0.0000     4          
   217  Cl    c      5.6851 *     9.6057 *     5.8810 *  0.0000     4          
   218  O     c     -4.1166 *   -11.9580 *     0.0000    0.0000     2          
   219  Li    c     -2.1563 *    -4.1166 *    11.7620 *  0.0000     4          
   220  Li    c     -0.1959 *    -8.0373 *     9.8017 *  0.0000     4          
   221  Li    c      3.7247 *   -11.9580 *    -1.9603 *  0.0000     4          
   222  Cl    c      5.6851 *     5.6851       9.8017 *  0.0000     2          
   223  Li    c      1.7644 *   -11.9580 *     3.9207 *  0.0000     4          
   224  Li    c     -9.9976 *    -0.1959 *     7.8414 *  0.0000     4          
   225  Li    c     -2.1563 *   -11.9580 *     3.9207 *  0.0000     4          
   226  Li    c     -6.0770 *    -8.0373 *     7.8414 *  0.0000     4          
   227  O     c      3.7247 *    11.5661 *     3.9207 *  0.0000     4          
   228  Li    c     -8.0373 *    -8.0373       5.8810 *  0.0000     2          
   229  Li    c     -4.1166 *   -11.9580 *    -1.9603 *  0.0000     4          
   230  Cl    c      9.6057 *    -6.0770 *     5.8810 *  0.0000     4          
   231  Li    c     -9.9976 *    -8.0373 *     0.0000    0.0000     2          
   232  Cl    c      5.6851 *    -6.0770 *     9.8017 *  0.0000     4          
   233  O     c      3.7247 *     3.7247      11.7620 *  0.0000     2          
   234  O     c     11.5661 *    -4.1166 *     3.9207 *  0.0000     4          
   235  Li    c      9.6057 *     7.6454 *     3.9207 *  0.0000     4          
   236  Li    c      5.6851 *    11.5661 *     0.0000    0.0000     2          
   237  Cl    c      5.6851 *    -9.9976 *     5.8810 *  0.0000     4          
   238  Li    c      9.6057 *     3.7247 *     7.8414 *  0.0000     4          
   239  Li    c     -0.1959 *    11.5661 *     5.8810 *  0.0000     4          
   240  Li    c      3.7247 *     7.6454 *     9.8017 *  0.0000     4          
   241  O     c      3.7247 *    -4.1166 *    11.7620 *  0.0000     4          
   242  Cl    c     -6.0770 *    -6.0770       9.8017 *  0.0000     2          
   243  Li    c      9.6057 *    -4.1166 *     7.8414 *  0.0000     4          
   244  Li    c      5.6851 *    -0.1959 *    11.7620 *  0.0000     4          
   245  Li    c     -6.0770 *    11.5661 *     0.0000    0.0000     2          
   246  Cl    c     -6.0770 *    -9.9976 *     5.8810 *  0.0000     4          
   247  Li    c      7.6454 *    -4.1166 *     9.8017 *  0.0000     4          
   248  O     c      3.7247 *   -11.9580 *     3.9207 *  0.0000     4          
   249  O     c     -4.1166 *    -4.1166      11.7620 *  0.0000     2          
   250  Li    c      9.6057 *    -8.0373 *     3.9207 *  0.0000     4          
   251  Li    c     -9.9976 *     7.6454 *     3.9207 *  0.0000     4          
   252  Li    c      3.7247 *    -8.0373 *     9.8017 *  0.0000     4          
   253  O     c     -4.1166 *   -11.9580 *     3.9207 *  0.0000     4          
   254  Li    c     -9.9976 *     3.7247 *     7.8414 *  0.0000     4          
   255  Li    c      5.6851 *   -11.9580 *     0.0000    0.0000     2          
   256  Li    c     -6.0770 *    -0.1959 *    11.7620 *  0.0000     4          
   257  Li    c     -0.1959 *   -11.9580 *     5.8810 *  0.0000     4          
   258  Li    c     -4.1166 *    -8.0373 *     9.8017 *  0.0000     4          
   259  Li    c     -9.9976 *    -4.1166 *     7.8414 *  0.0000     4          
   260  O     c      7.6454 *     7.6454       7.8414 *  0.0000     2          
   261  Li    c     -9.9976 *    -8.0373 *     3.9207 *  0.0000     4          
   262  Li    c     -6.0770 *   -11.9580 *     0.0000    0.0000     2          
   263  Li    c      5.6851 *    11.5661 *     3.9207 *  0.0000     4          
   264  Li    c      3.7247 *    11.5661 *     5.8810 *  0.0000     4          
   265  Li    c     13.5264 *    -0.1959 *     0.0000    0.0000     2          
   266  O     c      7.6454 *    -8.0373 *     7.8414 *  0.0000     4          
   267  Li    c      5.6851 *     3.7247 *    11.7620 *  0.0000     4          
   268  Li    c     11.5661 *    -4.1166 *     5.8810 *  0.0000     4          
   269  Li    c     -6.0770 *    11.5661 *     3.9207 *  0.0000     4          
   270  Li    c      5.6851 *    -4.1166 *    11.7620 *  0.0000     4          
   271  Li    c     -0.1959 *    -0.1959      13.7224 *  0.0000     2          
   272  Cl    c      9.6057 *     9.6057      -1.9603 *  0.0000     2          
   273  Li    c     -6.0770 *     3.7247 *    11.7620 *  0.0000     4          
   274  Cl    c      1.7644 *    13.5264 *    -1.9603 *  0.0000     4          
   275  O     c     -8.0373 *    -8.0373       7.8414 *  0.0000     2          
   276  Li    c      5.6851 *   -11.9580 *     3.9207 *  0.0000     4          
   277  Li    c      3.7247 *   -11.9580 *     5.8810 *  0.0000     4          
   278  Cl    c     -2.1563 *    13.5264 *    -1.9603 *  0.0000     4          
   279  Cl    c      1.7644 *     9.6057 *     9.8017 *  0.0000     4          
   280  Li    c     -6.0770 *    -4.1166 *    11.7620 *  0.0000     4          
   281  O     c      7.6454 *    11.5661 *     0.0000    0.0000     2          
   282  Cl    c     -2.1563 *     9.6057 *     9.8017 *  0.0000     4          
   283  Li    c    -13.9183 *    -0.1959 *     0.0000    0.0000     2          
   284  Li    c     -4.1166 *   -11.9580 *     5.8810 *  0.0000     4          
   285  Cl    c      1.7644 *     1.7644      13.7224 *  0.0000     2          
   286  Li    c     -6.0770 *   -11.9580 *     3.9207 *  0.0000     4          
   287  O     c     -0.1959 *    11.5661 *     7.8414 *  0.0000     4          
   288  Cl    c      9.6057 *    -9.9976 *    -1.9603 *  0.0000     4          
   289  Cl    c     -2.1563 *     1.7644 *    13.7224 *  0.0000     4          
   290  Li    c      7.6454 *    11.5661 *    -1.9603 *  0.0000     4          
   291  O     c     -0.1959 *     7.6454 *    11.7620 *  0.0000     4          
   292  Li    c     13.5264 *     3.7247 *     0.0000    0.0000     2          
   293  Cl    c     -2.1563 *    -2.1563      13.7224 *  0.0000     2          
   294  O     c     11.5661 *    -8.0373 *     0.0000    0.0000     2          
   295  Li    c     13.5264 *    -0.1959 *     3.9207 *  0.0000     4          
   296  Li    c      1.7644 *    11.5661 *     7.8414 *  0.0000     4          
   297  Cl    c      1.7644 *    -9.9976 *     9.8017 *  0.0000     4          
   298  Li    c     -2.1563 *    11.5661 *     7.8414 *  0.0000     4          
   299  Li    c     13.5264 *    -4.1166 *     0.0000    0.0000     2          
   300  Li    c      1.7644 *     7.6454 *    11.7620 *  0.0000     4          
   301  Cl    c     -2.1563 *    -9.9976 *     9.8017 *  0.0000     4          
   302  Cl    c      1.7644 *   -13.9183 *    -1.9603 *  0.0000     4          
   303  O     c      7.6454 *   -11.9580 *     0.0000    0.0000     2          
   304  Li    c     -2.1563 *     7.6454 *    11.7620 *  0.0000     4          
   305  Cl    c     -2.1563 *   -13.9183 *    -1.9603 *  0.0000     4          
   306  Li    c     -0.1959 *     3.7247 *    13.7224 *  0.0000     4          
   307  Li    c     11.5661 *    -8.0373 *    -1.9603 *  0.0000     4          
   308  O     c     -0.1959 *    -8.0373 *    11.7620 *  0.0000     4          
   309  Cl    c     -9.9976 *    -9.9976      -1.9603 *  0.0000     2          
   310  O     c     -0.1959 *   -11.9580 *     7.8414 *  0.0000     4          
   311  Li    c     -0.1959 *    -4.1166 *    13.7224 *  0.0000     4          
   312  Li    c      7.6454 *   -11.9580 *    -1.9603 *  0.0000     4          
   313  Li    c      1.7644 *    -8.0373 *    11.7620 *  0.0000     4          
   314  O     c     -8.0373 *   -11.9580 *     0.0000    0.0000     2          
   315  Li    c      1.7644 *   -11.9580 *     7.8414 *  0.0000     4          
   316  Li    c    -13.9183 *     3.7247 *     0.0000    0.0000     2          
   317  Li    c     -2.1563 *    -8.0373 *    11.7620 *  0.0000     4          
   318  O     c      7.6454 *    11.5661 *     3.9207 *  0.0000     4          
   319  Li    c    -13.9183 *    -0.1959 *     3.9207 *  0.0000     4          
   320  Li    c     -2.1563 *   -11.9580 *     7.8414 *  0.0000     4          
   321  O     c      3.7247 *    11.5661 *     7.8414 *  0.0000     4          
   322  Li    c    -13.9183 *    -4.1166 *     0.0000    0.0000     2          
   323  O     c      3.7247 *     7.6454 *    11.7620 *  0.0000     4          
   324  Li    c     -8.0373 *   -11.9580 *    -1.9603 *  0.0000     4          
   325  O     c     11.5661 *    -4.1166 *     7.8414 *  0.0000     4          
   326  Li    c      9.6057 *     7.6454 *     7.8414 *  0.0000     4          
   327  Li    c     13.5264 *     3.7247 *     3.9207 *  0.0000     4          
   328  Li    c      7.6454 *     7.6454       9.8017 *  0.0000     2          
   329  O     c     11.5661 *    -8.0373 *     3.9207 *  0.0000     4          
   330  O     c      7.6454 *    -4.1166 *    11.7620 *  0.0000     4          
   331  Li    c     13.5264 *    -4.1166 *     3.9207 *  0.0000     4          
   332  Li    c      3.7247 *     3.7247      13.7224 *  0.0000     2          
   333  O     c      7.6454 *   -11.9580 *     3.9207 *  0.0000     4          
   334  O     c      3.7247 *    -8.0373 *    11.7620 *  0.0000     4          
   335  O     c      3.7247 *   -11.9580 *     7.8414 *  0.0000     4          
   336  Li    c      9.6057 *    -8.0373 *     7.8414 *  0.0000     4          
   337  Li    c      3.7247 *    -4.1166 *    13.7224 *  0.0000     4          
   338  Li    c      7.6454 *    -8.0373 *     9.8017 *  0.0000     4          
   339  Cl    c      9.6057 *     9.6057       5.8810 *  0.0000     2          
   340  Cl    c      5.6851 *    13.5264 *    -1.9603 *  0.0000     4          
   341  O     c     -4.1166 *    -8.0373 *    11.7620 *  0.0000     4          
   342  Li    c     -9.9976 *     7.6454 *     7.8414 *  0.0000     4          
   343  Cl    c      1.7644 *    13.5264 *     5.8810 *  0.0000     4          
   344  Cl    c      5.6851 *     9.6057 *     9.8017 *  0.0000     4          
   345  O     c     -4.1166 *   -11.9580 *     7.8414 *  0.0000     4          
   346  Li    c     -4.1166 *    -4.1166      13.7224 *  0.0000     2          
   347  Cl    c     -2.1563 *    13.5264 *     5.8810 *  0.0000     4          
   348  O     c     -8.0373 *   -11.9580 *     3.9207 *  0.0000     4          
   349  Li    c    -13.9183 *     3.7247 *     3.9207 *  0.0000     4          
   350  Cl    c      1.7644 *     5.6851 *    13.7224 *  0.0000     4          
   351  Cl    c     13.5264 *    -6.0770 *    -1.9603 *  0.0000     4          
   352  Li    c     -8.0373 *    -8.0373       9.8017 *  0.0000     2          
   353  Cl    c     -2.1563 *     5.6851 *    13.7224 *  0.0000     4          
   354  Cl    c      9.6057 *    -6.0770 *     9.8017 *  0.0000     4          
   355  Li    c     -9.9976 *    -8.0373 *     7.8414 *  0.0000     4          
   356  Li    c    -13.9183 *    -4.1166 *     3.9207 *  0.0000     4          
   357  Li    c      9.6057 *    11.5661 *     0.0000    0.0000     2          
   358  Cl    c      9.6057 *    -9.9976 *     5.8810 *  0.0000     4          
   359  Li    c      7.6454 *    11.5661 *     5.8810 *  0.0000     4          
   360  Li    c      5.6851 *    11.5661 *     7.8414 *  0.0000     4          
   361  Cl    c      1.7644 *    -6.0770 *    13.7224 *  0.0000     4          
   362  Cl    c      5.6851 *    -9.9976 *     9.8017 *  0.0000     4          
   363  Li    c      5.6851 *     7.6454 *    11.7620 *  0.0000     4          
   364  Cl    c     -2.1563 *    -6.0770 *    13.7224 *  0.0000     4          
   365  Cl    c      5.6851 *   -13.9183 *    -1.9603 *  0.0000     4          
   366  Li    c     -0.1959 *    11.5661 *     9.8017 *  0.0000     4          
   367  Li    c      9.6057 *    -0.1959 *    11.7620 *  0.0000     4          
   368  Cl    c      1.7644 *   -13.9183 *     5.8810 *  0.0000     4          
   369  Li    c     -6.0770 *    11.5661 *     7.8414 *  0.0000     4          
   370  Cl    c     -2.1563 *   -13.9183 *     5.8810 *  0.0000     4          
   371  Cl    c     -6.0770 *    -9.9976 *     9.8017 *  0.0000     4          
   372  Li    c     11.5661 *    -8.0373 *     5.8810 *  0.0000     4          
   373  Li    c     -9.9976 *    11.5661 *     0.0000    0.0000     2          
   374  Li    c     -6.0770 *     7.6454 *    11.7620 *  0.0000     4          
   375  Cl    c     -9.9976 *    -9.9976       5.8810 *  0.0000     2          
   376  Cl    c     -6.0770 *   -13.9183 *    -1.9603 *  0.0000     4          
   377  Li    c      9.6057 *   -11.9580 *     0.0000    0.0000     2          
   378  Li    c      5.6851 *    -8.0373 *    11.7620 *  0.0000     4          
   379  Li    c      7.6454 *   -11.9580 *     5.8810 *  0.0000     4          
   380  Li    c      5.6851 *   -11.9580 *     7.8414 *  0.0000     4          
   381  Li    c     -9.9976 *    -0.1959 *    11.7620 *  0.0000     4          
   382  Li    c     -0.1959 *   -11.9580 *     9.8017 *  0.0000     4          
   383  Li    c     -6.0770 *    -8.0373 *    11.7620 *  0.0000     4          
   384  O     c     -0.1959 *    15.4868 *     0.0000    0.0000     2          
   385  Li    c     -6.0770 *   -11.9580 *     7.8414 *  0.0000     4          
   386  Li    c      9.6057 *    11.5661 *     3.9207 *  0.0000     4          
   387  Li    c     13.5264 *     7.6454 *     0.0000    0.0000     2          
   388  Li    c     -8.0373 *   -11.9580 *     5.8810 *  0.0000     4          
   389  Li    c     -9.9976 *   -11.9580 *     0.0000    0.0000     2          
   390  Li    c      1.7644 *    15.4868 *     0.0000    0.0000     2          
   391  Li    c     -0.1959 *    15.4868 *    -1.9603 *  0.0000     4          
   392  Li    c      3.7247 *    11.5661 *     9.8017 *  0.0000     4          
   393  Li    c     13.5264 *    -0.1959 *     7.8414 *  0.0000     4          
   394  Li    c     -2.1563 *    15.4868 *     0.0000    0.0000     2          
   395  Li    c      9.6057 *     3.7247 *    11.7620 *  0.0000     4          
   396  O     c     -0.1959 *    -0.1959      15.6827 *  0.0000     2          
   397  Li    c     -0.1959 *     7.6454 *    13.7224 *  0.0000     4          
   398  Li    c     11.5661 *    -4.1166 *     9.8017 *  0.0000     4          
   399  Li    c     13.5264 *    -8.0373 *     0.0000    0.0000     2          
   400  Li    c      9.6057 *    -4.1166 *    11.7620 *  0.0000     4          
   401  Li    c     -9.9976 *    11.5661 *     3.9207 *  0.0000     4          
   402  Li    c      1.7644 *    -0.1959 *    15.6827 *  0.0000     4          
   403  Cl    c      5.6851 *    13.5264 *     5.8810 *  0.0000     4          
   404  Li    c      9.6057 *   -11.9580 *     3.9207 *  0.0000     4          
   405  Li    c     -2.1563 *    -0.1959 *    15.6827 *  0.0000     4          
   406  O     c     -0.1959 *   -15.8786 *     0.0000    0.0000     2          
   407  Li    c    -13.9183 *     7.6454 *     0.0000    0.0000     2          
   408  Li    c     -9.9976 *     3.7247 *    11.7620 *  0.0000     4          
   409  Li    c     -0.1959 *    -8.0373 *    13.7224 *  0.0000     4          
   410  Li    c      3.7247 *   -11.9580 *     9.8017 *  0.0000     4          
   411  Cl    c      5.6851 *     5.6851      13.7224 *  0.0000     2          
   412  O     c      7.6454 *    11.5661 *     7.8414 *  0.0000     4          
   413  O     c      3.7247 *    15.4868 *     0.0000    0.0000     2          
   414  Cl    c     13.5264 *    -6.0770 *     5.8810 *  0.0000     4          
   415  Li    c    -13.9183 *    -0.1959 *     7.8414 *  0.0000     4          
   416  Li    c      1.7644 *   -15.8786 *     0.0000    0.0000     2          
   417  Li    c     -9.9976 *    -4.1166 *    11.7620 *  0.0000     4          
   418  O     c     -0.1959 *    15.4868 *     3.9207 *  0.0000     4          
   419  O     c      7.6454 *     7.6454      11.7620 *  0.0000     2          
   420  Li    c     -0.1959 *   -15.8786 *    -1.9603 *  0.0000     4          
   421  Li    c     -4.1166 *   -11.9580 *     9.8017 *  0.0000     4          
   422  Li    c     -2.1563 *   -15.8786 *     0.0000    0.0000     2          
   423  O     c     15.4868 *    -4.1166 *     0.0000    0.0000     2          
   424  Li    c     13.5264 *     7.6454 *     3.9207 *  0.0000     4          
   425  Cl    c      5.6851 *    -6.0770 *    13.7224 *  0.0000     4          
   426  Li    c      3.7247 *    15.4868 *    -1.9603 *  0.0000     4          
   427  Li    c    -13.9183 *    -8.0373 *     0.0000    0.0000     2          
   428  Li    c     -9.9976 *   -11.9580 *     3.9207 *  0.0000     4          
   429  Li    c      1.7644 *    15.4868 *     3.9207 *  0.0000     4          
   430  Li    c     13.5264 *     3.7247 *     7.8414 *  0.0000     4          
   431  O     c     -0.1959 *     3.7247 *    15.6827 *  0.0000     4          
   432  O     c     11.5661 *    -8.0373 *     7.8414 *  0.0000     4          
   433  Li    c     -2.1563 *    15.4868 *     3.9207 *  0.0000     4          
   434  Cl    c      5.6851 *   -13.9183 *     5.8810 *  0.0000     4          
   435  Li    c      3.7247 *     7.6454 *    13.7224 *  0.0000     4          
   436  Li    c     15.4868 *    -4.1166 *    -1.9603 *  0.0000     4          
   437  O     c      7.6454 *    -8.0373 *    11.7620 *  0.0000     4          
   438  Li    c     13.5264 *    -4.1166 *     7.8414 *  0.0000     4          
   439  Cl    c     -6.0770 *    -6.0770      13.7224 *  0.0000     2          
   440  O     c     -0.1959 *    -4.1166 *    15.6827 *  0.0000     4          
   441  O     c      7.6454 *   -11.9580 *     7.8414 *  0.0000     4          
   442  Li    c     13.5264 *    -8.0373 *     3.9207 *  0.0000     4          
   443  Li    c      1.7644 *     3.7247 *    15.6827 *  0.0000     4          
   444  Li    c      7.6454 *    -4.1166 *    13.7224 *  0.0000     4          
   445  Li    c     -2.1563 *     3.7247 *    15.6827 *  0.0000     4          
   446  Cl    c     -6.0770 *   -13.9183 *     5.8810 *  0.0000     4          
   447  O     c      3.7247 *   -15.8786 *     0.0000    0.0000     2          
   448  Li    c      1.7644 *    -4.1166 *    15.6827 *  0.0000     4          
   449  Li    c      3.7247 *    -8.0373 *    13.7224 *  0.0000     4          
   450  O     c     -0.1959 *   -15.8786 *     3.9207 *  0.0000     4          
   451  O     c     -8.0373 *    -8.0373      11.7620 *  0.0000     2          
   452  Li    c    -13.9183 *     7.6454 *     3.9207 *  0.0000     4          
   453  Li    c     -2.1563 *    -4.1166 *    15.6827 *  0.0000     4          
   454  O     c     11.5661 *    11.5661       0.0000    0.0000     1          
   455  O     c     -4.1166 *   -15.8786 *     0.0000    0.0000     2          
   456  O     c     -8.0373 *   -11.9580 *     7.8414 *  0.0000     4          
   457  Li    c    -13.9183 *     3.7247 *     7.8414 *  0.0000     4          
   458  O     c      3.7247 *    15.4868 *     3.9207 *  0.0000     4          
   459  Li    c      3.7247 *   -15.8786 *    -1.9603 *  0.0000     4          
   460  Li    c     -4.1166 *    -8.0373 *    13.7224 *  0.0000     4          
   461  Li    c      1.7644 *   -15.8786 *     3.9207 *  0.0000     4          
   462  Li    c     11.5661 *    11.5661      -1.9603 *  0.0000     2          
   463  Li    c     -2.1563 *   -15.8786 *     3.9207 *  0.0000     4          
   464  Li    c    -13.9183 *    -4.1166 *     7.8414 *  0.0000     4          
   465  O     c     -0.1959 *    11.5661 *    11.7620 *  0.0000     4          
   466  O     c     15.4868 *    -4.1166 *     3.9207 *  0.0000     4          
   467  Li    c      5.6851 *    15.4868 *     0.0000    0.0000     2          
   468  Li    c     -4.1166 *   -15.8786 *    -1.9603 *  0.0000     4          
   469  Li    c    -13.9183 *    -8.0373 *     3.9207 *  0.0000     4          
   470  O     c      3.7247 *     3.7247      15.6827 *  0.0000     2          
   471  Li    c     -0.1959 *    15.4868 *     5.8810 *  0.0000     4          
   472  Li    c      1.7644 *    11.5661 *    11.7620 *  0.0000     4          
   473  O     c     11.5661 *   -11.9580 *     0.0000    0.0000     2          
   474  O     c      3.7247 *    -4.1166 *    15.6827 *  0.0000     4          
   475  Li    c     -2.1563 *    11.5661 *    11.7620 *  0.0000     4          
   476  Li    c     -6.0770 *    15.4868 *     0.0000    0.0000     2          
   477  Li    c      5.6851 *    -0.1959 *    15.6827 *  0.0000     4          
   478  Cl    c      9.6057 *    13.5264 *    -1.9603 *  0.0000     4          
   479  O     c     -4.1166 *    -4.1166      15.6827 *  0.0000     2          
   480  Li    c     11.5661 *   -11.9580 *    -1.9603 *  0.0000     4          
   481  Cl    c      9.6057 *     9.6057       9.8017 *  0.0000     2          
   482  O     c     -0.1959 *   -11.9580 *    11.7620 *  0.0000     4          
   483  O     c      3.7247 *   -15.8786 *     3.9207 *  0.0000     4          
   484  Cl    c      1.7644 *    13.5264 *     9.8017 *  0.0000     4          
   485  Li    c     -6.0770 *    -0.1959 *    15.6827 *  0.0000     4          
   486  O     c     11.5661 *    11.5661       3.9207 *  0.0000     2          
   487  Cl    c     -2.1563 *    13.5264 *     9.8017 *  0.0000     4          
   488  Cl    c      1.7644 *     9.6057 *    13.7224 *  0.0000     4          
   489  O     c     -4.1166 *   -15.8786 *     3.9207 *  0.0000     4          
   490  Li    c      1.7644 *   -11.9580 *    11.7620 *  0.0000     4          
   491  Li    c      5.6851 *   -15.8786 *     0.0000    0.0000     2          
   492  Cl    c     -2.1563 *     9.6057 *    13.7224 *  0.0000     4          
   493  O     c    -11.9580 *   -11.9580       0.0000    0.0000     1          
   494  Li    c     -2.1563 *   -11.9580 *    11.7620 *  0.0000     4          
   495  O     c      3.7247 *    11.5661 *    11.7620 *  0.0000     4          
   496  Li    c     -0.1959 *   -15.8786 *     5.8810 *  0.0000     4          
   497  Cl    c     13.5264 *    -9.9976 *    -1.9603 *  0.0000     4          
   498  Li    c      5.6851 *    15.4868 *     3.9207 *  0.0000     4          
   499  Li    c      9.6057 *    11.5661 *     7.8414 *  0.0000     4          
   500  Cl    c      9.6057 *    -9.9976 *     9.8017 *  0.0000     4          
   501  Li    c      7.6454 *    11.5661 *     9.8017 *  0.0000     4          
   502  Li    c      3.7247 *    15.4868 *     5.8810 *  0.0000     4          
   503  Li    c     -6.0770 *   -15.8786 *     0.0000    0.0000     2          
   504  O     c     11.5661 *    -4.1166 *    11.7620 *  0.0000     4          
   505  Li    c      9.6057 *     7.6454 *    11.7620 *  0.0000     4          
   506  Li    c    -11.9580 *   -11.9580      -1.9603 *  0.0000     2          
   507  Cl    c      9.6057 *   -13.9183 *    -1.9603 *  0.0000     4          
   508  Cl    c      1.7644 *    -9.9976 *    13.7224 *  0.0000     4          
   509  Li    c     15.4868 *    -4.1166 *     5.8810 *  0.0000     4          
   510  O     c     11.5661 *   -11.9580 *     3.9207 *  0.0000     4          
   511  Li    c     -6.0770 *    15.4868 *     3.9207 *  0.0000     4          
   512  Li    c      5.6851 *     3.7247 *    15.6827 *  0.0000     4          
   513  Cl    c     -2.1563 *    -9.9976 *    13.7224 *  0.0000     4          
   514  Cl    c      1.7644 *   -13.9183 *     9.8017 *  0.0000     4          
   515  Cl    c     -2.1563 *   -13.9183 *     9.8017 *  0.0000     4          
   516  Li    c     11.5661 *    -8.0373 *     9.8017 *  0.0000     4          
   517  O     c      3.7247 *   -11.9580 *    11.7620 *  0.0000     4          
   518  Li    c      9.6057 *    -8.0373 *    11.7620 *  0.0000     4          
   519  Li    c     -9.9976 *    11.5661 *     7.8414 *  0.0000     4          
   520  Li    c      5.6851 *    -4.1166 *    15.6827 *  0.0000     4          
   521  Cl    c     -9.9976 *    -9.9976       9.8017 *  0.0000     2          
   522  Li    c      9.6057 *   -11.9580 *     7.8414 *  0.0000     4          
   523  Li    c     -9.9976 *     7.6454 *    11.7620 *  0.0000     4          
   524  Li    c     -6.0770 *     3.7247 *    15.6827 *  0.0000     4          
   525  Cl    c     -9.9976 *   -13.9183 *    -1.9603 *  0.0000     4          
   526  Li    c      7.6454 *   -11.9580 *     9.8017 *  0.0000     4          
   527  O     c     -4.1166 *   -11.9580 *    11.7620 *  0.0000     4          
   528  O     c      7.6454 *    15.4868 *     0.0000    0.0000     2          
   529  Li    c      5.6851 *   -15.8786 *     3.9207 *  0.0000     4          
   530  Li    c     -6.0770 *    -4.1166 *    15.6827 *  0.0000     4          
   531  Li    c      3.7247 *   -15.8786 *     5.8810 *  0.0000     4          
   532  O     c    -11.9580 *   -11.9580       3.9207 *  0.0000     2          
   533  O     c     -0.1959 *    15.4868 *     7.8414 *  0.0000     4          
   534  Li    c     11.5661 *    11.5661       5.8810 *  0.0000     2          
   535  Li    c      7.6454 *    15.4868 *    -1.9603 *  0.0000     4          
   536  Li    c     -9.9976 *    -8.0373 *    11.7620 *  0.0000     4          
   537  Li    c     13.5264 *     7.6454 *     7.8414 *  0.0000     4          
   538  Li    c     -4.1166 *   -15.8786 *     5.8810 *  0.0000     4          
   539  Li    c     -8.0373 *   -11.9580 *     9.8017 *  0.0000     4          
   540  Li    c     -6.0770 *   -15.8786 *     3.9207 *  0.0000     4          
   541  Li    c     -9.9976 *   -11.9580 *     7.8414 *  0.0000     4          
   542  O     c     15.4868 *    -8.0373 *     0.0000    0.0000     2          
   543  O     c     -0.1959 *     7.6454 *    15.6827 *  0.0000     4          
   544  Li    c     17.4471 *    -0.1959 *     0.0000    0.0000     2          
   545  Li    c      1.7644 *    15.4868 *     7.8414 *  0.0000     4          
   546  Li    c      5.6851 *    11.5661 *    11.7620 *  0.0000     4          
   547  Li    c      7.6454 *     7.6454      13.7224 *  0.0000     2          
   548  Li    c     -2.1563 *    15.4868 *     7.8414 *  0.0000     4          
   549  Li    c      1.7644 *     7.6454 *    15.6827 *  0.0000     4          
   550  Li    c     15.4868 *    -8.0373 *    -1.9603 *  0.0000     4          
   551  Li    c     13.5264 *    -8.0373 *     7.8414 *  0.0000     4          
   552  Li    c     -2.1563 *     7.6454 *    15.6827 *  0.0000     4          
   553  Li    c     -6.0770 *    11.5661 *    11.7620 *  0.0000     4          
   554  Cl    c      9.6057 *    13.5264 *     5.8810 *  0.0000     4          
   555  O     c     -0.1959 *    -8.0373 *    15.6827 *  0.0000     4          
   556  O     c      7.6454 *   -15.8786 *     0.0000    0.0000     2          
   557  Li    c     -0.1959 *    -0.1959      17.6430 *  0.0000     2          
   558  Li    c      7.6454 *    -8.0373 *    13.7224 *  0.0000     4          
   559  Li    c     11.5661 *   -11.9580 *     5.8810 *  0.0000     4          
   560  Cl    c      1.7644 *    17.4471 *    -1.9603 *  0.0000     4          
   561  Cl    c      5.6851 *    13.5264 *     9.8017 *  0.0000     4          
   562  Cl    c     -2.1563 *    17.4471 *    -1.9603 *  0.0000     4          
   563  Cl    c      5.6851 *     9.6057 *    13.7224 *  0.0000     4          
   564  O     c     -0.1959 *   -15.8786 *     7.8414 *  0.0000     4          
   565  Li    c    -13.9183 *     7.6454 *     7.8414 *  0.0000     4          
   566  Li    c      1.7644 *    -8.0373 *    15.6827 *  0.0000     4          
   567  Li    c      5.6851 *   -11.9580 *    11.7620 *  0.0000     4          
   568  O     c      7.6454 *    15.4868 *     3.9207 *  0.0000     4          
   569  Li    c      7.6454 *   -15.8786 *    -1.9603 *  0.0000     4          
   570  Li    c     -2.1563 *    -8.0373 *    15.6827 *  0.0000     4          
   571  O     c      3.7247 *    15.4868 *     7.8414 *  0.0000     4          
   572  Cl    c     13.5264 *    -6.0770 *     9.8017 *  0.0000     4          
   573  O     c     -8.0373 *   -15.8786 *     0.0000    0.0000     2          
   574  Li    c      1.7644 *   -15.8786 *     7.8414 *  0.0000     4          
   575  Li    c     13.5264 *    11.5661 *     0.0000    0.0000     2          
   576  Li    c     -8.0373 *    -8.0373      13.7224 *  0.0000     2          
   577  Cl    c      1.7644 *     1.7644      17.6430 *  0.0000     2          
   578  Cl    c      9.6057 *    -6.0770 *    13.7224 *  0.0000     4          
   579  Cl    c     13.5264 *    -9.9976 *     5.8810 *  0.0000     4          
   580  Li    c    -17.8390 *    -0.1959 *     0.0000    0.0000     2          
   581  Li    c     -2.1563 *   -15.8786 *     7.8414 *  0.0000     4          
   582  Li    c     -6.0770 *   -11.9580 *    11.7620 *  0.0000     4          
   583  O     c     15.4868 *    -4.1166 *     7.8414 *  0.0000     4          
   584  O     c      3.7247 *     7.6454 *    15.6827 *  0.0000     4          
   585  Li    c     17.4471 *     3.7247 *     0.0000    0.0000     2          
   586  Cl    c     -2.1563 *     1.7644 *    17.6430 *  0.0000     4          
   587  Li    c    -13.9183 *    -8.0373 *     7.8414 *  0.0000     4          
   588  O     c     15.4868 *    -8.0373 *     3.9207 *  0.0000     4          
   589  Li    c     17.4471 *    -0.1959 *     3.9207 *  0.0000     4          
   590  Li    c     -8.0373 *   -15.8786 *    -1.9603 *  0.0000     4          
   591  Li    c    -11.9580 *   -11.9580       5.8810 *  0.0000     2          
   592  Cl    c     -2.1563 *    -2.1563      17.6430 *  0.0000     2          
   593  Cl    c      5.6851 *    -9.9976 *    13.7224 *  0.0000     4          
   594  Cl    c      9.6057 *   -13.9183 *     5.8810 *  0.0000     4          
   595  O     c      7.6454 *    -4.1166 *    15.6827 *  0.0000     4          
   596  Li    c     13.5264 *    -0.1959 *    11.7620 *  0.0000     4          
   597  Li    c     17.4471 *    -4.1166 *     0.0000    0.0000     2          
   598  Cl    c      5.6851 *   -13.9183 *     9.8017 *  0.0000     4          
   599  Li    c     -0.1959 *    11.5661 *    13.7224 *  0.0000     4          
   600  O     c      3.7247 *    -8.0373 *    15.6827 *  0.0000     4          
   601  Cl    c      1.7644 *   -17.8390 *    -1.9603 *  0.0000     4          
   602  Cl    c     -6.0770 *    -9.9976 *    13.7224 *  0.0000     4          
   603  Li    c     -0.1959 *     3.7247 *    17.6430 *  0.0000     4          
   604  O     c      7.6454 *   -15.8786 *     3.9207 *  0.0000     4          
   605  Li    c     13.5264 *   -11.9580 *     0.0000    0.0000     2          
   606  Cl    c     -2.1563 *   -17.8390 *    -1.9603 *  0.0000     4          
   607  Cl    c     -6.0770 *   -13.9183 *     9.8017 *  0.0000     4          
   608  O     c      3.7247 *   -15.8786 *     7.8414 *  0.0000     4          
   609  O     c     -4.1166 *    -8.0373 *    15.6827 *  0.0000     4          
   610  Li    c    -13.9183 *    11.5661 *     0.0000    0.0000     2          
   611  Cl    c     -9.9976 *   -13.9183 *     5.8810 *  0.0000     4          
   612  Li    c     -0.1959 *    -4.1166 *    17.6430 *  0.0000     4          
   613  O     c     11.5661 *    11.5661       7.8414 *  0.0000     2          
   614  O     c     -4.1166 *   -15.8786 *     7.8414 *  0.0000     4          
   615  O     c      7.6454 *    11.5661 *    11.7620 *  0.0000     4          
   616  Li    c     -0.1959 *   -11.9580 *    13.7224 *  0.0000     4          
   617  O     c     -8.0373 *   -15.8786 *     3.9207 *  0.0000     4          
   618  Li    c    -13.9183 *    -0.1959 *    11.7620 *  0.0000     4          
   619  Li    c    -17.8390 *     3.7247 *     0.0000    0.0000     2          
   620  Li    c     13.5264 *    11.5661 *     3.9207 *  0.0000     4          
   621  Li    c      9.6057 *    15.4868 *     0.0000    0.0000     2          
   622  Li    c      7.6454 *    15.4868 *     5.8810 *  0.0000     4          
   623  Li    c    -17.8390 *    -0.1959 *     3.9207 *  0.0000     4          
   624  Li    c     17.4471 *     3.7247 *     3.9207 *  0.0000     4          
   625  Li    c      5.6851 *    15.4868 *     7.8414 *  0.0000     4          
   626  Li    c    -17.8390 *    -4.1166 *     0.0000    0.0000     2          
   627  Li    c     13.5264 *     3.7247 *    11.7620 *  0.0000     4          
   628  Li    c     -0.1959 *    15.4868 *     9.8017 *  0.0000     4          
   629  Li    c      3.7247 *    11.5661 *    13.7224 *  0.0000     4          
   630  Li    c    -13.9183 *   -11.9580 *     0.0000    0.0000     2          
   631  O     c     11.5661 *    -8.0373 *    11.7620 *  0.0000     4          
   632  Li    c     17.4471 *    -4.1166 *     3.9207 *  0.0000     4          
   633  Li    c      5.6851 *     7.6454 *    15.6827 *  0.0000     4          
   634  O     c     11.5661 *   -11.9580 *     7.8414 *  0.0000     4          
   635  Li    c      9.6057 *    -0.1959 *    15.6827 *  0.0000     4          
   636  Li    c     13.5264 *    -4.1166 *    11.7620 *  0.0000     4          
   637  Li    c     -6.0770 *    15.4868 *     7.8414 *  0.0000     4          
   638  Li    c     11.5661 *    -4.1166 *    13.7224 *  0.0000     4          
   639  Li    c     15.4868 *    -8.0373 *     5.8810 *  0.0000     4          
   640  Li    c      3.7247 *     3.7247      17.6430 *  0.0000     2          
   641  O     c      7.6454 *   -11.9580 *    11.7620 *  0.0000     4          
   642  Li    c     -9.9976 *    15.4868 *     0.0000    0.0000     2          
   643  Cl    c      5.6851 *    17.4471 *    -1.9603 *  0.0000     4          
   644  Li    c     13.5264 *   -11.9580 *     3.9207 *  0.0000     4          
   645  Li    c     -6.0770 *     7.6454 *    15.6827 *  0.0000     4          
   646  Li    c      3.7247 *    -4.1166 *    17.6430 *  0.0000     4          
   647  Cl    c      1.7644 *    17.4471 *     5.8810 *  0.0000     4          
   648  Li    c    -13.9183 *    11.5661 *     3.9207 *  0.0000     4          
   649  Li    c      5.6851 *    -8.0373 *    15.6827 *  0.0000     4          
   650  Cl    c     -2.1563 *    17.4471 *     5.8810 *  0.0000     4          
   651  Li    c      9.6057 *   -15.8786 *     0.0000    0.0000     2          
   652  Li    c      3.7247 *   -11.9580 *    13.7224 *  0.0000     4          
   653  Li    c      7.6454 *   -15.8786 *     5.8810 *  0.0000     4          
   654  Li    c     -4.1166 *    -4.1166      17.6430 *  0.0000     2          
   655  Cl    c     17.4471 *    -6.0770 *    -1.9603 *  0.0000     4          
   656  O     c     -8.0373 *   -11.9580 *    11.7620 *  0.0000     4          
   657  Li    c      5.6851 *   -15.8786 *     7.8414 *  0.0000     4          
   658  Li    c     -9.9976 *    -0.1959 *    15.6827 *  0.0000     4          
   659  Li    c    -13.9183 *     3.7247 *    11.7620 *  0.0000     4          
   660  Cl    c      1.7644 *     5.6851 *    17.6430 *  0.0000     4          
   661  O     c    -11.9580 *   -11.9580       7.8414 *  0.0000     2          
   662  Li    c    -17.8390 *     3.7247 *     3.9207 *  0.0000     4          
   663  Li    c     -6.0770 *    -8.0373 *    15.6827 *  0.0000     4          
   664  Li    c      9.6057 *    15.4868 *     3.9207 *  0.0000     4          
   665  Li    c     -0.1959 *   -15.8786 *     9.8017 *  0.0000     4          
   666  Li    c     -4.1166 *   -11.9580 *    13.7224 *  0.0000     4          
   667  Cl    c     -2.1563 *     5.6851 *    17.6430 *  0.0000     4          
   668  Li    c    -13.9183 *    -4.1166 *    11.7620 *  0.0000     4          
   669  Li    c      3.7247 *    15.4868 *     9.8017 *  0.0000     4          
   670  Li    c    -17.8390 *    -4.1166 *     3.9207 *  0.0000     4          
   671  Li    c     -6.0770 *   -15.8786 *     7.8414 *  0.0000     4          
   672  Li    c     -8.0373 *   -15.8786 *     5.8810 *  0.0000     4          
   673  Cl    c      1.7644 *    -6.0770 *    17.6430 *  0.0000     4          
   674  Li    c    -13.9183 *   -11.9580 *     3.9207 *  0.0000     4          
   675  Li    c     -9.9976 *   -15.8786 *     0.0000    0.0000     2          
   676  Li    c      9.6057 *     3.7247 *    15.6827 *  0.0000     4          
   677  Cl    c     -2.1563 *    -6.0770 *    17.6430 *  0.0000     4          
   678  Li    c     15.4868 *    -4.1166 *     9.8017 *  0.0000     4          
   679  Cl    c      5.6851 *   -17.8390 *    -1.9603 *  0.0000     4          
   680  Li    c      9.6057 *    -4.1166 *    15.6827 *  0.0000     4          
   681  Li    c     -9.9976 *    15.4868 *     3.9207 *  0.0000     4          
   682  Cl    c      1.7644 *   -17.8390 *     5.8810 *  0.0000     4          
   683  Cl    c     -2.1563 *   -17.8390 *     5.8810 *  0.0000     4          
   684  Cl    c     -6.0770 *   -17.8390 *    -1.9603 *  0.0000     4          
   685  Li    c      9.6057 *   -15.8786 *     3.9207 *  0.0000     4          
   686  Li    c     -9.9976 *     3.7247 *    15.6827 *  0.0000     4          
   687  O     c      7.6454 *    15.4868 *     7.8414 *  0.0000     4          
   688  Li    c      3.7247 *   -15.8786 *     9.8017 *  0.0000     4          
   689  Li    c     -9.9976 *    -4.1166 *    15.6827 *  0.0000     4          
   690  O     c      7.6454 *     7.6454      15.6827 *  0.0000     2          
   691  Li    c     17.4471 *     7.6454 *     0.0000    0.0000     2          
   692  Li    c     11.5661 *    11.5661       9.8017 *  0.0000     2          
   693  Li    c      9.6057 *    11.5661 *    11.7620 *  0.0000     4          
   694  Li    c     -4.1166 *   -15.8786 *     9.8017 *  0.0000     4          
   695  O     c     15.4868 *    -8.0373 *     7.8414 *  0.0000     4          
   696  Li    c     17.4471 *    -0.1959 *     7.8414 *  0.0000     4          
   697  Li    c     -9.9976 *   -15.8786 *     3.9207 *  0.0000     4          
   698  O     c      7.6454 *    -8.0373 *    15.6827 *  0.0000     4          
   699  Li    c     17.4471 *    -8.0373 *     0.0000    0.0000     2          
[...]
   1052 y         -3.920675     -3.920574     0.000102    Cartesian   -0.00
   1052 z         15.682702     15.682847     0.000145    Cartesian    0.00
   1053 x          5.881013      5.880813    -0.000200    Cartesian   -0.00
   1053 y        -13.722364    -13.716780     0.005584    Cartesian   -0.04
   1053 z          9.801689      9.800087    -0.001602    Cartesian   -0.02
   1054 x          3.920675      3.920194    -0.000481    Cartesian   -0.01
   1054 y         -7.841351     -7.842611    -0.001260    Cartesian    0.02
   1054 z         15.682702     15.683240     0.000538    Cartesian    0.00
   1055 x          1.960338      1.962522     0.002185    Cartesian    0.11
   1055 y        -17.643040    -17.637312     0.005728    Cartesian   -0.03
   1055 z         -1.960338     -1.960842    -0.000504    Cartesian    0.03
   1056 x         -5.881013     -5.876301     0.004712    Cartesian   -0.08
   1056 y         -9.801689     -9.796806     0.004883    Cartesian   -0.05
   1056 z         13.722364     13.718150    -0.004214    Cartesian   -0.03
   1057 x          7.841351      7.842818     0.001467    Cartesian    0.02
   1057 y        -15.682702    -15.682848    -0.000146    Cartesian    0.00
   1057 z          3.920675      3.920586    -0.000089    Cartesian   -0.00
   1058 x         -1.960338     -1.958986     0.001352    Cartesian   -0.07
   1058 y        -17.643040    -17.637833     0.005206    Cartesian   -0.03
   1058 z         -1.960338     -1.960588    -0.000250    Cartesian    0.01
   1059 x         -5.881013     -5.876748     0.004266    Cartesian   -0.07
   1059 y        -13.722364    -13.716598     0.005766    Cartesian   -0.04
   1059 z          9.801689      9.799160    -0.002529    Cartesian   -0.03
   1060 x          3.920675      3.920395    -0.000280    Cartesian   -0.01
   1060 y        -15.682702    -15.682662     0.000040    Cartesian   -0.00
   1060 z          7.841351      7.842680     0.001329    Cartesian    0.02
   1061 x         -3.920675     -3.919715     0.000960    Cartesian   -0.02
   1061 y         -7.841351     -7.841451    -0.000100    Cartesian    0.00
   1061 z         15.682702     15.682117    -0.000585    Cartesian   -0.00
   1062 x         -9.801689     -9.797557     0.004132    Cartesian   -0.04
   1062 y        -13.722364    -13.716704     0.005661    Cartesian   -0.04
   1062 z          5.881013      5.878309    -0.002704    Cartesian   -0.05
   1063 x         11.762026     11.762832     0.000805    Cartesian    0.01
   1063 y         11.762026     11.762832     0.000805    Cartesian    0.01
   1063 z          7.841351      7.840673    -0.000678    Cartesian   -0.01
   1064 x         -3.920675     -3.919895     0.000781    Cartesian   -0.02
   1064 y        -15.682702    -15.681791     0.000911    Cartesian   -0.01
   1064 z          7.841351      7.841808     0.000457    Cartesian    0.01
   1065 x          7.841351      7.842983     0.001632    Cartesian    0.02
   1065 y         11.762026     11.765203     0.003176    Cartesian    0.03
   1065 z         11.762026     11.764971     0.002945    Cartesian    0.03
   1066 x         -7.841351     -7.841594    -0.000243    Cartesian    0.00
   1066 y        -15.682702    -15.681611     0.001091    Cartesian   -0.01
   1066 z          3.920675      3.919855    -0.000821    Cartesian   -0.02
   1067 x         11.762026     11.763468     0.001441    Cartesian    0.01
   1067 y         -7.841351     -7.841385    -0.000034    Cartesian    0.00
   1067 z         11.762026     11.762887     0.000861    Cartesian    0.01
   1068 x         11.762026     11.763766     0.001739    Cartesian    0.01
   1068 y        -11.762026    -11.763154    -0.001128    Cartesian    0.01
   1068 z          7.841351      7.841708     0.000357    Cartesian    0.00
   1069 x          7.841351      7.841280    -0.000071    Cartesian   -0.00
   1069 y        -11.762026    -11.763178    -0.001152    Cartesian    0.01
   1069 z         11.762026     11.763542     0.001516    Cartesian    0.01
   1070 x          5.881013      5.883537     0.002524    Cartesian    0.04
   1070 y         17.643040     17.636188    -0.006852    Cartesian   -0.04
   1070 z         -1.960338     -1.960061     0.000277    Cartesian   -0.01
   1071 x          1.960338      1.963042     0.002704    Cartesian    0.14
   1071 y         17.643040     17.637686    -0.005354    Cartesian   -0.03
   1071 z          5.881013      5.879907    -0.001107    Cartesian   -0.02
   1072 x         -1.960338     -1.956360     0.003978    Cartesian   -0.20
   1072 y         17.643040     17.638748    -0.004292    Cartesian   -0.02
   1072 z          5.881013      5.879191    -0.001822    Cartesian   -0.03
   1073 x         17.643040     17.639415    -0.003625    Cartesian   -0.02
   1073 y         -5.881013     -5.876755     0.004258    Cartesian   -0.07
   1073 z         -1.960338     -1.959491     0.000846    Cartesian   -0.04
   1074 x         -7.841351     -7.840131     0.001220    Cartesian   -0.02
   1074 y        -11.762026    -11.761371     0.000656    Cartesian   -0.01
   1074 z         11.762026     11.761787    -0.000239    Cartesian   -0.00
   1075 x          1.960338      1.963256     0.002918    Cartesian    0.15
   1075 y          5.881013      5.882333     0.001320    Cartesian    0.02
   1075 z         17.643040     17.634943    -0.008097    Cartesian   -0.05
   1076 x        -11.762026    -11.761471     0.000556    Cartesian   -0.00
   1076 y        -11.762026    -11.761471     0.000556    Cartesian   -0.00
   1076 z          7.841351      7.840166    -0.001185    Cartesian   -0.02
   1077 x         -1.960338     -1.958179     0.002158    Cartesian   -0.11
   1077 y          5.881013      5.881654     0.000641    Cartesian    0.01
   1077 z         17.643040     17.635704    -0.007336    Cartesian   -0.04
   1078 x          1.960338      1.961501     0.001164    Cartesian    0.06
   1078 y         -5.881013     -5.877235     0.003778    Cartesian   -0.06
   1078 z         17.643040     17.636297    -0.006743    Cartesian   -0.04
   1079 x         -1.960338     -1.957680     0.002657    Cartesian   -0.14
   1079 y         -5.881013     -5.877130     0.003883    Cartesian   -0.07
   1079 z         17.643040     17.636304    -0.006735    Cartesian   -0.04
   1080 x          5.881013      5.880586    -0.000427    Cartesian   -0.01
   1080 y        -17.643040    -17.635556     0.007484    Cartesian   -0.04
   1080 z         -1.960338     -1.959795     0.000542    Cartesian   -0.03
   1081 x          1.960338      1.961259     0.000921    Cartesian    0.05
   1081 y        -17.643040    -17.635667     0.007372    Cartesian   -0.04
   1081 z          5.881013      5.879143    -0.001870    Cartesian   -0.03
   1082 x         -1.960338     -1.958184     0.002154    Cartesian   -0.11
   1082 y        -17.643040    -17.635700     0.007340    Cartesian   -0.04
   1082 z          5.881013      5.878997    -0.002016    Cartesian   -0.03
   1083 x         -5.881013     -5.877751     0.003262    Cartesian   -0.06
   1083 y        -17.643040    -17.635729     0.007310    Cartesian   -0.04
   1083 z         -1.960338     -1.959591     0.000746    Cartesian   -0.04
   1084 x          7.841351      7.842662     0.001311    Cartesian    0.02
   1084 y         15.682702     15.684062     0.001360    Cartesian    0.01
   1084 z          7.841351      7.842257     0.000906    Cartesian    0.01
   1085 x          7.841351      7.842747     0.001396    Cartesian    0.02
   1085 y          7.841351      7.842747     0.001396    Cartesian    0.02
   1085 z         15.682702     15.683682     0.000980    Cartesian    0.01
   1086 x         15.682702     15.680430    -0.002272    Cartesian   -0.01
   1086 y         -7.841351     -7.838409     0.002942    Cartesian   -0.04
   1086 z          7.841351      7.839100    -0.002251    Cartesian   -0.03
   1087 x          7.841351      7.839865    -0.001486    Cartesian   -0.02
   1087 y         -7.841351     -7.839109     0.002242    Cartesian   -0.03
   1087 z         15.682702     15.679581    -0.003121    Cartesian   -0.02
   1088 x         13.722364     13.716965    -0.005400    Cartesian   -0.04
   1088 y         13.722364     13.716965    -0.005400    Cartesian   -0.04
   1088 z         -1.960338     -1.957849     0.002488    Cartesian   -0.13
   1089 x          5.881013      5.881711     0.000697    Cartesian    0.01
   1089 y         17.643040     17.634525    -0.008515    Cartesian   -0.05
   1089 z          5.881013      5.878619    -0.002394    Cartesian   -0.04
   1090 x          9.801689      9.801228    -0.000461    Cartesian   -0.00
   1090 y         13.722364     13.718306    -0.004058    Cartesian   -0.03
   1090 z          9.801689      9.796553    -0.005136    Cartesian   -0.05
   1091 x          7.841351      7.840091    -0.001260    Cartesian   -0.02
   1091 y        -15.682702    -15.679029     0.003673    Cartesian   -0.02
   1091 z          7.841351      7.839876    -0.001475    Cartesian   -0.02
   1092 x          9.801689      9.801601    -0.000088    Cartesian   -0.00
   1092 y          9.801689      9.801601    -0.000088    Cartesian   -0.00
   1092 z         13.722364     13.715820    -0.006544    Cartesian   -0.05
   1093 x         11.762026     11.760762    -0.001264    Cartesian   -0.01
   1093 y         15.682702     15.681226    -0.001476    Cartesian   -0.01
   1093 z          0.000000      0.000000     0.000000    Cartesian    0.00
   1094 x          1.960338      1.961231     0.000894    Cartesian    0.05
   1094 y         13.722364     13.719281    -0.003083    Cartesian   -0.02
   1094 z         13.722364     13.715388    -0.006977    Cartesian   -0.05
   1095 x         -7.841351     -7.838634     0.002717    Cartesian   -0.03
   1095 y         -7.841351     -7.838634     0.002717    Cartesian   -0.03
   1095 z         15.682702     15.679176    -0.003526    Cartesian   -0.02
   1096 x         -1.960338     -1.956033     0.004305    Cartesian   -0.22
   1096 y         13.722364     13.718760    -0.003604    Cartesian   -0.03
   1096 z         13.722364     13.715583    -0.006781    Cartesian   -0.05
   1097 x         17.643040     17.636065    -0.006975    Cartesian   -0.04
   1097 y         -5.881013     -5.875763     0.005250    Cartesian   -0.09
   1097 z          5.881013      5.878222    -0.002791    Cartesian   -0.05
   1098 x          5.881013      5.880866    -0.000148    Cartesian   -0.00
   1098 y          5.881013      5.880866    -0.000148    Cartesian   -0.00
   1098 z         17.643040     17.633065    -0.009975    Cartesian   -0.06
   1099 x          0.000000      0.000302     0.000302    Cartesian    0.00
   1099 y         19.603377     19.602344    -0.001033    Cartesian   -0.01
   1099 z          0.000000      0.000000     0.000000    Cartesian    0.00
   1100 x         -7.841351     -7.839028     0.002323    Cartesian   -0.03
   1100 y        -15.682702    -15.678749     0.003953    Cartesian   -0.03
   1100 z          7.841351      7.839262    -0.002089    Cartesian   -0.03
   1101 x          0.000000      0.000597     0.000597    Cartesian    0.00
   1101 y         15.682702     15.680362    -0.002340    Cartesian   -0.01
   1101 z         11.762026     11.759687    -0.002340    Cartesian   -0.02
   1102 x         13.722364     13.718136    -0.004229    Cartesian   -0.03
   1102 y         -9.801689     -9.795172     0.006517    Cartesian   -0.07
   1102 z          9.801689      9.797476    -0.004212    Cartesian   -0.04
   1103 x          0.000000      0.000628     0.000628    Cartesian    0.00
   1103 y         11.762026     11.760326    -0.001700    Cartesian   -0.01
   1103 z         15.682702     15.680114    -0.002588    Cartesian   -0.02
   1104 x          9.801689      9.799452    -0.002237    Cartesian   -0.02
   1104 y         -9.801689     -9.795837     0.005852    Cartesian   -0.06
   1104 z         13.722364     13.716000    -0.006364    Cartesian   -0.05
   1105 x         13.722364     13.718520    -0.003844    Cartesian   -0.03
   1105 y        -13.722364    -13.715233     0.007131    Cartesian   -0.05
   1105 z         -1.960338     -1.959099     0.001239    Cartesian   -0.06
   1106 x          5.881013      5.880136    -0.000877    Cartesian   -0.01
   1106 y         -5.881013     -5.876802     0.004212    Cartesian   -0.07
   1106 z         17.643040     17.634232    -0.008807    Cartesian   -0.05
   1107 x          9.801689      9.799639    -0.002050    Cartesian   -0.02
   1107 y        -13.722364    -13.714541     0.007823    Cartesian   -0.06
   1107 z          9.801689      9.798241    -0.003448    Cartesian   -0.04
   1108 x         15.682702     15.680132    -0.002570    Cartesian   -0.02
   1108 y        -11.762026    -11.759829     0.002197    Cartesian   -0.02
   1108 z          0.000000      0.000000     0.000000    Cartesian    0.00
   1109 x          0.000000      0.000332     0.000332    Cartesian    0.00
   1109 y         -0.000000      0.000332     0.000332    Cartesian *******
   1109 z         19.603377     19.601794    -0.001584    Cartesian   -0.01
   1110 x          1.960338      1.960355     0.000017    Cartesian    0.00
   1110 y        -13.722364    -13.715169     0.007195    Cartesian   -0.05
   1110 z         13.722364     13.716807    -0.005557    Cartesian   -0.04
   1111 x          5.881013      5.880012    -0.001001    Cartesian   -0.02
   1111 y        -17.643040    -17.633460     0.009579    Cartesian   -0.05
   1111 z          5.881013      5.878751    -0.002262    Cartesian   -0.04
   1112 x         -5.881013     -5.876963     0.004050    Cartesian   -0.07
   1112 y         -5.881013     -5.876963     0.004050    Cartesian   -0.07
   1112 z         17.643040     17.634527    -0.008513    Cartesian   -0.05
   1113 x         11.762026     11.760551    -0.001476    Cartesian   -0.01
   1113 y        -15.682702    -15.680427     0.002275    Cartesian   -0.01
   1113 z          0.000000      0.000000     0.000000    Cartesian    0.00
   1114 x         -1.960338     -1.958220     0.002117    Cartesian   -0.11
   1114 y        -13.722364    -13.715136     0.007229    Cartesian   -0.05
   1114 z         13.722364     13.716599    -0.005765    Cartesian   -0.04
   1115 x         -9.801689     -9.795982     0.005707    Cartesian   -0.06
   1115 y         -9.801689     -9.795982     0.005707    Cartesian   -0.06
   1115 z         13.722364     13.715746    -0.006619    Cartesian   -0.05
   1116 x          0.000000      0.000162     0.000162    Cartesian    0.00
   1116 y        -11.762026    -11.759934     0.002092    Cartesian   -0.02
   1116 z         15.682702     15.679973    -0.002729    Cartesian   -0.02
   1117 x         11.762026     11.759198    -0.002829    Cartesian   -0.02
   1117 y         15.682702     15.678801    -0.003901    Cartesian   -0.02
   1117 z          3.920675      3.918445    -0.002231    Cartesian   -0.06
   1118 x         -5.881013     -5.877446     0.003567    Cartesian   -0.06
   1118 y        -17.643040    -17.633835     0.009205    Cartesian   -0.05
   1118 z          5.881013      5.878539    -0.002474    Cartesian   -0.04
   1119 x         -9.801689     -9.796422     0.005266    Cartesian   -0.05
   1119 y        -13.722364    -13.714583     0.007781    Cartesian   -0.06
   1119 z          9.801689      9.797559    -0.004130    Cartesian   -0.04
   1120 x          0.000000      0.000190     0.000190    Cartesian    0.00
   1120 y        -15.682702    -15.679889     0.002813    Cartesian   -0.02
   1120 z         11.762026     11.760219    -0.001808    Cartesian   -0.02
   1121 x          3.920675      3.919885    -0.000790    Cartesian   -0.02
   1121 y         19.603377     19.601524    -0.001854    Cartesian   -0.01
   1121 z          0.000000      0.000000     0.000000    Cartesian    0.00
   1122 x        -13.722364    -13.715353     0.007011    Cartesian   -0.05
   1122 y        -13.722364    -13.715353     0.007011    Cartesian   -0.05
   1122 z         -1.960338     -1.959255     0.001083    Cartesian   -0.06
   1123 x          0.000000      0.000329     0.000329    Cartesian    0.00
   1123 y        -19.603377    -19.602661     0.000716    Cartesian   -0.00
   1123 z          0.000000      0.000000     0.000000    Cartesian    0.00
   1124 x          0.000000      0.000675     0.000675    Cartesian    0.00
   1124 y         19.603377     19.601361    -0.002016    Cartesian   -0.01
   1124 z          3.920675      3.919396    -0.001279    Cartesian   -0.03
   1125 x          3.920675      3.919602    -0.001074    Cartesian   -0.03
   1125 y         15.682702     15.679152    -0.003550    Cartesian   -0.02
   1125 z         11.762026     11.758858    -0.003169    Cartesian   -0.03
   1126 x          3.920675      3.919123    -0.001553    Cartesian   -0.04
   1126 y         11.762026     11.759278    -0.002749    Cartesian   -0.02
   1126 z         15.682702     15.678879    -0.003823    Cartesian   -0.02
   1127 x         19.603377     19.601421    -0.001957    Cartesian   -0.01
   1127 y         -3.920675     -3.918963     0.001712    Cartesian   -0.04
   1127 z          0.000000      0.000000     0.000000    Cartesian    0.00
   1128 x        -11.762026    -11.759812     0.002214    Cartesian   -0.02
   1128 y        -15.682702    -15.679556     0.003146    Cartesian   -0.02
   1128 z          0.000000      0.000000     0.000000    Cartesian    0.00
   1129 x         15.682702     15.678381    -0.004321    Cartesian   -0.03
   1129 y         -3.920675     -3.918184     0.002491    Cartesian   -0.06
   1129 z         11.762026     11.758853    -0.003173    Cartesian   -0.03
   1130 x         11.762026     11.759410    -0.002616    Cartesian   -0.02
   1130 y         -3.920675     -3.917953     0.002723    Cartesian   -0.07
   1130 z         15.682702     15.678278    -0.004424    Cartesian   -0.03
   1131 x          0.000000      0.000734     0.000734    Cartesian    0.00
   1131 y          3.920675      3.919739    -0.000937    Cartesian   -0.02
   1131 z         19.603377     19.596995    -0.006382    Cartesian   -0.03
   1132 x         15.682702     15.678525    -0.004177    Cartesian   -0.03
   1132 y        -11.762026    -11.758581     0.003445    Cartesian   -0.03
   1132 z          3.920675      3.918956    -0.001719    Cartesian   -0.04
--------------------------------------------------------------------------------


  Time to end of optimisation  =      460.4569 seconds


  Peak dynamic memory used =    1245.78 MB 


  Timing analysis for GULP :

--------------------------------------------------------------------------------
  Task / Subroutine                                          Time (Seconds)
--------------------------------------------------------------------------------
  Calculation of reciprocal space energy and derivatives          0.0002
  Calculation of reciprocal space energy using symmetry           0.0003
  Calculation of real space energy and derivatives                0.0017
  Calculation of real space energy using symmetry                 0.0039
  Calculation for region 1 energy and derivatives (2-b)         137.1201
  Calculation for region 2a energy                               43.2173
  Calculation for region 2b energy                                0.0044
  Calculation and manipulation of Hessian matrix                249.1855
  Calculation of matrix inversion                                29.5739
  Symmetry generation of equivalent positions                     0.0020
--------------------------------------------------------------------------------
  Total CPU time                                                460.4569
--------------------------------------------------------------------------------


  Dump file written as Li3OCl.grs


  Job Finished at 12:45.32 28th October    2020                               

