********************************************************************************
*                       GENERAL UTILITY LATTICE PROGRAM                        *
*                                 Julian Gale                                  *
*                       Curtin Institute for Computation                       *
*                    School of Molecular and Life Sciences                     *
*                    Curtin University, Western Australia                      *
********************************************************************************
* Version = 5.2.0 * Last modified =  10th September 2020                       *
********************************************************************************
*  optimise     - perform optimisation run                                     *
*  conp         - constant pressure calculation                                *
*  property     - calculate properties for final geometry                      *
*  defect       - perform defect calculation after bulk run                    *
*  compare      - compare initial and final structures                         *
********************************************************************************

  Job Started  at 15:09.38 28th October    2020                               

  Number of CPUs =     1


  Total number of configurations input =      1

********************************************************************************
*  Input for Configuration =   1                                               *
********************************************************************************

  Formula = ClOLi3                                                      

  Number of irreducible atoms/shells =       5


  Total number atoms/shells =       7

  Dimensionality = 3               :  Bulk   


  Symmetry :

  Crystal family                   :  Cubic       
  Crystal class  (Groth - 1921)    :  Cubic Hexakisoctahedral              

  Space group (centrosymmetric)    :  P M 3 M         

  Patterson group                  :  P m -3 m 

  Cartesian lattice vectors (Angstroms) :

        3.918873    0.000000    0.000000
        0.000000    3.918873    0.000000
        0.000000    0.000000    3.918873

  Cell parameters (Angstroms/Degrees):

  a =       3.9189    alpha =  90.0000
  b =       3.9189    beta  =  90.0000
  c =       3.9189    gamma =  90.0000

  Initial cell volume =          60.184349 Angs**3

  Temperature of configuration =   0.00     K 

  Pressure of configuration =         0.000 GPa 

  Fractional coordinates of asymmetric unit :

--------------------------------------------------------------------------------
   No.  Atomic       x           y          z         Charge      Occupancy
        Label      (Frac)      (Frac)     (Frac)        (e)         (Frac)  
--------------------------------------------------------------------------------
      1 Cl    c    0.500000    0.500000    0.500000     1.48500    1.000000    
      2 O     c    0.000000    0.000000    0.000000     0.18300    1.000000    
      3 Li    c    0.500000    0.000000    0.000000     1.00000    1.000000    
      4 Cl    s    0.500000    0.500000    0.500000    -2.48500    1.000000    
      5 O     s    0.000000    0.000000    0.000000    -2.18300    1.000000    
--------------------------------------------------------------------------------


  Constraints : 

--------------------------------------------------------------------------------
  Constraint no.      Unconstrained     Constrained    Coefficient    Offset
                         Variable         Variable
--------------------------------------------------------------------------------
           1              Strain 1        Strain 2       1.00000      0.0000
           2              Strain 1        Strain 3       1.00000      0.0000
--------------------------------------------------------------------------------


********************************************************************************
*  General input information                                                   *
********************************************************************************

  Species output for all configurations : 

--------------------------------------------------------------------------------
  Species    Type    Atomic    Atomic    Charge       Radii (Angs)     Library
                     Number     Mass       (e)     Cova   Ionic  VDW   Symbol
--------------------------------------------------------------------------------
    Li       Core        3       6.94   1.000000   0.680  0.000  1.800          
    O        Core        8      16.00   0.183000   0.730  0.000  1.360          
    O        Shell       8       0.00  -2.183000   0.730  0.000  1.360          
    Cl       Core       17      35.45   1.485000   0.990  0.000  1.650          
    Cl       Shell      17       0.00  -2.485000   0.990  0.000  1.650          
--------------------------------------------------------------------------------


  Lattice summation method               =    Ewald          (3-D)
                                         =    Parry          (2-D)
                                         =    Saunders et al (1-D)
  Accuracy factor for lattice sums       =   12.000


  Analytic derivatives to be used

  Time limit = Infinity

  Maximum range for interatomic potentials =    100000.000000 Angstroms

  General interatomic potentials :

--------------------------------------------------------------------------------
Atom  Types   Potential      Parameter       Value         Units   Cutoffs(Ang)
  1     2                                                            Min /  Max 
--------------------------------------------------------------------------------
O    c O    s Spring (c-s)  Spring k 2       593.72000    eV*Ang^-2 0.000  0.800
                            Spring k 4       0.0000000    eV*Ang^-4 
--------------------------------------------------------------------------------
Cl   c Cl   s Spring (c-s)  Spring k 2       29.380000    eV*Ang^-2 0.000  0.800
                            Spring k 4       0.0000000    eV*Ang^-4 
--------------------------------------------------------------------------------
Li   c Li   c Buckingham    Buckingham A     360.53000    eV        0.000 12.000
                            Buckingham rho  0.16100000    Ang       
                            Buckingham C     0.0000000    eV*Ang^6  
--------------------------------------------------------------------------------
Li   c O    s Buckingham    Buckingham A     292.30000    eV        0.000 12.000
                            Buckingham rho  0.34720000    Ang       
                            Buckingham C     0.0000000    eV*Ang^6  
--------------------------------------------------------------------------------
Li   c Cl   s Buckingham    Buckingham A     421.04000    eV        0.000 12.000
                            Buckingham rho  0.33400000    Ang       
                            Buckingham C     0.0000000    eV*Ang^6  
--------------------------------------------------------------------------------
O    s O    s Buckingham    Buckingham A     22764.300    eV        0.000 12.000
                            Buckingham rho  0.14900000    Ang       
                            Buckingham C     13.190000    eV*Ang^6  
--------------------------------------------------------------------------------
O    s Cl   s Buckingham    Buckingham A     8286.9100    eV        0.000 12.000
                            Buckingham rho  0.25900000    Ang       
                            Buckingham C     62.200000    eV*Ang^6  
--------------------------------------------------------------------------------
Cl   s Cl   s Buckingham    Buckingham A     1227.2000    eV        0.000 12.000
                            Buckingham rho  0.32100000    Ang       
                            Buckingham C     14.530000    eV*Ang^6  
--------------------------------------------------------------------------------

********************************************************************************
*  Output for configuration   1                                                *
********************************************************************************


  Components of energy : 

--------------------------------------------------------------------------------
  Interatomic potentials     =           7.26836263 eV    
  Monopole - monopole (real) =         -11.53475722 eV    
  Monopole - monopole (recip)=         -33.94580548 eV    
  Monopole - monopole (total)=         -45.48056271 eV    
--------------------------------------------------------------------------------
  Total lattice energy       =         -38.21220008 eV    
--------------------------------------------------------------------------------
  Total lattice energy       =           -3686.8932 kJ/(mole unit cells)
--------------------------------------------------------------------------------


  Number of variables =        1

  Maximum number of calculations  =          1000
  Maximum Hessian update interval =            10
  Maximum step size               =   1.000000000
  Maximum parameter tolerance     =   0.000010000
  Maximum function  tolerance     =   0.000010000
  Maximum gradient  tolerance     =   0.001000000
  Maximum gradient  component     =   0.010000000

  Symmetry constrained optimisation

  Symmetry used for second derivatives

  Cell parameters to be optimised using strains

  Newton-Raphson optimiser to be used

  BFGS hessian update to be used

  Lower half triangular hessian to be used

  Start of bulk optimisation :

  Cycle:      0 Energy:       -38.212200  Gnorm:      0.095699  CPU:    0.007
  ** Hessian calculated **
  Cycle:      1 Energy:       -38.212222  Gnorm:      0.000105  CPU:    0.008


  **** Optimisation achieved ****


  Final energy =     -38.21222207 eV
  Final Gnorm  =       0.00000001

  Components of energy : 

--------------------------------------------------------------------------------
  Interatomic potentials     =           7.24743137 eV    
  Monopole - monopole (real) =         -11.52945422 eV    
  Monopole - monopole (recip)=         -33.93019921 eV    
  Monopole - monopole (total)=         -45.45965344 eV    
--------------------------------------------------------------------------------
  Total lattice energy       =         -38.21222207 eV    
--------------------------------------------------------------------------------
  Total lattice energy       =           -3686.8953 kJ/(mole unit cells)
--------------------------------------------------------------------------------

  Final asymmetric unit coordinates :

--------------------------------------------------------------------------------
   No.  Atomic        x           y           z         Radius
        Label       (Frac)      (Frac)      (Frac)       (Angs) 
--------------------------------------------------------------------------------
     1  Cl    c     0.500000    0.500000    0.500000    0.000000
     2  O     c     0.000000    0.000000    0.000000    0.000000
     3  Li    c     0.500000    0.000000    0.000000    0.000000
     4  Cl    s     0.500000    0.500000    0.500000    0.000000
     5  O     s     0.000000    0.000000    0.000000    0.000000
--------------------------------------------------------------------------------

  Final Cartesian lattice vectors (Angstroms) :

        3.920675    0.000000    0.000000
        0.000000    3.920675    0.000000
        0.000000    0.000000    3.920675


  Final cell parameters and derivatives :

--------------------------------------------------------------------------------
       a            3.920675 Angstrom     dE/de1(xx)     0.000000 eV/strain
       b            3.920675 Angstrom     dE/de2(yy)     0.000000 eV/strain
       c            3.920675 Angstrom     dE/de3(zz)     0.000000 eV/strain
       alpha       90.000000 Degrees      dE/de4(yz)     0.000000 eV/strain
       beta        90.000000 Degrees      dE/de5(xz)     0.000000 eV/strain
       gamma       90.000000 Degrees      dE/de6(xy)     0.000000 eV/strain
--------------------------------------------------------------------------------

  Primitive cell volume =            60.267433 Angs**3

  Density of cell =      1.991276 g/cm**3

  Non-primitive cell volume =            60.267433 Angs**3


  Final internal derivatives :

--------------------------------------------------------------------------------
   No.  Atomic          a             b             c           Radius
        Label          (eV)          (eV)          (eV)        (eV/Angs)
--------------------------------------------------------------------------------
      1 Cl    c       0.000000      0.000000      0.000000      0.000000
      2 O     c       0.000000      0.000000      0.000000      0.000000
      3 Li    c       0.000000      0.000000      0.000000      0.000000
      4 Cl    s       0.000000      0.000000      0.000000      0.000000
      5 O     s       0.000000      0.000000      0.000000      0.000000
--------------------------------------------------------------------------------
  Maximum abs         0.000000      0.000000      0.000000      0.000000
--------------------------------------------------------------------------------

  Comparison of initial and final structures : 

--------------------------------------------------------------------------------
  Parameter   Initial value   Final value   Difference    Units      Percent
--------------------------------------------------------------------------------
    Volume        60.184349     60.267433     0.083084    Angs**3      0.14
    a              3.918873      3.920675     0.001802    Angstroms    0.05
    b              3.918873      3.920675     0.001802    Angstroms    0.05
    c              3.918873      3.920675     0.001802    Angstroms    0.05
    alpha         90.000000     90.000000     0.000000    Degrees      0.00
    beta          90.000000     90.000000     0.000000    Degrees      0.00
    gamma         90.000000     90.000000     0.000000    Degrees      0.00
      1 x          0.500000      0.500000     0.000000    Fractional   0.00
      1 y          0.500000      0.500000     0.000000    Fractional   0.00
      1 z          0.500000      0.500000     0.000000    Fractional   0.00
      2 x          0.000000      0.000000     0.000000    Fractional   0.00
      2 y          0.000000      0.000000     0.000000    Fractional   0.00
      2 z          0.000000      0.000000     0.000000    Fractional   0.00
      3 x          0.500000      0.500000     0.000000    Fractional   0.00
      3 y          0.000000      0.000000     0.000000    Fractional   0.00
      3 z          0.000000      0.000000     0.000000    Fractional   0.00
      4 x          0.500000      0.500000     0.000000    Fractional   0.00
      4 y          0.500000      0.500000     0.000000    Fractional   0.00
      4 z          0.500000      0.500000     0.000000    Fractional   0.00
      5 x          0.000000      0.000000     0.000000    Fractional   0.00
      5 y          0.000000      0.000000     0.000000    Fractional   0.00
      5 z          0.000000      0.000000     0.000000    Fractional   0.00
--------------------------------------------------------------------------------


  Born effective charge tensors : 

-------------------------------------------------------------------------------
  Atom             x           y             z
-------------------------------------------------------------------------------
    1 Cl    x      -0.9489      0.0000     -0.0000
            y       0.0000     -0.9489     -0.0000
            z      -0.0000     -0.0000     -0.9489
-------------------------------------------------------------------------------
    2 O     x      -2.4688      0.0000     -0.0000
            y       0.0000     -2.4688     -0.0000
            z      -0.0000     -0.0000     -2.4688
-------------------------------------------------------------------------------
    3 Li    x       0.7919     -0.0000      0.0000
            y      -0.0000      1.3129      0.0000
            z      -0.0000      0.0000      1.3129
-------------------------------------------------------------------------------




  Elastic Constant Matrix: (Units=GPa)

-------------------------------------------------------------------------------
  Indices      1         2         3         4         5         6    
-------------------------------------------------------------------------------
       1     94.3368   44.9178   44.9178   -0.0000   -0.0000    0.0000
       2     44.9178   94.3368   44.9178    0.0000   -0.0000    0.0000
       3     44.9178   44.9178   94.3368    0.0000    0.0000   -0.0000
       4     -0.0000    0.0000    0.0000   44.9178   -0.0000    0.0000
       5     -0.0000   -0.0000    0.0000   -0.0000   44.9178    0.0000
       6      0.0000    0.0000   -0.0000    0.0000    0.0000   44.9178
-------------------------------------------------------------------------------


  Elastic Compliance Matrix: (Units=1/GPa)

-------------------------------------------------------------------------------
  Indices      1         2         3         4         5         6    
-------------------------------------------------------------------------------
       1    0.015300 -0.004935 -0.004935  0.000000  0.000000 -0.000000
       2   -0.004935  0.015300 -0.004935  0.000000 -0.000000 -0.000000
       3   -0.004935 -0.004935  0.015300 -0.000000 -0.000000  0.000000
       4    0.000000  0.000000 -0.000000  0.022263  0.000000 -0.000000
       5    0.000000 -0.000000 -0.000000  0.000000  0.022263 -0.000000
       6   -0.000000 -0.000000  0.000000 -0.000000 -0.000000  0.022263
-------------------------------------------------------------------------------

  Mechanical properties :

-------------------------------------------------------------------------------
  Convention :                    Reuss         Voigt         Hill
-------------------------------------------------------------------------------
  Bulk  Modulus (GPa)     =      61.39080      61.39080      61.39080
  Shear Modulus (GPa)     =      33.84570      36.83448      35.34009
-------------------------------------------------------------------------------
  Velocity S-wave (km/s)  =       4.12274       4.30092       4.21277
  Velocity P-wave (km/s)  =       7.31386       7.44942       7.38195
-------------------------------------------------------------------------------
  Compressibility (1/GPa) =    0.01628909
-------------------------------------------------------------------------------
  Stress axis :                     x             y             z
-------------------------------------------------------------------------------
  Youngs Moduli (GPa)     =      65.35947      65.35947      65.35947
-------------------------------------------------------------------------------
  Poissons Ratio (x)      =                     0.32256       0.32256
  Poissons Ratio (y)      =       0.32256                     0.32256
  Poissons Ratio (z)      =       0.32256       0.32256
-------------------------------------------------------------------------------


  Piezoelectric Strain Matrix: (Units=C/m**2)

-------------------------------------------------------------------------------
  Indices      1         2         3         4         5         6    
-------------------------------------------------------------------------------
       x     0.00000  -0.00000  -0.00000   0.00000   0.00000  -0.00000
       y    -0.00000   0.00000   0.00000  -0.00000   0.00000  -0.00000
       z    -0.00000   0.00000   0.00000   0.00000  -0.00000   0.00000
-------------------------------------------------------------------------------


  Piezoelectric Stress Matrix: (Units=10**-11 C/N)

-------------------------------------------------------------------------------
  Indices      1         2         3         4         5         6    
-------------------------------------------------------------------------------
       x     0.00000  -0.00000  -0.00000   0.00000   0.00000  -0.00000
       y    -0.00000   0.00000   0.00000  -0.00000   0.00000  -0.00000
       z    -0.00000  -0.00000   0.00000   0.00000  -0.00000   0.00000
-------------------------------------------------------------------------------


  Static dielectric constant tensor : 

-------------------------------------------------------------------------------
              x         y         z
-------------------------------------------------------------------------------
       x    12.11703  -0.00000   0.00000
       y    -0.00000  12.11703   0.00000
       z     0.00000   0.00000  12.11703
--------------------------------------------------------------------------------

  High frequency dielectric constant tensor : 

-------------------------------------------------------------------------------
              x         y         z
-------------------------------------------------------------------------------
       x     1.74104  -0.00000   0.00000
       y    -0.00000   1.74104   0.00000
       z     0.00000   0.00000   1.74104
-------------------------------------------------------------------------------

  Static refractive indices : 

-------------------------------------------------------------------------------
    1 =    3.48095      2 =    3.48095      3 =    3.48095
-------------------------------------------------------------------------------

  High frequency refractive indices : 

-------------------------------------------------------------------------------
    1 =    1.31948      2 =    1.31948      3 =    1.31948
-------------------------------------------------------------------------------


  Time to end of optimisation =       0.0124 seconds

********************************************************************************
*  Defect calculation for configuration   1 :                                  *
********************************************************************************

  Total number of defects =      3

  Total charge on defect  =   2.00

  Defect centre is at   1.9594   1.9594   0.0000  Angs

  Region 1 radius =  20.0000      Number of ions =   3870

  Number of symmetry inequivalent region 1 ions  =   1125

  Region 2 radius =  24.0000      Number of ions =   2888

  Number of symmetry inequivalent region 2a ions =    788

  Region 2a mode = 4 : screened electrostatics due to region 1 
                       neglect correction to region 1 forces from 2a
                       region 2a displacements based on defects only

  Region 2a ions will only interact with defects in region 1

  Vacancies:

--------------------------------------------------------------------------------
    Specification type     Symbol/Number         x          y          z
--------------------------------------------------------------------------------
    Cartesian                                0.000000   0.000000   0.000000
    Cartesian                                3.918873   3.918873   0.000000
--------------------------------------------------------------------------------

  Interstitials:

--------------------------------------------------------------------------------
    Specification type     Symbol/Number         x          y          z
--------------------------------------------------------------------------------
    Atom/Cartesian          O                1.959436   1.959436   0.000000
--------------------------------------------------------------------------------


  Symmetry reduced region 1 (Relative to defect centre) :

--------------------------------------------------------------------------------
   No.   Atomic       x            y             z       Radius  Multiplicity   
         Label      (Angs)       (Angs)        (Angs)    (Angs)     
--------------------------------------------------------------------------------
     1  O     c      0.0000       0.0000       0.0000    0.0000     1    Defect
     2  Li    c      0.0009 *    -1.9594 *     0.0000    0.0000     2          
     3  Cl    c      0.0009 *     0.0009      -1.9603 *  0.0000     2          
     4  Li    c      0.0009 *     1.9612 *     0.0000    0.0000     2          
     5  O     c      1.9612 *    -1.9594 *     0.0000    0.0000     2          
     6  Li    c     -1.9594 *    -1.9594      -1.9603 *  0.0000     2          
     7  Li    c      1.9612 *    -1.9594 *    -1.9603 *  0.0000     4          
     8  Li    c      1.9612 *     1.9612      -1.9603 *  0.0000     2          
     9  Li    c     -3.9198 *    -1.9594 *     0.0000    0.0000     2          
    10  Cl    c      0.0009 *    -3.9198 *    -1.9603 *  0.0000     4          
    11  Li    c      0.0009 *    -1.9594 *     3.9207 *  0.0000     4          
    12  Li    c     -3.9198 *     1.9612 *     0.0000    0.0000     2          
    13  Li    c      0.0009 *     1.9612 *     3.9207 *  0.0000     4          
    14  Li    c      3.9216 *    -1.9594 *     0.0000    0.0000     2          
    15  Cl    c      0.0009 *     3.9216 *    -1.9603 *  0.0000     4          
    16  Li    c      3.9216 *     1.9612 *     0.0000    0.0000     2          
    17  O     c     -1.9594 *    -1.9594       3.9207 *  0.0000     2          
    18  O     c      1.9612 *    -1.9594 *     3.9207 *  0.0000     4          
    19  O     c      1.9612 *     1.9612       3.9207 *  0.0000     2          
    20  Cl    c     -3.9198 *    -3.9198      -1.9603 *  0.0000     2          
    21  Li    c      0.0009 *    -5.8801 *     0.0000    0.0000     2          
    22  Li    c     -3.9198 *    -1.9594 *     3.9207 *  0.0000     4          
    23  Li    c     -3.9198 *     1.9612 *     3.9207 *  0.0000     4          
    24  Cl    c      0.0009 *     0.0009       5.8810 *  0.0000     2          
    25  Cl    c      3.9216 *    -3.9198 *    -1.9603 *  0.0000     4          
    26  Li    c      3.9216 *    -1.9594 *     3.9207 *  0.0000     4          
    27  Li    c      0.0009 *     5.8819 *     0.0000    0.0000     2          
    28  Li    c      3.9216 *     1.9612 *     3.9207 *  0.0000     4          
    29  Cl    c      3.9216 *     3.9216      -1.9603 *  0.0000     2          
    30  O     c     -1.9594 *    -5.8801 *     0.0000    0.0000     2          
    31  O     c      1.9612 *    -5.8801 *     0.0000    0.0000     2          
    32  O     c      5.8819 *    -1.9594 *     0.0000    0.0000     2          
    33  O     c      1.9612 *     5.8819 *     0.0000    0.0000     2          
    34  Li    c     -1.9594 *    -5.8801 *    -1.9603 *  0.0000     4          
    35  Li    c      1.9612 *    -5.8801 *    -1.9603 *  0.0000     4          
    36  Li    c     -1.9594 *    -1.9594       5.8810 *  0.0000     2          
    37  Li    c      1.9612 *    -1.9594 *     5.8810 *  0.0000     4          
    38  Li    c      5.8819 *    -1.9594 *    -1.9603 *  0.0000     4          
    39  Li    c      1.9612 *     1.9612       5.8810 *  0.0000     2          
    40  Li    c      1.9612 *     5.8819 *    -1.9603 *  0.0000     4          
    41  Li    c     -3.9198 *    -5.8801 *     0.0000    0.0000     2          
    42  Li    c      0.0009 *    -5.8801 *     3.9207 *  0.0000     4          
    43  Cl    c      0.0009 *    -3.9198 *     5.8810 *  0.0000     4          
    44  Li    c      3.9216 *    -5.8801 *     0.0000    0.0000     2          
    45  Li    c     -3.9198 *     5.8819 *     0.0000    0.0000     2          
    46  Cl    c      0.0009 *     3.9216 *     5.8810 *  0.0000     4          
    47  Li    c      0.0009 *     5.8819 *     3.9207 *  0.0000     4          
    48  Li    c      3.9216 *     5.8819 *     0.0000    0.0000     2          
    49  O     c     -1.9594 *    -5.8801 *     3.9207 *  0.0000     4          
    50  O     c      1.9612 *    -5.8801 *     3.9207 *  0.0000     4          
    51  O     c      5.8819 *    -1.9594 *     3.9207 *  0.0000     4          
    52  O     c      1.9612 *     5.8819 *     3.9207 *  0.0000     4          
    53  Li    c     -3.9198 *    -5.8801 *     3.9207 *  0.0000     4          
    54  Li    c     -7.8404 *    -1.9594 *     0.0000    0.0000     2          
    55  Cl    c      0.0009 *    -7.8404 *    -1.9603 *  0.0000     4          
    56  Cl    c     -3.9198 *    -3.9198       5.8810 *  0.0000     2          
    57  Li    c     -7.8404 *     1.9612 *     0.0000    0.0000     2          
    58  Li    c      0.0009 *    -1.9594 *     7.8414 *  0.0000     4          
    59  Li    c      3.9216 *    -5.8801 *     3.9207 *  0.0000     4          
    60  Cl    c      3.9216 *    -3.9198 *     5.8810 *  0.0000     4          
    61  Li    c      0.0009 *     1.9612 *     7.8414 *  0.0000     4          
    62  Li    c     -3.9198 *     5.8819 *     3.9207 *  0.0000     4          
    63  Li    c      7.8423 *    -1.9594 *     0.0000    0.0000     2          
    64  Cl    c      0.0009 *     7.8423 *    -1.9603 *  0.0000     4          
    65  Cl    c      3.9216 *     3.9216       5.8810 *  0.0000     2          
    66  Li    c      7.8423 *     1.9612 *     0.0000    0.0000     2          
    67  Li    c      3.9216 *     5.8819 *     3.9207 *  0.0000     4          
    68  O     c     -5.8801 *    -5.8801       0.0000    0.0000     1          
    69  O     c     -1.9594 *    -1.9594       7.8414 *  0.0000     2          
    70  O     c      1.9612 *    -1.9594 *     7.8414 *  0.0000     4          
    71  O     c      5.8819 *    -5.8801 *     0.0000    0.0000     2          
    72  O     c      1.9612 *     1.9612       7.8414 *  0.0000     2          
    73  O     c      5.8819 *     5.8819       0.0000    0.0000     1          
    74  Li    c     -5.8801 *    -5.8801      -1.9603 *  0.0000     2          
    75  Li    c     -1.9594 *    -5.8801 *     5.8810 *  0.0000     4          
    76  Li    c      1.9612 *    -5.8801 *     5.8810 *  0.0000     4          
    77  Li    c      5.8819 *    -5.8801 *    -1.9603 *  0.0000     4          
    78  Li    c      5.8819 *    -1.9594 *     5.8810 *  0.0000     4          
    79  Li    c      1.9612 *     5.8819 *     5.8810 *  0.0000     4          
    80  Li    c      5.8819 *     5.8819      -1.9603 *  0.0000     2          
    81  Cl    c     -3.9198 *    -7.8404 *    -1.9603 *  0.0000     4          
    82  Li    c     -7.8404 *    -1.9594 *     3.9207 *  0.0000     4          
    83  Li    c     -7.8404 *     1.9612 *     3.9207 *  0.0000     4          
    84  Li    c     -3.9198 *    -1.9594 *     7.8414 *  0.0000     4          
    85  Cl    c      3.9216 *    -7.8404 *    -1.9603 *  0.0000     4          
    86  Li    c     -3.9198 *     1.9612 *     7.8414 *  0.0000     4          
    87  Li    c      3.9216 *    -1.9594 *     7.8414 *  0.0000     4          
    88  Cl    c      7.8423 *    -3.9198 *    -1.9603 *  0.0000     4          
    89  Li    c      7.8423 *    -1.9594 *     3.9207 *  0.0000     4          
    90  Li    c      3.9216 *     1.9612 *     7.8414 *  0.0000     4          
    91  Li    c      7.8423 *     1.9612 *     3.9207 *  0.0000     4          
    92  Cl    c      3.9216 *     7.8423 *    -1.9603 *  0.0000     4          
    93  O     c     -5.8801 *    -5.8801       3.9207 *  0.0000     2          
    94  O     c      5.8819 *    -5.8801 *     3.9207 *  0.0000     4          
    95  O     c      5.8819 *     5.8819       3.9207 *  0.0000     2          
    96  Li    c     -7.8404 *    -5.8801 *     0.0000    0.0000     2          
    97  Li    c      0.0009 *    -9.8008 *     0.0000    0.0000     2          
    98  Cl    c      0.0009 *    -7.8404 *     5.8810 *  0.0000     4          
    99  Li    c      0.0009 *    -5.8801 *     7.8414 *  0.0000     4          
   100  Li    c     -7.8404 *     5.8819 *     0.0000    0.0000     2          
   101  Cl    c      0.0009 *     0.0009       9.8017 *  0.0000     2          
   102  Li    c      7.8423 *    -5.8801 *     0.0000    0.0000     2          
   103  Li    c      0.0009 *     5.8819 *     7.8414 *  0.0000     4          
   104  Cl    c      0.0009 *     7.8423 *     5.8810 *  0.0000     4          
   105  Li    c      0.0009 *     9.8026 *     0.0000    0.0000     2          
   106  Li    c      7.8423 *     5.8819 *     0.0000    0.0000     2          
   107  O     c     -1.9594 *    -9.8008 *     0.0000    0.0000     2          
   108  O     c      1.9612 *    -9.8008 *     0.0000    0.0000     2          
   109  O     c     -1.9594 *    -5.8801 *     7.8414 *  0.0000     4          
   110  O     c      1.9612 *    -5.8801 *     7.8414 *  0.0000     4          
   111  O     c      5.8819 *    -1.9594 *     7.8414 *  0.0000     4          
   112  O     c      9.8026 *    -1.9594 *     0.0000    0.0000     2          
   113  O     c      1.9612 *     5.8819 *     7.8414 *  0.0000     4          
   114  O     c      1.9612 *     9.8026 *     0.0000    0.0000     2          
   115  Li    c     -1.9594 *    -9.8008 *    -1.9603 *  0.0000     4          
   116  Li    c     -5.8801 *    -5.8801       5.8810 *  0.0000     2          
   117  Li    c      1.9612 *    -9.8008 *    -1.9603 *  0.0000     4          
   118  Li    c     -1.9594 *    -1.9594       9.8017 *  0.0000     2          
   119  Li    c      1.9612 *    -1.9594 *     9.8017 *  0.0000     4          
   120  Li    c      5.8819 *    -5.8801 *     5.8810 *  0.0000     4          
   121  Li    c      1.9612 *     1.9612       9.8017 *  0.0000     2          
   122  Li    c      9.8026 *    -1.9594 *    -1.9603 *  0.0000     4          
   123  Li    c      1.9612 *     9.8026 *    -1.9603 *  0.0000     4          
   124  Li    c      5.8819 *     5.8819       5.8810 *  0.0000     2          
   125  Li    c     -3.9198 *    -9.8008 *     0.0000    0.0000     2          
   126  Li    c     -7.8404 *    -5.8801 *     3.9207 *  0.0000     4          
   127  Cl    c     -3.9198 *    -7.8404 *     5.8810 *  0.0000     4          
   128  Li    c      0.0009 *    -9.8008 *     3.9207 *  0.0000     4          
   129  Li    c     -3.9198 *    -5.8801 *     7.8414 *  0.0000     4          
   130  Li    c      3.9216 *    -9.8008 *     0.0000    0.0000     2          
   131  Cl    c      0.0009 *    -3.9198 *     9.8017 *  0.0000     4          
   132  Cl    c      3.9216 *    -7.8404 *     5.8810 *  0.0000     4          
   133  Li    c      3.9216 *    -5.8801 *     7.8414 *  0.0000     4          
   134  Li    c     -7.8404 *     5.8819 *     3.9207 *  0.0000     4          
   135  Li    c      7.8423 *    -5.8801 *     3.9207 *  0.0000     4          
   136  Li    c     -3.9198 *     5.8819 *     7.8414 *  0.0000     4          
   137  Cl    c      7.8423 *    -3.9198 *     5.8810 *  0.0000     4          
   138  Cl    c      0.0009 *     3.9216 *     9.8017 *  0.0000     4          
   139  Li    c     -3.9198 *     9.8026 *     0.0000    0.0000     2          
   140  Li    c      0.0009 *     9.8026 *     3.9207 *  0.0000     4          
   141  Li    c      3.9216 *     5.8819 *     7.8414 *  0.0000     4          
   142  Cl    c      3.9216 *     7.8423 *     5.8810 *  0.0000     4          
   143  Li    c      3.9216 *     9.8026 *     0.0000    0.0000     2          
   144  Li    c      7.8423 *     5.8819 *     3.9207 *  0.0000     4          
   145  O     c     -1.9594 *    -9.8008 *     3.9207 *  0.0000     4          
   146  O     c      1.9612 *    -9.8008 *     3.9207 *  0.0000     4          
   147  O     c      9.8026 *    -1.9594 *     3.9207 *  0.0000     4          
   148  O     c      1.9612 *     9.8026 *     3.9207 *  0.0000     4          
   149  Cl    c     -7.8404 *    -7.8404      -1.9603 *  0.0000     2          
   150  Li    c     -3.9198 *    -9.8008 *     3.9207 *  0.0000     4          
   151  Li    c     -7.8404 *    -1.9594 *     7.8414 *  0.0000     4          
   152  Cl    c     -3.9198 *    -3.9198       9.8017 *  0.0000     2          
   153  Li    c      3.9216 *    -9.8008 *     3.9207 *  0.0000     4          
   154  Li    c     -7.8404 *     1.9612 *     7.8414 *  0.0000     4          
   155  Cl    c      3.9216 *    -3.9198 *     9.8017 *  0.0000     4          
   156  Cl    c      7.8423 *    -7.8404 *    -1.9603 *  0.0000     4          
   157  Li    c     -3.9198 *     9.8026 *     3.9207 *  0.0000     4          
   158  Li    c      7.8423 *    -1.9594 *     7.8414 *  0.0000     4          
   159  Cl    c      3.9216 *     3.9216       9.8017 *  0.0000     2          
   160  Li    c      7.8423 *     1.9612 *     7.8414 *  0.0000     4          
   161  Li    c      3.9216 *     9.8026 *     3.9207 *  0.0000     4          
   162  Cl    c      7.8423 *     7.8423      -1.9603 *  0.0000     2          
   163  O     c     -5.8801 *    -9.8008 *     0.0000    0.0000     2          
   164  O     c     -5.8801 *    -5.8801       7.8414 *  0.0000     2          
   165  O     c      5.8819 *    -9.8008 *     0.0000    0.0000     2          
   166  O     c      5.8819 *    -5.8801 *     7.8414 *  0.0000     4          
   167  O     c      9.8026 *    -5.8801 *     0.0000    0.0000     2          
   168  O     c      5.8819 *     5.8819       7.8414 *  0.0000     2          
   169  O     c      5.8819 *     9.8026 *     0.0000    0.0000     2          
   170  Li    c     -5.8801 *    -9.8008 *    -1.9603 *  0.0000     4          
   171  Li    c     -1.9594 *    -9.8008 *     5.8810 *  0.0000     4          
   172  Li    c      1.9612 *    -9.8008 *     5.8810 *  0.0000     4          
   173  Li    c     -1.9594 *    -5.8801 *     9.8017 *  0.0000     4          
   174  Li    c      1.9612 *    -5.8801 *     9.8017 *  0.0000     4          
   175  Li    c      5.8819 *    -9.8008 *    -1.9603 *  0.0000     4          
   176  Li    c      5.8819 *    -1.9594 *     9.8017 *  0.0000     4          
   177  Li    c      9.8026 *    -5.8801 *    -1.9603 *  0.0000     4          
   178  Li    c      1.9612 *     5.8819 *     9.8017 *  0.0000     4          
   179  Li    c      9.8026 *    -1.9594 *     5.8810 *  0.0000     4          
   180  Li    c      1.9612 *     9.8026 *     5.8810 *  0.0000     4          
   181  Li    c      5.8819 *     9.8026 *    -1.9603 *  0.0000     4          
   182  Li    c    -11.7611 *    -1.9594 *     0.0000    0.0000     2          
   183  Cl    c      0.0009 *   -11.7611 *    -1.9603 *  0.0000     4          
   184  Li    c    -11.7611 *     1.9612 *     0.0000    0.0000     2          
   185  Li    c      0.0009 *    -1.9594 *    11.7620 *  0.0000     4          
   186  Li    c      0.0009 *     1.9612 *    11.7620 *  0.0000     4          
   187  Li    c     11.7629 *    -1.9594 *     0.0000    0.0000     2          
   188  Cl    c      0.0009 *    11.7629 *    -1.9603 *  0.0000     4          
   189  Li    c     11.7629 *     1.9612 *     0.0000    0.0000     2          
   190  O     c     -5.8801 *    -9.8008 *     3.9207 *  0.0000     4          
   191  O     c      5.8819 *    -9.8008 *     3.9207 *  0.0000     4          
   192  O     c     -1.9594 *    -1.9594      11.7620 *  0.0000     2          
   193  O     c      1.9612 *    -1.9594 *    11.7620 *  0.0000     4          
   194  O     c      9.8026 *    -5.8801 *     3.9207 *  0.0000     4          
   195  O     c      1.9612 *     1.9612      11.7620 *  0.0000     2          
   196  O     c      5.8819 *     9.8026 *     3.9207 *  0.0000     4          
   197  Li    c     -7.8404 *    -9.8008 *     0.0000    0.0000     2          
   198  Cl    c     -3.9198 *   -11.7611 *    -1.9603 *  0.0000     4          
   199  Cl    c     -7.8404 *    -7.8404       5.8810 *  0.0000     2          
   200  Li    c    -11.7611 *    -1.9594 *     3.9207 *  0.0000     4          
   201  Li    c     -7.8404 *    -5.8801 *     7.8414 *  0.0000     4          
   202  Li    c    -11.7611 *     1.9612 *     3.9207 *  0.0000     4          
   203  Li    c      0.0009 *    -9.8008 *     7.8414 *  0.0000     4          
   204  Cl    c      3.9216 *   -11.7611 *    -1.9603 *  0.0000     4          
   205  Cl    c      0.0009 *    -7.8404 *     9.8017 *  0.0000     4          
   206  Li    c     -3.9198 *    -1.9594 *    11.7620 *  0.0000     4          
   207  Li    c      7.8423 *    -9.8008 *     0.0000    0.0000     2          
   208  Li    c     -3.9198 *     1.9612 *    11.7620 *  0.0000     4          
   209  Li    c     -7.8404 *     5.8819 *     7.8414 *  0.0000     4          
   210  Cl    c      7.8423 *    -7.8404 *     5.8810 *  0.0000     4          
   211  Li    c      3.9216 *    -1.9594 *    11.7620 *  0.0000     4          
   212  Li    c      7.8423 *    -5.8801 *     7.8414 *  0.0000     4          
   213  Li    c     -7.8404 *     9.8026 *     0.0000    0.0000     2          
   214  Li    c      3.9216 *     1.9612 *    11.7620 *  0.0000     4          
   215  Cl    c      0.0009 *     7.8423 *     9.8017 *  0.0000     4          
   216  Cl    c     11.7629 *    -3.9198 *    -1.9603 *  0.0000     4          
   217  Li    c      0.0009 *     9.8026 *     7.8414 *  0.0000     4          
   218  Li    c     11.7629 *    -1.9594 *     3.9207 *  0.0000     4          
   219  Li    c      7.8423 *     5.8819 *     7.8414 *  0.0000     4          
   220  Li    c     11.7629 *     1.9612 *     3.9207 *  0.0000     4          
   221  Cl    c      7.8423 *     7.8423       5.8810 *  0.0000     2          
   222  Cl    c      3.9216 *    11.7629 *    -1.9603 *  0.0000     4          
   223  Li    c      7.8423 *     9.8026 *     0.0000    0.0000     2          
   224  O     c     -1.9594 *    -9.8008 *     7.8414 *  0.0000     4          
   225  O     c      1.9612 *    -9.8008 *     7.8414 *  0.0000     4          
   226  O     c      9.8026 *    -1.9594 *     7.8414 *  0.0000     4          
   227  O     c      1.9612 *     9.8026 *     7.8414 *  0.0000     4          
   228  Li    c     -5.8801 *    -9.8008 *     5.8810 *  0.0000     4          
   229  Li    c     -5.8801 *    -5.8801       9.8017 *  0.0000     2          
   230  Li    c      5.8819 *    -9.8008 *     5.8810 *  0.0000     4          
   231  Li    c      5.8819 *    -5.8801 *     9.8017 *  0.0000     4          
   232  Li    c      9.8026 *    -5.8801 *     5.8810 *  0.0000     4          
   233  Li    c      5.8819 *     5.8819       9.8017 *  0.0000     2          
   234  Li    c      5.8819 *     9.8026 *     5.8810 *  0.0000     4          
   235  Li    c    -11.7611 *    -5.8801 *     0.0000    0.0000     2          
   236  Li    c     -7.8404 *    -9.8008 *     3.9207 *  0.0000     4          
   237  Li    c     -3.9198 *    -9.8008 *     7.8414 *  0.0000     4          
   238  Cl    c      0.0009 *   -11.7611 *     5.8810 *  0.0000     4          
   239  Cl    c     -3.9198 *    -7.8404 *     9.8017 *  0.0000     4          
   240  Li    c    -11.7611 *     5.8819 *     0.0000    0.0000     2          
   241  Li    c      0.0009 *    -5.8801 *    11.7620 *  0.0000     4          
   242  Li    c      3.9216 *    -9.8008 *     7.8414 *  0.0000     4          
   243  Cl    c      3.9216 *    -7.8404 *     9.8017 *  0.0000     4          
   244  Li    c      7.8423 *    -9.8008 *     3.9207 *  0.0000     4          
   245  Li    c     -7.8404 *     9.8026 *     3.9207 *  0.0000     4          
   246  Cl    c      7.8423 *    -3.9198 *     9.8017 *  0.0000     4          
   247  Li    c     -3.9198 *     9.8026 *     7.8414 *  0.0000     4          
   248  Li    c      0.0009 *     5.8819 *    11.7620 *  0.0000     4          
   249  Li    c     11.7629 *    -5.8801 *     0.0000    0.0000     2          
   250  Cl    c      3.9216 *     7.8423 *     9.8017 *  0.0000     4          
   251  Cl    c      0.0009 *    11.7629 *     5.8810 *  0.0000     4          
   252  Li    c      3.9216 *     9.8026 *     7.8414 *  0.0000     4          
   253  Li    c      7.8423 *     9.8026 *     3.9207 *  0.0000     4          
   254  Li    c     11.7629 *     5.8819 *     0.0000    0.0000     2          
   255  O     c     -1.9594 *    -5.8801 *    11.7620 *  0.0000     4          
   256  O     c      1.9612 *    -5.8801 *    11.7620 *  0.0000     4          
   257  O     c      5.8819 *    -1.9594 *    11.7620 *  0.0000     4          
   258  O     c      1.9612 *     5.8819 *    11.7620 *  0.0000     4          
   259  Li    c    -11.7611 *    -5.8801 *     3.9207 *  0.0000     4          
   260  Cl    c     -3.9198 *   -11.7611 *     5.8810 *  0.0000     4          
   261  Li    c      0.0009 *   -13.7215 *     0.0000    0.0000     2          
   262  Li    c     -3.9198 *    -5.8801 *    11.7620 *  0.0000     4          
   263  Cl    c      3.9216 *   -11.7611 *     5.8810 *  0.0000     4          
   264  Li    c    -11.7611 *     5.8819 *     3.9207 *  0.0000     4          
   265  Li    c      3.9216 *    -5.8801 *    11.7620 *  0.0000     4          
   266  Cl    c      0.0009 *     0.0009      13.7224 *  0.0000     2          
   267  Li    c     -3.9198 *     5.8819 *    11.7620 *  0.0000     4          
   268  Li    c     11.7629 *    -5.8801 *     3.9207 *  0.0000     4          
   269  Cl    c     11.7629 *    -3.9198 *     5.8810 *  0.0000     4          
   270  Li    c      3.9216 *     5.8819 *    11.7620 *  0.0000     4          
   271  Li    c      0.0009 *    13.7233 *     0.0000    0.0000     2          
   272  Cl    c      3.9216 *    11.7629 *     5.8810 *  0.0000     4          
   273  Li    c     11.7629 *     5.8819 *     3.9207 *  0.0000     4          
   274  O     c     -9.8008 *    -9.8008       0.0000    0.0000     1          
   275  O     c     -1.9594 *   -13.7215 *     0.0000    0.0000     2          
   276  O     c     -5.8801 *    -9.8008 *     7.8414 *  0.0000     4          
   277  O     c      1.9612 *   -13.7215 *     0.0000    0.0000     2          
   278  O     c      5.8819 *    -9.8008 *     7.8414 *  0.0000     4          
   279  O     c      9.8026 *    -9.8008 *     0.0000    0.0000     2          
   280  O     c      9.8026 *    -5.8801 *     7.8414 *  0.0000     4          
   281  O     c     13.7233 *    -1.9594 *     0.0000    0.0000     2          
   282  O     c      5.8819 *     9.8026 *     7.8414 *  0.0000     4          
   283  O     c      1.9612 *    13.7233 *     0.0000    0.0000     2          
   284  O     c      9.8026 *     9.8026       0.0000    0.0000     1          
   285  Li    c     -9.8008 *    -9.8008      -1.9603 *  0.0000     2          
   286  Li    c     -1.9594 *   -13.7215 *    -1.9603 *  0.0000     4          
   287  Li    c      1.9612 *   -13.7215 *    -1.9603 *  0.0000     4          
   288  Li    c     -1.9594 *    -9.8008 *     9.8017 *  0.0000     4          
   289  Li    c      1.9612 *    -9.8008 *     9.8017 *  0.0000     4          
   290  Li    c     -1.9594 *    -1.9594      13.7224 *  0.0000     2          
   291  Li    c      9.8026 *    -9.8008 *    -1.9603 *  0.0000     4          
   292  Li    c      1.9612 *    -1.9594 *    13.7224 *  0.0000     4          
   293  Li    c      1.9612 *     1.9612      13.7224 *  0.0000     2          
   294  Li    c      9.8026 *    -1.9594 *     9.8017 *  0.0000     4          
   295  Li    c      1.9612 *     9.8026 *     9.8017 *  0.0000     4          
   296  Li    c     13.7233 *    -1.9594 *    -1.9603 *  0.0000     4          
   297  Li    c      1.9612 *    13.7233 *    -1.9603 *  0.0000     4          
   298  Li    c      9.8026 *     9.8026      -1.9603 *  0.0000     2          
   299  Cl    c     -7.8404 *   -11.7611 *    -1.9603 *  0.0000     4          
   300  Li    c     -3.9198 *   -13.7215 *     0.0000    0.0000     2          
   301  Li    c      0.0009 *   -13.7215 *     3.9207 *  0.0000     4          
   302  Li    c    -11.7611 *    -1.9594 *     7.8414 *  0.0000     4          
   303  Li    c      3.9216 *   -13.7215 *     0.0000    0.0000     2          
   304  Li    c    -11.7611 *     1.9612 *     7.8414 *  0.0000     4          
   305  Li    c     -7.8404 *    -1.9594 *    11.7620 *  0.0000     4          
   306  Li    c     -7.8404 *     1.9612 *    11.7620 *  0.0000     4          
   307  Cl    c      7.8423 *   -11.7611 *    -1.9603 *  0.0000     4          
   308  Cl    c      0.0009 *    -3.9198 *    13.7224 *  0.0000     4          
   309  Cl    c      0.0009 *     3.9216 *    13.7224 *  0.0000     4          
   310  Cl    c     11.7629 *    -7.8404 *    -1.9603 *  0.0000     4          
   311  Li    c      7.8423 *    -1.9594 *    11.7620 *  0.0000     4          
   312  Li    c      7.8423 *     1.9612 *    11.7620 *  0.0000     4          
   313  Li    c     11.7629 *    -1.9594 *     7.8414 *  0.0000     4          
   314  Li    c     -3.9198 *    13.7233 *     0.0000    0.0000     2          
   315  Li    c      0.0009 *    13.7233 *     3.9207 *  0.0000     4          
   316  Li    c     11.7629 *     1.9612 *     7.8414 *  0.0000     4          
   317  Li    c      3.9216 *    13.7233 *     0.0000    0.0000     2          
   318  Cl    c      7.8423 *    11.7629 *    -1.9603 *  0.0000     4          
   319  O     c     -9.8008 *    -9.8008       3.9207 *  0.0000     2          
   320  O     c     -1.9594 *   -13.7215 *     3.9207 *  0.0000     4          
   321  O     c      1.9612 *   -13.7215 *     3.9207 *  0.0000     4          
   322  O     c     -5.8801 *    -5.8801      11.7620 *  0.0000     2          
   323  O     c      9.8026 *    -9.8008 *     3.9207 *  0.0000     4          
   324  O     c      5.8819 *    -5.8801 *    11.7620 *  0.0000     4          
   325  O     c      5.8819 *     5.8819      11.7620 *  0.0000     2          
   326  O     c     13.7233 *    -1.9594 *     3.9207 *  0.0000     4          
   327  O     c      1.9612 *    13.7233 *     3.9207 *  0.0000     4          
   328  O     c      9.8026 *     9.8026       3.9207 *  0.0000     2          
   329  Li    c     -3.9198 *   -13.7215 *     3.9207 *  0.0000     4          
   330  Li    c     -7.8404 *    -9.8008 *     7.8414 *  0.0000     4          
   331  Cl    c     -7.8404 *    -7.8404       9.8017 *  0.0000     2          
   332  Li    c      3.9216 *   -13.7215 *     3.9207 *  0.0000     4          
   333  Cl    c     -3.9198 *    -3.9198      13.7224 *  0.0000     2          
   334  Li    c      7.8423 *    -9.8008 *     7.8414 *  0.0000     4          
   335  Cl    c      3.9216 *    -3.9198 *    13.7224 *  0.0000     4          
   336  Cl    c      7.8423 *    -7.8404 *     9.8017 *  0.0000     4          
   337  Li    c     -7.8404 *     9.8026 *     7.8414 *  0.0000     4          
   338  Cl    c      3.9216 *     3.9216      13.7224 *  0.0000     2          
   339  Li    c     -3.9198 *    13.7233 *     3.9207 *  0.0000     4          
   340  Cl    c      7.8423 *     7.8423       9.8017 *  0.0000     2          
   341  Li    c      7.8423 *     9.8026 *     7.8414 *  0.0000     4          
   342  Li    c      3.9216 *    13.7233 *     3.9207 *  0.0000     4          
   343  O     c     -5.8801 *   -13.7215 *     0.0000    0.0000     2          
   344  O     c      5.8819 *   -13.7215 *     0.0000    0.0000     2          
   345  O     c     13.7233 *    -5.8801 *     0.0000    0.0000     2          
   346  O     c      5.8819 *    13.7233 *     0.0000    0.0000     2          
   347  Li    c     -5.8801 *   -13.7215 *    -1.9603 *  0.0000     4          
   348  Li    c     -9.8008 *    -9.8008       5.8810 *  0.0000     2          
   349  Li    c     -1.9594 *   -13.7215 *     5.8810 *  0.0000     4          
   350  Li    c     -5.8801 *    -9.8008 *     9.8017 *  0.0000     4          
   351  Li    c      1.9612 *   -13.7215 *     5.8810 *  0.0000     4          
   352  Li    c      5.8819 *   -13.7215 *    -1.9603 *  0.0000     4          
   353  Li    c     -1.9594 *    -5.8801 *    13.7224 *  0.0000     4          
   354  Li    c      1.9612 *    -5.8801 *    13.7224 *  0.0000     4          
   355  Li    c      5.8819 *    -9.8008 *     9.8017 *  0.0000     4          
   356  Li    c      9.8026 *    -9.8008 *     5.8810 *  0.0000     4          
   357  Li    c      5.8819 *    -1.9594 *    13.7224 *  0.0000     4          
   358  Li    c      9.8026 *    -5.8801 *     9.8017 *  0.0000     4          
   359  Li    c      1.9612 *     5.8819 *    13.7224 *  0.0000     4          
   360  Li    c     13.7233 *    -5.8801 *    -1.9603 *  0.0000     4          
   361  Li    c     13.7233 *    -1.9594 *     5.8810 *  0.0000     4          
   362  Li    c      5.8819 *     9.8026 *     9.8017 *  0.0000     4          
   363  Li    c      1.9612 *    13.7233 *     5.8810 *  0.0000     4          
   364  Li    c      9.8026 *     9.8026       5.8810 *  0.0000     2          
   365  Li    c      5.8819 *    13.7233 *    -1.9603 *  0.0000     4          
   366  Li    c    -11.7611 *    -9.8008 *     0.0000    0.0000     2          
   367  Cl    c     -7.8404 *   -11.7611 *     5.8810 *  0.0000     4          
   368  Li    c    -11.7611 *    -5.8801 *     7.8414 *  0.0000     4          
   369  Li    c     -7.8404 *    -5.8801 *    11.7620 *  0.0000     4          
   370  Cl    c      0.0009 *   -11.7611 *     9.8017 *  0.0000     4          
   371  Li    c      0.0009 *    -9.8008 *    11.7620 *  0.0000     4          
   372  Li    c    -11.7611 *     5.8819 *     7.8414 *  0.0000     4          
   373  Cl    c      7.8423 *   -11.7611 *     5.8810 *  0.0000     4          
   374  Li    c    -11.7611 *     9.8026 *     0.0000    0.0000     2          
   375  Li    c     -7.8404 *     5.8819 *    11.7620 *  0.0000     4          
   376  Li    c      7.8423 *    -5.8801 *    11.7620 *  0.0000     4          
   377  Li    c     11.7629 *    -9.8008 *     0.0000    0.0000     2          
   378  Cl    c     11.7629 *    -7.8404 *     5.8810 *  0.0000     4          
   379  Li    c     11.7629 *    -5.8801 *     7.8414 *  0.0000     4          
   380  Li    c      0.0009 *     9.8026 *    11.7620 *  0.0000     4          
   381  Cl    c      0.0009 *    11.7629 *     9.8017 *  0.0000     4          
   382  Li    c      7.8423 *     5.8819 *    11.7620 *  0.0000     4          
   383  Li    c     11.7629 *     5.8819 *     7.8414 *  0.0000     4          
   384  Cl    c      7.8423 *    11.7629 *     5.8810 *  0.0000     4          
   385  Li    c     11.7629 *     9.8026 *     0.0000    0.0000     2          
   386  O     c     -5.8801 *   -13.7215 *     3.9207 *  0.0000     4          
   387  O     c     -1.9594 *    -9.8008 *    11.7620 *  0.0000     4          
   388  O     c      5.8819 *   -13.7215 *     3.9207 *  0.0000     4          
   389  O     c      1.9612 *    -9.8008 *    11.7620 *  0.0000     4          
   390  O     c      9.8026 *    -1.9594 *    11.7620 *  0.0000     4          
   391  O     c     13.7233 *    -5.8801 *     3.9207 *  0.0000     4          
   392  O     c      1.9612 *     9.8026 *    11.7620 *  0.0000     4          
   393  O     c      5.8819 *    13.7233 *     3.9207 *  0.0000     4          
   394  Li    c     -7.8404 *   -13.7215 *     0.0000    0.0000     2          
   395  Li    c    -11.7611 *    -9.8008 *     3.9207 *  0.0000     4          
   396  Li    c    -15.6818 *    -1.9594 *     0.0000    0.0000     2          
   397  Cl    c     -3.9198 *   -11.7611 *     9.8017 *  0.0000     4          
   398  Cl    c      0.0009 *   -15.6818 *    -1.9603 *  0.0000     4          
   399  Li    c      0.0009 *   -13.7215 *     7.8414 *  0.0000     4          
   400  Li    c     -3.9198 *    -9.8008 *    11.7620 *  0.0000     4          
   401  Li    c    -15.6818 *     1.9612 *     0.0000    0.0000     2          
   402  Cl    c      3.9216 *   -11.7611 *     9.8017 *  0.0000     4          
   403  Cl    c      0.0009 *    -7.8404 *    13.7224 *  0.0000     4          
   404  Li    c      7.8423 *   -13.7215 *     0.0000    0.0000     2          
   405  Li    c      3.9216 *    -9.8008 *    11.7620 *  0.0000     4          
   406  Li    c    -11.7611 *     9.8026 *     3.9207 *  0.0000     4          
   407  Li    c      0.0009 *    -1.9594 *    15.6827 *  0.0000     4          
   408  Li    c      0.0009 *     1.9612 *    15.6827 *  0.0000     4          
   409  Li    c     11.7629 *    -9.8008 *     3.9207 *  0.0000     4          
   410  Li    c     -3.9198 *     9.8026 *    11.7620 *  0.0000     4          
   411  Li    c     -7.8404 *    13.7233 *     0.0000    0.0000     2          
   412  Cl    c      0.0009 *     7.8423 *    13.7224 *  0.0000     4          
   413  Cl    c     11.7629 *    -3.9198 *     9.8017 *  0.0000     4          
   414  Li    c      3.9216 *     9.8026 *    11.7620 *  0.0000     4          
   415  Li    c     15.6836 *    -1.9594 *     0.0000    0.0000     2          
   416  Li    c      0.0009 *    13.7233 *     7.8414 *  0.0000     4          
   417  Cl    c      0.0009 *    15.6836 *    -1.9603 *  0.0000     4          
   418  Cl    c      3.9216 *    11.7629 *     9.8017 *  0.0000     4          
   419  Li    c     15.6836 *     1.9612 *     0.0000    0.0000     2          
   420  Li    c      7.8423 *    13.7233 *     0.0000    0.0000     2          
   421  Li    c     11.7629 *     9.8026 *     3.9207 *  0.0000     4          
   422  O     c     -9.8008 *    -9.8008       7.8414 *  0.0000     2          
   423  O     c     -1.9594 *   -13.7215 *     7.8414 *  0.0000     4          
   424  O     c      1.9612 *   -13.7215 *     7.8414 *  0.0000     4          
   425  O     c     -1.9594 *    -1.9594      15.6827 *  0.0000     2          
   426  O     c      9.8026 *    -9.8008 *     7.8414 *  0.0000     4          
   427  O     c      1.9612 *    -1.9594 *    15.6827 *  0.0000     4          
   428  O     c      1.9612 *     1.9612      15.6827 *  0.0000     2          
   429  O     c     13.7233 *    -1.9594 *     7.8414 *  0.0000     4          
   430  O     c      1.9612 *    13.7233 *     7.8414 *  0.0000     4          
   431  O     c      9.8026 *     9.8026       7.8414 *  0.0000     2          
   432  Li    c     -5.8801 *   -13.7215 *     5.8810 *  0.0000     4          
   433  Li    c     -5.8801 *    -5.8801      13.7224 *  0.0000     2          
   434  Li    c      5.8819 *   -13.7215 *     5.8810 *  0.0000     4          
   435  Li    c      5.8819 *    -5.8801 *    13.7224 *  0.0000     4          
   436  Li    c     13.7233 *    -5.8801 *     5.8810 *  0.0000     4          
   437  Li    c      5.8819 *     5.8819      13.7224 *  0.0000     2          
   438  Li    c      5.8819 *    13.7233 *     5.8810 *  0.0000     4          
   439  Li    c     -7.8404 *   -13.7215 *     3.9207 *  0.0000     4          
   440  Cl    c     -3.9198 *   -15.6818 *    -1.9603 *  0.0000     4          
   441  Li    c     -3.9198 *   -13.7215 *     7.8414 *  0.0000     4          
   442  Li    c    -15.6818 *    -1.9594 *     3.9207 *  0.0000     4          
   443  Li    c    -15.6818 *     1.9612 *     3.9207 *  0.0000     4          
   444  Cl    c      3.9216 *   -15.6818 *    -1.9603 *  0.0000     4          
   445  Cl    c     -3.9198 *    -7.8404 *    13.7224 *  0.0000     4          
   446  Li    c      3.9216 *   -13.7215 *     7.8414 *  0.0000     4          
   447  Li    c      7.8423 *   -13.7215 *     3.9207 *  0.0000     4          
   448  Li    c     -3.9198 *    -1.9594 *    15.6827 *  0.0000     4          
   449  Cl    c      3.9216 *    -7.8404 *    13.7224 *  0.0000     4          
   450  Li    c     -3.9198 *     1.9612 *    15.6827 *  0.0000     4          
   451  Li    c      3.9216 *    -1.9594 *    15.6827 *  0.0000     4          
   452  Cl    c      7.8423 *    -3.9198 *    13.7224 *  0.0000     4          
   453  Li    c      3.9216 *     1.9612 *    15.6827 *  0.0000     4          
   454  Li    c     -7.8404 *    13.7233 *     3.9207 *  0.0000     4          
   455  Li    c     -3.9198 *    13.7233 *     7.8414 *  0.0000     4          
   456  Cl    c      3.9216 *     7.8423 *    13.7224 *  0.0000     4          
   457  Cl    c     15.6836 *    -3.9198 *    -1.9603 *  0.0000     4          
   458  Li    c     15.6836 *    -1.9594 *     3.9207 *  0.0000     4          
   459  Li    c      3.9216 *    13.7233 *     7.8414 *  0.0000     4          
   460  Li    c     15.6836 *     1.9612 *     3.9207 *  0.0000     4          
   461  Cl    c      3.9216 *    15.6836 *    -1.9603 *  0.0000     4          
   462  Li    c      7.8423 *    13.7233 *     3.9207 *  0.0000     4          
   463  O     c     -5.8801 *    -9.8008 *    11.7620 *  0.0000     4          
   464  O     c      5.8819 *    -9.8008 *    11.7620 *  0.0000     4          
   465  O     c      9.8026 *    -5.8801 *    11.7620 *  0.0000     4          
   466  O     c      5.8819 *     9.8026 *    11.7620 *  0.0000     4          
   467  Cl    c    -11.7611 *   -11.7611      -1.9603 *  0.0000     2          
   468  Li    c    -15.6818 *    -5.8801 *     0.0000    0.0000     2          
   469  Cl    c      0.0009 *   -15.6818 *     5.8810 *  0.0000     4          
   470  Li    c    -11.7611 *    -1.9594 *    11.7620 *  0.0000     4          
   471  Li    c    -11.7611 *     1.9612 *    11.7620 *  0.0000     4          
   472  Li    c    -15.6818 *     5.8819 *     0.0000    0.0000     2          
   473  Li    c      0.0009 *    -5.8801 *    15.6827 *  0.0000     4          
   474  Cl    c     11.7629 *   -11.7611 *    -1.9603 *  0.0000     4          
   475  Li    c      0.0009 *     5.8819 *    15.6827 *  0.0000     4          
   476  Li    c     15.6836 *    -5.8801 *     0.0000    0.0000     2          
   477  Li    c     11.7629 *    -1.9594 *    11.7620 *  0.0000     4          
   478  Li    c     11.7629 *     1.9612 *    11.7620 *  0.0000     4          
   479  Cl    c      0.0009 *    15.6836 *     5.8810 *  0.0000     4          
   480  Li    c     15.6836 *     5.8819 *     0.0000    0.0000     2          
   481  Cl    c     11.7629 *    11.7629      -1.9603 *  0.0000     2          
   482  O     c     -9.8008 *   -13.7215 *     0.0000    0.0000     2          
   483  O     c     -5.8801 *   -13.7215 *     7.8414 *  0.0000     4          
   484  O     c      5.8819 *   -13.7215 *     7.8414 *  0.0000     4          
   485  O     c     -1.9594 *    -5.8801 *    15.6827 *  0.0000     4          
   486  O     c      9.8026 *   -13.7215 *     0.0000    0.0000     2          
   487  O     c      1.9612 *    -5.8801 *    15.6827 *  0.0000     4          
   488  O     c      5.8819 *    -1.9594 *    15.6827 *  0.0000     4          
   489  O     c     13.7233 *    -9.8008 *     0.0000    0.0000     2          
   490  O     c      1.9612 *     5.8819 *    15.6827 *  0.0000     4          
   491  O     c     13.7233 *    -5.8801 *     7.8414 *  0.0000     4          
   492  O     c      5.8819 *    13.7233 *     7.8414 *  0.0000     4          
   493  O     c      9.8026 *    13.7233 *     0.0000    0.0000     2          
   494  Li    c     -9.8008 *   -13.7215 *    -1.9603 *  0.0000     4          
   495  Li    c     -9.8008 *    -9.8008       9.8017 *  0.0000     2          
   496  Li    c     -1.9594 *   -13.7215 *     9.8017 *  0.0000     4          
   497  Li    c      1.9612 *   -13.7215 *     9.8017 *  0.0000     4          
   498  Li    c     -1.9594 *    -9.8008 *    13.7224 *  0.0000     4          
   499  Li    c      1.9612 *    -9.8008 *    13.7224 *  0.0000     4          
   500  Li    c      9.8026 *   -13.7215 *    -1.9603 *  0.0000     4          
   501  Li    c      9.8026 *    -9.8008 *     9.8017 *  0.0000     4          
   502  Li    c     13.7233 *    -9.8008 *    -1.9603 *  0.0000     4          
   503  Li    c      9.8026 *    -1.9594 *    13.7224 *  0.0000     4          
   504  Li    c      1.9612 *     9.8026 *    13.7224 *  0.0000     4          
   505  Li    c     13.7233 *    -1.9594 *     9.8017 *  0.0000     4          
   506  Li    c      1.9612 *    13.7233 *     9.8017 *  0.0000     4          
   507  Li    c      9.8026 *     9.8026       9.8017 *  0.0000     2          
   508  Li    c      9.8026 *    13.7233 *    -1.9603 *  0.0000     4          
   509  Li    c    -11.7611 *    -9.8008 *     7.8414 *  0.0000     4          
   510  Li    c    -15.6818 *    -5.8801 *     3.9207 *  0.0000     4          
   511  Cl    c     -7.8404 *   -11.7611 *     9.8017 *  0.0000     4          
   512  Cl    c     -3.9198 *   -15.6818 *     5.8810 *  0.0000     4          
   513  Li    c     -7.8404 *    -9.8008 *    11.7620 *  0.0000     4          
   514  Cl    c      3.9216 *   -15.6818 *     5.8810 *  0.0000     4          
   515  Li    c    -15.6818 *     5.8819 *     3.9207 *  0.0000     4          
   516  Li    c     -3.9198 *    -5.8801 *    15.6827 *  0.0000     4          
   517  Cl    c      7.8423 *   -11.7611 *     9.8017 *  0.0000     4          
   518  Li    c    -11.7611 *     9.8026 *     7.8414 *  0.0000     4          
   519  Li    c      7.8423 *    -9.8008 *    11.7620 *  0.0000     4          
   520  Li    c      3.9216 *    -5.8801 *    15.6827 *  0.0000     4          
   521  Li    c     11.7629 *    -9.8008 *     7.8414 *  0.0000     4          
   522  Li    c     -3.9198 *     5.8819 *    15.6827 *  0.0000     4          
   523  Li    c     -7.8404 *     9.8026 *    11.7620 *  0.0000     4          
   524  Cl    c     11.7629 *    -7.8404 *     9.8017 *  0.0000     4          
   525  Li    c      3.9216 *     5.8819 *    15.6827 *  0.0000     4          
   526  Li    c     15.6836 *    -5.8801 *     3.9207 *  0.0000     4          
   527  Cl    c     15.6836 *    -3.9198 *     5.8810 *  0.0000     4          
   528  Li    c      7.8423 *     9.8026 *    11.7620 *  0.0000     4          
   529  Cl    c      3.9216 *    15.6836 *     5.8810 *  0.0000     4          
   530  Cl    c      7.8423 *    11.7629 *     9.8017 *  0.0000     4          
   531  Li    c     15.6836 *     5.8819 *     3.9207 *  0.0000     4          
   532  Li    c     11.7629 *     9.8026 *     7.8414 *  0.0000     4          
   533  O     c     -9.8008 *   -13.7215 *     3.9207 *  0.0000     4          
   534  O     c      9.8026 *   -13.7215 *     3.9207 *  0.0000     4          
   535  O     c     13.7233 *    -9.8008 *     3.9207 *  0.0000     4          
   536  O     c      9.8026 *    13.7233 *     3.9207 *  0.0000     4          
   537  Cl    c    -11.7611 *   -11.7611       5.8810 *  0.0000     2          
   538  Cl    c     -7.8404 *   -15.6818 *    -1.9603 *  0.0000     4          
   539  Li    c     -7.8404 *   -13.7215 *     7.8414 *  0.0000     4          
   540  Li    c      0.0009 *   -17.6421 *     0.0000    0.0000     2          
   541  Li    c    -11.7611 *    -5.8801 *    11.7620 *  0.0000     4          
   542  Li    c    -15.6818 *    -1.9594 *     7.8414 *  0.0000     4          
   543  Cl    c     -7.8404 *    -7.8404      13.7224 *  0.0000     2          
   544  Li    c    -15.6818 *     1.9612 *     7.8414 *  0.0000     4          
   545  Li    c     -7.8404 *    -1.9594 *    15.6827 *  0.0000     4          
   546  Cl    c      7.8423 *   -15.6818 *    -1.9603 *  0.0000     4          
   547  Li    c      7.8423 *   -13.7215 *     7.8414 *  0.0000     4          
   548  Li    c    -11.7611 *     5.8819 *    11.7620 *  0.0000     4          
   549  Li    c     -7.8404 *     1.9612 *    15.6827 *  0.0000     4          
   550  Cl    c      0.0009 *     0.0009      17.6430 *  0.0000     2          
   551  Cl    c      7.8423 *    -7.8404 *    13.7224 *  0.0000     4          
   552  Cl    c     11.7629 *   -11.7611 *     5.8810 *  0.0000     4          
   553  Li    c      7.8423 *    -1.9594 *    15.6827 *  0.0000     4          
   554  Li    c     11.7629 *    -5.8801 *    11.7620 *  0.0000     4          
   555  Li    c     -7.8404 *    13.7233 *     7.8414 *  0.0000     4          
   556  Cl    c     15.6836 *    -7.8404 *    -1.9603 *  0.0000     4          
   557  Li    c      7.8423 *     1.9612 *    15.6827 *  0.0000     4          
   558  Li    c     15.6836 *    -1.9594 *     7.8414 *  0.0000     4          
   559  Cl    c      7.8423 *     7.8423      13.7224 *  0.0000     2          
   560  Li    c      0.0009 *    17.6439 *     0.0000    0.0000     2          
   561  Li    c     15.6836 *     1.9612 *     7.8414 *  0.0000     4          
   562  Li    c     11.7629 *     5.8819 *    11.7620 *  0.0000     4          
   563  Li    c      7.8423 *    13.7233 *     7.8414 *  0.0000     4          
   564  Cl    c      7.8423 *    15.6836 *    -1.9603 *  0.0000     4          
   565  Cl    c     11.7629 *    11.7629       5.8810 *  0.0000     2          
   566  O     c     -1.9594 *   -17.6421 *     0.0000    0.0000     2          
   567  O     c      1.9612 *   -17.6421 *     0.0000    0.0000     2          
   568  O     c     -5.8801 *    -5.8801      15.6827 *  0.0000     2          
   569  O     c      5.8819 *    -5.8801 *    15.6827 *  0.0000     4          
   570  O     c      5.8819 *     5.8819      15.6827 *  0.0000     2          
   571  O     c     17.6439 *    -1.9594 *     0.0000    0.0000     2          
   572  O     c      1.9612 *    17.6439 *     0.0000    0.0000     2          
   573  Li    c     -9.8008 *   -13.7215 *     5.8810 *  0.0000     4          
   574  Li    c     -5.8801 *   -13.7215 *     9.8017 *  0.0000     4          
   575  Li    c     -1.9594 *   -17.6421 *    -1.9603 *  0.0000     4          
   576  Li    c      1.9612 *   -17.6421 *    -1.9603 *  0.0000     4          
   577  Li    c     -5.8801 *    -9.8008 *    13.7224 *  0.0000     4          
   578  Li    c      5.8819 *   -13.7215 *     9.8017 *  0.0000     4          
   579  Li    c      9.8026 *   -13.7215 *     5.8810 *  0.0000     4          
   580  Li    c      5.8819 *    -9.8008 *    13.7224 *  0.0000     4          
   581  Li    c     -1.9594 *    -1.9594      17.6430 *  0.0000     2          
   582  Li    c      1.9612 *    -1.9594 *    17.6430 *  0.0000     4          
   583  Li    c      1.9612 *     1.9612      17.6430 *  0.0000     2          
   584  Li    c      9.8026 *    -5.8801 *    13.7224 *  0.0000     4          
   585  Li    c     13.7233 *    -9.8008 *     5.8810 *  0.0000     4          
   586  Li    c     13.7233 *    -5.8801 *     9.8017 *  0.0000     4          
   587  Li    c      5.8819 *     9.8026 *    13.7224 *  0.0000     4          
   588  Li    c     17.6439 *    -1.9594 *    -1.9603 *  0.0000     4          
   589  Li    c      1.9612 *    17.6439 *    -1.9603 *  0.0000     4          
   590  Li    c      5.8819 *    13.7233 *     9.8017 *  0.0000     4          
   591  Li    c      9.8026 *    13.7233 *     5.8810 *  0.0000     4          
   592  Li    c    -11.7611 *   -13.7215 *     0.0000    0.0000     2          
   593  Li    c     -3.9198 *   -17.6421 *     0.0000    0.0000     2          
   594  Li    c      0.0009 *   -17.6421 *     3.9207 *  0.0000     4          
   595  Li    c      0.0009 *   -13.7215 *    11.7620 *  0.0000     4          
   596  Li    c      3.9216 *   -17.6421 *     0.0000    0.0000     2          
   597  Cl    c      0.0009 *   -11.7611 *    13.7224 *  0.0000     4          
   598  Cl    c      0.0009 *    -3.9198 *    17.6430 *  0.0000     4          
   599  Li    c     11.7629 *   -13.7215 *     0.0000    0.0000     2          
   600  Li    c    -11.7611 *    13.7233 *     0.0000    0.0000     2          
   601  Cl    c      0.0009 *     3.9216 *    17.6430 *  0.0000     4          
   602  Cl    c      0.0009 *    11.7629 *    13.7224 *  0.0000     4          
   603  Li    c      0.0009 *    13.7233 *    11.7620 *  0.0000     4          
   604  Li    c     -3.9198 *    17.6439 *     0.0000    0.0000     2          
   605  Li    c      0.0009 *    17.6439 *     3.9207 *  0.0000     4          
   606  Li    c      3.9216 *    17.6439 *     0.0000    0.0000     2          
   607  Li    c     11.7629 *    13.7233 *     0.0000    0.0000     2          
   608  O     c     -1.9594 *   -17.6421 *     3.9207 *  0.0000     4          
   609  O     c     -9.8008 *    -9.8008      11.7620 *  0.0000     2          
   610  O     c     -1.9594 *   -13.7215 *    11.7620 *  0.0000     4          
   611  O     c      1.9612 *   -17.6421 *     3.9207 *  0.0000     4          
   612  O     c      1.9612 *   -13.7215 *    11.7620 *  0.0000     4          
   613  O     c      9.8026 *    -9.8008 *    11.7620 *  0.0000     4          
   614  O     c     13.7233 *    -1.9594 *    11.7620 *  0.0000     4          
   615  O     c      1.9612 *    13.7233 *    11.7620 *  0.0000     4          
   616  O     c     17.6439 *    -1.9594 *     3.9207 *  0.0000     4          
   617  O     c      1.9612 *    17.6439 *     3.9207 *  0.0000     4          
   618  O     c      9.8026 *     9.8026      11.7620 *  0.0000     2          
   619  Li    c    -11.7611 *   -13.7215 *     3.9207 *  0.0000     4          
   620  Li    c    -15.6818 *    -9.8008 *     0.0000    0.0000     2          
   621  Cl    c     -7.8404 *   -15.6818 *     5.8810 *  0.0000     4          
   622  Li    c     -3.9198 *   -17.6421 *     3.9207 *  0.0000     4          
   623  Li    c    -15.6818 *    -5.8801 *     7.8414 *  0.0000     4          
   624  Li    c     -3.9198 *   -13.7215 *    11.7620 *  0.0000     4          
   625  Cl    c     -3.9198 *   -11.7611 *    13.7224 *  0.0000     4          
   626  Cl    c      0.0009 *   -15.6818 *     9.8017 *  0.0000     4          
   627  Li    c      3.9216 *   -17.6421 *     3.9207 *  0.0000     4          
   628  Li    c     -7.8404 *    -5.8801 *    15.6827 *  0.0000     4          
   629  Li    c      3.9216 *   -13.7215 *    11.7620 *  0.0000     4          
   630  Li    c    -15.6818 *     5.8819 *     7.8414 *  0.0000     4          
   631  Li    c      0.0009 *    -9.8008 *    15.6827 *  0.0000     4          
   632  Cl    c      3.9216 *   -11.7611 *    13.7224 *  0.0000     4          
   633  Cl    c      7.8423 *   -15.6818 *     5.8810 *  0.0000     4          
   634  Cl    c     -3.9198 *    -3.9198      17.6430 *  0.0000     2          
   635  Li    c    -15.6818 *     9.8026 *     0.0000    0.0000     2          
   636  Li    c     11.7629 *   -13.7215 *     3.9207 *  0.0000     4          
   637  Li    c     -7.8404 *     5.8819 *    15.6827 *  0.0000     4          
   638  Cl    c      3.9216 *    -3.9198 *    17.6430 *  0.0000     4          
   639  Li    c      7.8423 *    -5.8801 *    15.6827 *  0.0000     4          
   640  Li    c    -11.7611 *    13.7233 *     3.9207 *  0.0000     4          
   641  Li    c     15.6836 *    -9.8008 *     0.0000    0.0000     2          
   642  Cl    c      3.9216 *     3.9216      17.6430 *  0.0000     2          
   643  Cl    c     15.6836 *    -7.8404 *     5.8810 *  0.0000     4          
   644  Cl    c     11.7629 *    -3.9198 *    13.7224 *  0.0000     4          
   645  Li    c      0.0009 *     9.8026 *    15.6827 *  0.0000     4          
   646  Li    c     15.6836 *    -5.8801 *     7.8414 *  0.0000     4          
   647  Li    c     -3.9198 *    13.7233 *    11.7620 *  0.0000     4          
   648  Li    c      7.8423 *     5.8819 *    15.6827 *  0.0000     4          
   649  Li    c     -3.9198 *    17.6439 *     3.9207 *  0.0000     4          
   650  Cl    c      0.0009 *    15.6836 *     9.8017 *  0.0000     4          
   651  Cl    c      3.9216 *    11.7629 *    13.7224 *  0.0000     4          
   652  Li    c      3.9216 *    13.7233 *    11.7620 *  0.0000     4          
   653  Li    c     15.6836 *     5.8819 *     7.8414 *  0.0000     4          
   654  Li    c      3.9216 *    17.6439 *     3.9207 *  0.0000     4          
   655  Cl    c      7.8423 *    15.6836 *     5.8810 *  0.0000     4          
   656  Li    c     15.6836 *     9.8026 *     0.0000    0.0000     2          
   657  Li    c     11.7629 *    13.7233 *     3.9207 *  0.0000     4          
   658  O     c     -5.8801 *   -17.6421 *     0.0000    0.0000     2          
   659  O     c     -9.8008 *   -13.7215 *     7.8414 *  0.0000     4          
   660  O     c      5.8819 *   -17.6421 *     0.0000    0.0000     2          
   661  O     c     -1.9594 *    -9.8008 *    15.6827 *  0.0000     4          
   662  O     c      1.9612 *    -9.8008 *    15.6827 *  0.0000     4          
   663  O     c      9.8026 *   -13.7215 *     7.8414 *  0.0000     4          
   664  O     c     13.7233 *    -9.8008 *     7.8414 *  0.0000     4          
   665  O     c      9.8026 *    -1.9594 *    15.6827 *  0.0000     4          
   666  O     c     17.6439 *    -5.8801 *     0.0000    0.0000     2          
   667  O     c      1.9612 *     9.8026 *    15.6827 *  0.0000     4          
   668  O     c      5.8819 *    17.6439 *     0.0000    0.0000     2          
   669  O     c      9.8026 *    13.7233 *     7.8414 *  0.0000     4          
   670  Li    c     -5.8801 *   -17.6421 *    -1.9603 *  0.0000     4          
   671  Li    c     -1.9594 *   -17.6421 *     5.8810 *  0.0000     4          
   672  Li    c      1.9612 *   -17.6421 *     5.8810 *  0.0000     4          
   673  Li    c      5.8819 *   -17.6421 *    -1.9603 *  0.0000     4          
   674  Li    c     -1.9594 *    -5.8801 *    17.6430 *  0.0000     4          
   675  Li    c      1.9612 *    -5.8801 *    17.6430 *  0.0000     4          
   676  Li    c      5.8819 *    -1.9594 *    17.6430 *  0.0000     4          
   677  Li    c      1.9612 *     5.8819 *    17.6430 *  0.0000     4          
   678  Li    c     17.6439 *    -5.8801 *    -1.9603 *  0.0000     4          
   679  Li    c     17.6439 *    -1.9594 *     5.8810 *  0.0000     4          
   680  Li    c      1.9612 *    17.6439 *     5.8810 *  0.0000     4          
   681  Li    c      5.8819 *    17.6439 *    -1.9603 *  0.0000     4          
   682  Li    c    -15.6818 *    -9.8008 *     3.9207 *  0.0000     4          
   683  Cl    c     -3.9198 *   -15.6818 *     9.8017 *  0.0000     4          
   684  Li    c     -3.9198 *    -9.8008 *    15.6827 *  0.0000     4          
   685  Cl    c      3.9216 *   -15.6818 *     9.8017 *  0.0000     4          
   686  Li    c    -15.6818 *     9.8026 *     3.9207 *  0.0000     4          
   687  Li    c      3.9216 *    -9.8008 *    15.6827 *  0.0000     4          
   688  Li    c     15.6836 *    -9.8008 *     3.9207 *  0.0000     4          
   689  Li    c     -3.9198 *     9.8026 *    15.6827 *  0.0000     4          
   690  Cl    c     15.6836 *    -3.9198 *     9.8017 *  0.0000     4          
   691  Li    c      3.9216 *     9.8026 *    15.6827 *  0.0000     4          
   692  Cl    c      3.9216 *    15.6836 *     9.8017 *  0.0000     4          
   693  Li    c     15.6836 *     9.8026 *     3.9207 *  0.0000     4          
   694  O     c     -5.8801 *   -17.6421 *     3.9207 *  0.0000     4          
   695  O     c     -5.8801 *   -13.7215 *    11.7620 *  0.0000     4          
   696  O     c      5.8819 *   -17.6421 *     3.9207 *  0.0000     4          
   697  O     c      5.8819 *   -13.7215 *    11.7620 *  0.0000     4          
   698  O     c     13.7233 *    -5.8801 *    11.7620 *  0.0000     4          
   699  O     c     17.6439 *    -5.8801 *     3.9207 *  0.0000     4          
[...]
   1045 y        -15.682702    -15.681584     0.001118    Cartesian   -0.01
   1045 z          3.920675      3.920865     0.000190    Cartesian    0.00
   1046 x          3.920675      3.920912     0.000236    Cartesian    0.01
   1046 y        -11.762026    -11.765228    -0.003202    Cartesian    0.03
   1046 z         11.762026     11.763958     0.001931    Cartesian    0.02
   1047 x         11.762026     11.764946     0.002919    Cartesian    0.02
   1047 y         -7.841351     -7.844269    -0.002918    Cartesian    0.04
   1047 z         11.762026     11.763443     0.001416    Cartesian    0.01
   1048 x         15.682702     15.685909     0.003207    Cartesian    0.02
   1048 y          0.000000     -0.000238    -0.000238    Cartesian    0.00
   1048 z         11.762026     11.763961     0.001934    Cartesian    0.02
   1049 x          3.920675      3.921064     0.000389    Cartesian    0.01
   1049 y         15.682702     15.686175     0.003473    Cartesian    0.02
   1049 z         11.762026     11.764175     0.002149    Cartesian    0.02
   1050 x         19.603377     19.602261    -0.001117    Cartesian   -0.01
   1050 y          0.000000     -0.000651    -0.000651    Cartesian    0.00
   1050 z          3.920675      3.920865     0.000189    Cartesian    0.00
   1051 x          3.920675      3.921347     0.000672    Cartesian    0.02
   1051 y         19.603377     19.602238    -0.001140    Cartesian   -0.01
   1051 z          3.920675      3.920941     0.000265    Cartesian    0.01
   1052 x         11.762026     11.764523     0.002496    Cartesian    0.02
   1052 y         11.762026     11.764523     0.002496    Cartesian    0.02
   1052 z         11.762026     11.762981     0.000954    Cartesian    0.01
   1053 x         -5.881013     -5.879505     0.001508    Cartesian   -0.03
   1053 y        -13.722364    -13.717113     0.005251    Cartesian   -0.04
   1053 z          5.881013      5.879157    -0.001856    Cartesian   -0.03
   1054 x         -1.960338     -1.961184    -0.000846    Cartesian    0.04
   1054 y         -9.801689     -9.801841    -0.000152    Cartesian    0.00
   1054 z         13.722364     13.718640    -0.003724    Cartesian   -0.03
   1055 x          1.960338      1.959857    -0.000481    Cartesian   -0.02
   1055 y        -13.722364    -13.718417     0.003947    Cartesian   -0.03
   1055 z          9.801689      9.798764    -0.002925    Cartesian   -0.03
   1056 x          5.881013      5.881065     0.000052    Cartesian    0.00
   1056 y         -9.801689     -9.801873    -0.000184    Cartesian    0.00
   1056 z         13.722364     13.719167    -0.003197    Cartesian   -0.02
   1057 x          9.801689      9.799519    -0.002169    Cartesian   -0.02
   1057 y        -13.722364    -13.717612     0.004752    Cartesian   -0.03
   1057 z          5.881013      5.879418    -0.001595    Cartesian   -0.03
   1058 x         -1.960338     -1.960714    -0.000376    Cartesian    0.02
   1058 y         -1.960338     -1.960714    -0.000376    Cartesian    0.02
   1058 z         17.643040     17.638412    -0.004628    Cartesian   -0.03
   1059 x          5.881013      5.881249     0.000236    Cartesian    0.00
   1059 y         -1.960338     -1.960573    -0.000235    Cartesian    0.01
   1059 z         17.643040     17.638585    -0.004455    Cartesian   -0.03
   1060 x          5.881013      5.881391     0.000378    Cartesian    0.01
   1060 y          5.881013      5.881391     0.000378    Cartesian    0.01
   1060 z         17.643040     17.638414    -0.004626    Cartesian   -0.03
   1061 x         17.643040     17.638288    -0.004751    Cartesian   -0.03
   1061 y         -5.881013     -5.878842     0.002171    Cartesian   -0.04
   1061 z          5.881013      5.879418    -0.001596    Cartesian   -0.03
   1062 x         13.722364     13.722553     0.000188    Cartesian    0.00
   1062 y         -1.960338     -1.960392    -0.000054    Cartesian    0.00
   1062 z         13.722364     13.719170    -0.003194    Cartesian   -0.02
   1063 x          1.960338      1.960819     0.000482    Cartesian    0.02
   1063 y         17.643040     17.639096    -0.003943    Cartesian   -0.02
   1063 z          9.801689      9.798764    -0.002924    Cartesian   -0.03
   1064 x          5.881013      5.881863     0.000850    Cartesian    0.01
   1064 y         13.722364     13.722525     0.000161    Cartesian    0.00
   1064 z         13.722364     13.718647    -0.003717    Cartesian   -0.03
   1065 x          9.801689      9.800184    -0.001504    Cartesian   -0.02
   1065 y         17.643040     17.637792    -0.005247    Cartesian   -0.03
   1065 z          5.881013      5.879158    -0.001855    Cartesian   -0.03
   1066 x         -3.920675     -3.921115    -0.000439    Cartesian    0.01
   1066 y        -15.682702    -15.681869     0.000833    Cartesian   -0.01
   1066 z          0.000000      0.000000     0.000000    Cartesian    0.00
   1067 x         -7.841351     -7.841412    -0.000061    Cartesian    0.00
   1067 y        -11.762026    -11.762117    -0.000090    Cartesian    0.00
   1067 z          7.841351      7.840794    -0.000557    Cartesian   -0.01
   1068 x          7.841351      7.841798     0.000447    Cartesian    0.01
   1068 y        -15.682702    -15.681897     0.000805    Cartesian   -0.01
   1068 z          0.000000      0.000000     0.000000    Cartesian    0.00
   1069 x          0.000000     -0.000385    -0.000385    Cartesian    0.00
   1069 y         -7.841351     -7.844512    -0.003161    Cartesian    0.04
   1069 z         15.682702     15.683873     0.001171    Cartesian    0.01
   1070 x          3.920675      3.920842     0.000167    Cartesian    0.00
   1070 y         -7.841351     -7.844628    -0.003277    Cartesian    0.04
   1070 z         15.682702     15.683967     0.001265    Cartesian    0.01
   1071 x         11.762026     11.762413     0.000386    Cartesian    0.00
   1071 y        -11.762026    -11.762641    -0.000615    Cartesian    0.01
   1071 z          7.841351      7.841158    -0.000193    Cartesian   -0.00
   1072 x         15.682702     15.683318     0.000616    Cartesian    0.00
   1072 y         -7.841351     -7.841736    -0.000385    Cartesian    0.00
   1072 z          7.841351      7.841157    -0.000194    Cartesian   -0.00
   1073 x         11.762026     11.765307     0.003280    Cartesian    0.03
   1073 y          0.000000     -0.000168    -0.000168    Cartesian    0.00
   1073 z         15.682702     15.683970     0.001268    Cartesian    0.01
   1074 x         19.603377     19.602573    -0.000805    Cartesian   -0.00
   1074 y         -3.920675     -3.921121    -0.000445    Cartesian    0.01
   1074 z          0.000000      0.000000     0.000000    Cartesian    0.00
   1075 x          3.920675      3.921061     0.000386    Cartesian    0.01
   1075 y         11.762026     11.765192     0.003166    Cartesian    0.03
   1075 z         15.682702     15.683879     0.001177    Cartesian    0.01
   1076 x          7.841351      7.841791     0.000440    Cartesian    0.01
   1076 y         19.603377     19.602547    -0.000830    Cartesian   -0.00
   1076 z          0.000000      0.000000     0.000000    Cartesian    0.00
   1077 x         11.762026     11.762093     0.000066    Cartesian    0.00
   1077 y         15.682702     15.682798     0.000096    Cartesian    0.00
   1077 z          7.841351      7.840796    -0.000555    Cartesian   -0.01
   1078 x         -1.960338     -1.959920     0.000418    Cartesian   -0.02
   1078 y        -13.722364    -13.717264     0.005100    Cartesian   -0.04
   1078 z          9.801689      9.797879    -0.003810    Cartesian   -0.04
   1079 x          5.881013      5.879653    -0.001361    Cartesian   -0.02
   1079 y        -13.722364    -13.717413     0.004951    Cartesian   -0.04
   1079 z          9.801689      9.798015    -0.003674    Cartesian   -0.04
   1080 x         17.643040     17.638091    -0.004949    Cartesian   -0.03
   1080 y         -1.960338     -1.958977     0.001361    Cartesian   -0.07
   1080 z          9.801689      9.798015    -0.003674    Cartesian   -0.04
   1081 x          5.881013      5.880597    -0.000416    Cartesian   -0.01
   1081 y         17.643040     17.637944    -0.005096    Cartesian   -0.03
   1081 z          9.801689      9.797881    -0.003808    Cartesian   -0.04
   1082 x         -3.920675     -3.920997    -0.000321    Cartesian    0.01
   1082 y        -15.682702    -15.681997     0.000705    Cartesian   -0.00
   1082 z          3.920675      3.920626    -0.000049    Cartesian   -0.00
   1083 x         -3.920675     -3.920687    -0.000012    Cartesian    0.00
   1083 y        -11.762026    -11.761502     0.000524    Cartesian   -0.00
   1083 z         11.762026     11.760282    -0.001745    Cartesian   -0.01
   1084 x          7.841351      7.841641     0.000290    Cartesian    0.00
   1084 y        -15.682702    -15.682025     0.000677    Cartesian   -0.00
   1084 z          3.920675      3.920638    -0.000038    Cartesian   -0.00
   1085 x          7.841351      7.841167    -0.000184    Cartesian   -0.00
   1085 y        -11.762026    -11.761784     0.000243    Cartesian   -0.00
   1085 z         11.762026     11.760435    -0.001591    Cartesian   -0.01
   1086 x         15.682702     15.682461    -0.000241    Cartesian   -0.00
   1086 y         -3.920675     -3.920492     0.000183    Cartesian   -0.00
   1086 z         11.762026     11.760436    -0.001591    Cartesian   -0.01
   1087 x         19.603377     19.602701    -0.000677    Cartesian   -0.00
   1087 y         -3.920675     -3.920964    -0.000289    Cartesian    0.01
   1087 z          3.920675      3.920637    -0.000038    Cartesian   -0.00
   1088 x          7.841351      7.841365     0.000014    Cartesian    0.00
   1088 y         15.682702     15.682183    -0.000519    Cartesian   -0.00
   1088 z         11.762026     11.760285    -0.001741    Cartesian   -0.01
   1089 x          7.841351      7.841674     0.000323    Cartesian    0.00
   1089 y         19.603377     19.602675    -0.000703    Cartesian   -0.00
   1089 z          3.920675      3.920627    -0.000049    Cartesian   -0.00
   1090 x         -9.801689     -9.797844     0.003845    Cartesian   -0.04
   1090 y         -9.801689     -9.797844     0.003845    Cartesian   -0.04
   1090 z          9.801689      9.796436    -0.005253    Cartesian   -0.05
   1091 x          1.960338      1.960133    -0.000204    Cartesian   -0.01
   1091 y         -5.881013     -5.879613     0.001401    Cartesian   -0.02
   1091 z         17.643040     17.635639    -0.007401    Cartesian   -0.04
   1092 x         13.722364     13.719702    -0.002662    Cartesian   -0.02
   1092 y         -9.801689     -9.799025     0.002664    Cartesian   -0.03
   1092 z          9.801689      9.798325    -0.003364    Cartesian   -0.03
   1093 x          1.960338      1.960542     0.000205    Cartesian    0.01
   1093 y          9.801689      9.800291    -0.001398    Cartesian   -0.01
   1093 z         17.643040     17.635640    -0.007399    Cartesian   -0.04
   1094 x         13.722364     13.718527    -0.003837    Cartesian   -0.03
   1094 y         13.722364     13.718527    -0.003837    Cartesian   -0.03
   1094 z          9.801689      9.796439    -0.005250    Cartesian   -0.05
   1095 x        -11.762026    -11.759704     0.002322    Cartesian   -0.02
   1095 y        -11.762026    -11.759704     0.002322    Cartesian   -0.02
   1095 z          0.000000      0.000000     0.000000    Cartesian    0.00
   1096 x          0.000000     -0.000144    -0.000144    Cartesian    0.00
   1096 y        -15.682702    -15.680319     0.002383    Cartesian   -0.02
   1096 z          7.841351      7.839627    -0.001724    Cartesian   -0.02
   1097 x          3.920675      3.920575    -0.000100    Cartesian   -0.00
   1097 y        -15.682702    -15.680277     0.002425    Cartesian   -0.02
   1097 z          7.841351      7.839648    -0.001703    Cartesian   -0.02
   1098 x         -3.920675     -3.919742     0.000934    Cartesian   -0.02
   1098 y         -7.841351     -7.840597     0.000754    Cartesian   -0.01
   1098 z         15.682702     15.680064    -0.002638    Cartesian   -0.02
   1099 x          7.841351      7.840348    -0.001003    Cartesian   -0.01
   1099 y         -7.841351     -7.840644     0.000707    Cartesian   -0.01
   1099 z         15.682702     15.680323    -0.002379    Cartesian   -0.02
   1100 x         15.682702     15.680634    -0.002068    Cartesian   -0.01
   1100 y        -11.762026    -11.759958     0.002069    Cartesian   -0.02
   1100 z          0.000000      0.000000     0.000000    Cartesian    0.00
   1101 x         11.762026     11.761320    -0.000706    Cartesian   -0.01
   1101 y         -3.920675     -3.919673     0.001003    Cartesian   -0.03
   1101 z         15.682702     15.680324    -0.002378    Cartesian   -0.02
   1102 x          7.841351      7.840419    -0.000932    Cartesian   -0.01
   1102 y         11.762026     11.761275    -0.000751    Cartesian   -0.01
   1102 z         15.682702     15.680068    -0.002634    Cartesian   -0.02
   1103 x         19.603377     19.600954    -0.002424    Cartesian   -0.01
   1103 y          0.000000      0.000101     0.000101    Cartesian    0.00
   1103 z          7.841351      7.839647    -0.001704    Cartesian   -0.02
   1104 x          3.920675      3.920820     0.000144    Cartesian    0.00
   1104 y         19.603377     19.600996    -0.002382    Cartesian   -0.01
   1104 z          7.841351      7.839628    -0.001723    Cartesian   -0.02
   1105 x         15.682702     15.680382    -0.002320    Cartesian   -0.01
   1105 y         15.682702     15.680382    -0.002320    Cartesian   -0.01
   1105 z          0.000000      0.000000     0.000000    Cartesian    0.00
   1106 x         -9.801689     -9.795655     0.006034    Cartesian   -0.06
   1106 y        -13.722364    -13.713554     0.008810    Cartesian   -0.06
   1106 z         -1.960338     -1.958747     0.001590    Cartesian   -0.08
   1107 x         -5.881013     -5.878349     0.002664    Cartesian   -0.05
   1107 y         -9.801689     -9.797900     0.003789    Cartesian   -0.04
   1107 z         13.722364     13.715208    -0.007157    Cartesian   -0.05
   1108 x          1.960338      1.960069    -0.000268    Cartesian   -0.01
   1108 y        -17.643040    -17.630564     0.012476    Cartesian   -0.07
   1108 z         -1.960338     -1.959056     0.001281    Cartesian   -0.07
   1109 x         -1.960338     -1.958929     0.001409    Cartesian   -0.07
   1109 y         -5.881013     -5.878799     0.002214    Cartesian   -0.04
   1109 z         17.643040     17.634563    -0.008477    Cartesian   -0.05
   1110 x          9.801689      9.798730    -0.002959    Cartesian   -0.03
   1110 y         -9.801689     -9.798073     0.003616    Cartesian   -0.04
   1110 z         13.722364     13.715809    -0.006555    Cartesian   -0.05
   1111 x          5.881013      5.879344    -0.001669    Cartesian   -0.03
   1111 y         -5.881013     -5.878769     0.002244    Cartesian   -0.04
   1111 z         17.643040     17.634864    -0.008175    Cartesian   -0.05
   1112 x         13.722364     13.716230    -0.006134    Cartesian   -0.04
   1112 y        -13.722364    -13.714170     0.008194    Cartesian   -0.06
   1112 z         -1.960338     -1.958820     0.001518    Cartesian   -0.08
   1113 x          9.801689      9.799446    -0.002243    Cartesian   -0.02
   1113 y         -1.960338     -1.958669     0.001669    Cartesian   -0.09
   1113 z         17.643040     17.634865    -0.008175    Cartesian   -0.05
   1114 x         17.643040     17.634846    -0.008194    Cartesian   -0.05
   1114 y         -9.801689     -9.795552     0.006136    Cartesian   -0.06
   1114 z         -1.960338     -1.958820     0.001518    Cartesian   -0.08
   1115 x         13.722364     13.718750    -0.003614    Cartesian   -0.03
   1115 y         -5.881013     -5.878055     0.002959    Cartesian   -0.05
   1115 z         13.722364     13.715810    -0.006555    Cartesian   -0.05
   1116 x          5.881013      5.879605    -0.001408    Cartesian   -0.02
   1116 y          9.801689      9.799478    -0.002211    Cartesian   -0.02
   1116 z         17.643040     17.634566    -0.008474    Cartesian   -0.05
   1117 x          9.801689      9.799027    -0.002661    Cartesian   -0.03
   1117 y         13.722364     13.718582    -0.003782    Cartesian   -0.03
   1117 z         13.722364     13.715213    -0.007151    Cartesian   -0.05
   1118 x          1.960338      1.960607     0.000269    Cartesian    0.01
   1118 y         21.563715     21.551240    -0.012475    Cartesian   -0.06
   1118 z         -1.960338     -1.959056     0.001282    Cartesian   -0.07
   1119 x         13.722364     13.716333    -0.006031    Cartesian   -0.04
   1119 y         17.643040     17.634233    -0.008806    Cartesian   -0.05
   1119 z         -1.960338     -1.958747     0.001590    Cartesian   -0.08
   1120 x        -11.762026    -11.758196     0.003831    Cartesian   -0.03
   1120 y        -11.762026    -11.758196     0.003831    Cartesian   -0.03
   1120 z          3.920675      3.918561    -0.002114    Cartesian   -0.05
   1121 x          0.000000      0.001125     0.001125    Cartesian    0.00
   1121 y          0.000000      0.001125     0.001125    Cartesian    0.00
   1121 z         19.603377     19.599202    -0.004176    Cartesian   -0.02
   1122 x          3.920675      3.919527    -0.001148    Cartesian   -0.03
   1122 y          0.000000      0.001149     0.001149    Cartesian    0.00
   1122 z         19.603377     19.599200    -0.004178    Cartesian   -0.02
   1123 x         15.682702     15.679379    -0.003323    Cartesian   -0.02
   1123 y        -11.762026    -11.758703     0.003324    Cartesian   -0.03
   1123 z          3.920675      3.918601    -0.002074    Cartesian   -0.05
   1124 x          3.920675      3.919551    -0.001124    Cartesian   -0.03
   1124 y          3.920675      3.919551    -0.001124    Cartesian   -0.03
   1124 z         19.603377     19.599202    -0.004175    Cartesian   -0.02
   1125 x         15.682702     15.678874    -0.003828    Cartesian   -0.02
   1125 y         15.682702     15.678874    -0.003828    Cartesian   -0.02
   1125 z          3.920675      3.918561    -0.002115    Cartesian   -0.05
--------------------------------------------------------------------------------


  Time to end of optimisation  =      746.5145 seconds


  Peak dynamic memory used =    1230.46 MB 


  Timing analysis for GULP :

--------------------------------------------------------------------------------
  Task / Subroutine                                          Time (Seconds)
--------------------------------------------------------------------------------
  Calculation of reciprocal space energy and derivatives          0.0002
  Calculation of reciprocal space energy using symmetry           0.0003
  Calculation of real space energy and derivatives                0.0018
  Calculation of real space energy using symmetry                 0.0039
  Calculation for region 1 energy and derivatives (2-b)         267.0483
  Calculation for region 2a energy                               90.4789
  Calculation for region 2b energy                                0.0030
  Calculation and manipulation of Hessian matrix                346.2416
  Calculation of matrix inversion                                41.1097
  Symmetry generation of equivalent positions                     0.0018
--------------------------------------------------------------------------------
  Total CPU time                                                746.5145
--------------------------------------------------------------------------------


  Dump file written as Li3OCl.grs


  Job Finished at 15:22.04 28th October    2020                               

