********************************************************************************
*                       GENERAL UTILITY LATTICE PROGRAM                        *
*                                 Julian Gale                                  *
*                       Curtin Institute for Computation                       *
*                    School of Molecular and Life Sciences                     *
*                    Curtin University, Western Australia                      *
********************************************************************************
* Version = 5.2.0 * Last modified =  10th September 2020                       *
********************************************************************************
*  optimise     - perform optimisation run                                     *
*  conp         - constant pressure calculation                                *
*  property     - calculate properties for final geometry                      *
*  defect       - perform defect calculation after bulk run                    *
*  compare      - compare initial and final structures                         *
********************************************************************************

  Job Started  at 14:36.54 28th October    2020                               

  Number of CPUs =     1


  Total number of configurations input =      1

********************************************************************************
*  Input for Configuration =   1                                               *
********************************************************************************

  Formula = ClOLi3                                                      

  Number of irreducible atoms/shells =       5


  Total number atoms/shells =       7

  Dimensionality = 3               :  Bulk   


  Symmetry :

  Crystal family                   :  Cubic       
  Crystal class  (Groth - 1921)    :  Cubic Hexakisoctahedral              

  Space group (centrosymmetric)    :  P M 3 M         

  Patterson group                  :  P m -3 m 

  Cartesian lattice vectors (Angstroms) :

        3.918873    0.000000    0.000000
        0.000000    3.918873    0.000000
        0.000000    0.000000    3.918873

  Cell parameters (Angstroms/Degrees):

  a =       3.9189    alpha =  90.0000
  b =       3.9189    beta  =  90.0000
  c =       3.9189    gamma =  90.0000

  Initial cell volume =          60.184349 Angs**3

  Temperature of configuration =   0.00     K 

  Pressure of configuration =         0.000 GPa 

  Fractional coordinates of asymmetric unit :

--------------------------------------------------------------------------------
   No.  Atomic       x           y          z         Charge      Occupancy
        Label      (Frac)      (Frac)     (Frac)        (e)         (Frac)  
--------------------------------------------------------------------------------
      1 Cl    c    0.500000    0.500000    0.500000     1.48500    1.000000    
      2 O     c    0.000000    0.000000    0.000000     0.18300    1.000000    
      3 Li    c    0.500000    0.000000    0.000000     1.00000    1.000000    
      4 Cl    s    0.500000    0.500000    0.500000    -2.48500    1.000000    
      5 O     s    0.000000    0.000000    0.000000    -2.18300    1.000000    
--------------------------------------------------------------------------------


  Constraints : 

--------------------------------------------------------------------------------
  Constraint no.      Unconstrained     Constrained    Coefficient    Offset
                         Variable         Variable
--------------------------------------------------------------------------------
           1              Strain 1        Strain 2       1.00000      0.0000
           2              Strain 1        Strain 3       1.00000      0.0000
--------------------------------------------------------------------------------


********************************************************************************
*  General input information                                                   *
********************************************************************************

  Species output for all configurations : 

--------------------------------------------------------------------------------
  Species    Type    Atomic    Atomic    Charge       Radii (Angs)     Library
                     Number     Mass       (e)     Cova   Ionic  VDW   Symbol
--------------------------------------------------------------------------------
    Li       Core        3       6.94   1.000000   0.680  0.000  1.800          
    O        Core        8      16.00   0.183000   0.730  0.000  1.360          
    O        Shell       8       0.00  -2.183000   0.730  0.000  1.360          
    Cl       Core       17      35.45   1.485000   0.990  0.000  1.650          
    Cl       Shell      17       0.00  -2.485000   0.990  0.000  1.650          
--------------------------------------------------------------------------------


  Lattice summation method               =    Ewald          (3-D)
                                         =    Parry          (2-D)
                                         =    Saunders et al (1-D)
  Accuracy factor for lattice sums       =   12.000


  Analytic derivatives to be used

  Time limit = Infinity

  Maximum range for interatomic potentials =    100000.000000 Angstroms

  General interatomic potentials :

--------------------------------------------------------------------------------
Atom  Types   Potential      Parameter       Value         Units   Cutoffs(Ang)
  1     2                                                            Min /  Max 
--------------------------------------------------------------------------------
O    c O    s Spring (c-s)  Spring k 2       593.72000    eV*Ang^-2 0.000  0.800
                            Spring k 4       0.0000000    eV*Ang^-4 
--------------------------------------------------------------------------------
Cl   c Cl   s Spring (c-s)  Spring k 2       29.380000    eV*Ang^-2 0.000  0.800
                            Spring k 4       0.0000000    eV*Ang^-4 
--------------------------------------------------------------------------------
Li   c Li   c Buckingham    Buckingham A     360.53000    eV        0.000 12.000
                            Buckingham rho  0.16100000    Ang       
                            Buckingham C     0.0000000    eV*Ang^6  
--------------------------------------------------------------------------------
Li   c O    s Buckingham    Buckingham A     292.30000    eV        0.000 12.000
                            Buckingham rho  0.34720000    Ang       
                            Buckingham C     0.0000000    eV*Ang^6  
--------------------------------------------------------------------------------
Li   c Cl   s Buckingham    Buckingham A     421.04000    eV        0.000 12.000
                            Buckingham rho  0.33400000    Ang       
                            Buckingham C     0.0000000    eV*Ang^6  
--------------------------------------------------------------------------------
O    s O    s Buckingham    Buckingham A     22764.300    eV        0.000 12.000
                            Buckingham rho  0.14900000    Ang       
                            Buckingham C     13.190000    eV*Ang^6  
--------------------------------------------------------------------------------
O    s Cl   s Buckingham    Buckingham A     8286.9100    eV        0.000 12.000
                            Buckingham rho  0.25900000    Ang       
                            Buckingham C     62.200000    eV*Ang^6  
--------------------------------------------------------------------------------
Cl   s Cl   s Buckingham    Buckingham A     1227.2000    eV        0.000 12.000
                            Buckingham rho  0.32100000    Ang       
                            Buckingham C     14.530000    eV*Ang^6  
--------------------------------------------------------------------------------

********************************************************************************
*  Output for configuration   1                                                *
********************************************************************************


  Components of energy : 

--------------------------------------------------------------------------------
  Interatomic potentials     =           7.26836263 eV    
  Monopole - monopole (real) =         -11.53475722 eV    
  Monopole - monopole (recip)=         -33.94580548 eV    
  Monopole - monopole (total)=         -45.48056271 eV    
--------------------------------------------------------------------------------
  Total lattice energy       =         -38.21220008 eV    
--------------------------------------------------------------------------------
  Total lattice energy       =           -3686.8932 kJ/(mole unit cells)
--------------------------------------------------------------------------------


  Number of variables =        1

  Maximum number of calculations  =          1000
  Maximum Hessian update interval =            10
  Maximum step size               =   1.000000000
  Maximum parameter tolerance     =   0.000010000
  Maximum function  tolerance     =   0.000010000
  Maximum gradient  tolerance     =   0.001000000
  Maximum gradient  component     =   0.010000000

  Symmetry constrained optimisation

  Symmetry used for second derivatives

  Cell parameters to be optimised using strains

  Newton-Raphson optimiser to be used

  BFGS hessian update to be used

  Lower half triangular hessian to be used

  Start of bulk optimisation :

  Cycle:      0 Energy:       -38.212200  Gnorm:      0.095699  CPU:    0.006
  ** Hessian calculated **
  Cycle:      1 Energy:       -38.212222  Gnorm:      0.000105  CPU:    0.007


  **** Optimisation achieved ****


  Final energy =     -38.21222207 eV
  Final Gnorm  =       0.00000001

  Components of energy : 

--------------------------------------------------------------------------------
  Interatomic potentials     =           7.24743137 eV    
  Monopole - monopole (real) =         -11.52945422 eV    
  Monopole - monopole (recip)=         -33.93019921 eV    
  Monopole - monopole (total)=         -45.45965344 eV    
--------------------------------------------------------------------------------
  Total lattice energy       =         -38.21222207 eV    
--------------------------------------------------------------------------------
  Total lattice energy       =           -3686.8953 kJ/(mole unit cells)
--------------------------------------------------------------------------------

  Final asymmetric unit coordinates :

--------------------------------------------------------------------------------
   No.  Atomic        x           y           z         Radius
        Label       (Frac)      (Frac)      (Frac)       (Angs) 
--------------------------------------------------------------------------------
     1  Cl    c     0.500000    0.500000    0.500000    0.000000
     2  O     c     0.000000    0.000000    0.000000    0.000000
     3  Li    c     0.500000    0.000000    0.000000    0.000000
     4  Cl    s     0.500000    0.500000    0.500000    0.000000
     5  O     s     0.000000    0.000000    0.000000    0.000000
--------------------------------------------------------------------------------

  Final Cartesian lattice vectors (Angstroms) :

        3.920675    0.000000    0.000000
        0.000000    3.920675    0.000000
        0.000000    0.000000    3.920675


  Final cell parameters and derivatives :

--------------------------------------------------------------------------------
       a            3.920675 Angstrom     dE/de1(xx)     0.000000 eV/strain
       b            3.920675 Angstrom     dE/de2(yy)     0.000000 eV/strain
       c            3.920675 Angstrom     dE/de3(zz)     0.000000 eV/strain
       alpha       90.000000 Degrees      dE/de4(yz)     0.000000 eV/strain
       beta        90.000000 Degrees      dE/de5(xz)     0.000000 eV/strain
       gamma       90.000000 Degrees      dE/de6(xy)     0.000000 eV/strain
--------------------------------------------------------------------------------

  Primitive cell volume =            60.267433 Angs**3

  Density of cell =      1.991276 g/cm**3

  Non-primitive cell volume =            60.267433 Angs**3


  Final internal derivatives :

--------------------------------------------------------------------------------
   No.  Atomic          a             b             c           Radius
        Label          (eV)          (eV)          (eV)        (eV/Angs)
--------------------------------------------------------------------------------
      1 Cl    c       0.000000      0.000000      0.000000      0.000000
      2 O     c       0.000000      0.000000      0.000000      0.000000
      3 Li    c       0.000000      0.000000      0.000000      0.000000
      4 Cl    s       0.000000      0.000000      0.000000      0.000000
      5 O     s       0.000000      0.000000      0.000000      0.000000
--------------------------------------------------------------------------------
  Maximum abs         0.000000      0.000000      0.000000      0.000000
--------------------------------------------------------------------------------

  Comparison of initial and final structures : 

--------------------------------------------------------------------------------
  Parameter   Initial value   Final value   Difference    Units      Percent
--------------------------------------------------------------------------------
    Volume        60.184349     60.267433     0.083084    Angs**3      0.14
    a              3.918873      3.920675     0.001802    Angstroms    0.05
    b              3.918873      3.920675     0.001802    Angstroms    0.05
    c              3.918873      3.920675     0.001802    Angstroms    0.05
    alpha         90.000000     90.000000     0.000000    Degrees      0.00
    beta          90.000000     90.000000     0.000000    Degrees      0.00
    gamma         90.000000     90.000000     0.000000    Degrees      0.00
      1 x          0.500000      0.500000     0.000000    Fractional   0.00
      1 y          0.500000      0.500000     0.000000    Fractional   0.00
      1 z          0.500000      0.500000     0.000000    Fractional   0.00
      2 x          0.000000      0.000000     0.000000    Fractional   0.00
      2 y          0.000000      0.000000     0.000000    Fractional   0.00
      2 z          0.000000      0.000000     0.000000    Fractional   0.00
      3 x          0.500000      0.500000     0.000000    Fractional   0.00
      3 y          0.000000      0.000000     0.000000    Fractional   0.00
      3 z          0.000000      0.000000     0.000000    Fractional   0.00
      4 x          0.500000      0.500000     0.000000    Fractional   0.00
      4 y          0.500000      0.500000     0.000000    Fractional   0.00
      4 z          0.500000      0.500000     0.000000    Fractional   0.00
      5 x          0.000000      0.000000     0.000000    Fractional   0.00
      5 y          0.000000      0.000000     0.000000    Fractional   0.00
      5 z          0.000000      0.000000     0.000000    Fractional   0.00
--------------------------------------------------------------------------------


  Born effective charge tensors : 

-------------------------------------------------------------------------------
  Atom             x           y             z
-------------------------------------------------------------------------------
    1 Cl    x      -0.9489      0.0000     -0.0000
            y       0.0000     -0.9489     -0.0000
            z      -0.0000     -0.0000     -0.9489
-------------------------------------------------------------------------------
    2 O     x      -2.4688      0.0000     -0.0000
            y       0.0000     -2.4688     -0.0000
            z      -0.0000     -0.0000     -2.4688
-------------------------------------------------------------------------------
    3 Li    x       0.7919     -0.0000      0.0000
            y      -0.0000      1.3129      0.0000
            z      -0.0000      0.0000      1.3129
-------------------------------------------------------------------------------




  Elastic Constant Matrix: (Units=GPa)

-------------------------------------------------------------------------------
  Indices      1         2         3         4         5         6    
-------------------------------------------------------------------------------
       1     94.3368   44.9178   44.9178   -0.0000   -0.0000    0.0000
       2     44.9178   94.3368   44.9178    0.0000   -0.0000    0.0000
       3     44.9178   44.9178   94.3368    0.0000    0.0000   -0.0000
       4     -0.0000    0.0000    0.0000   44.9178   -0.0000    0.0000
       5     -0.0000   -0.0000    0.0000   -0.0000   44.9178    0.0000
       6      0.0000    0.0000   -0.0000    0.0000    0.0000   44.9178
-------------------------------------------------------------------------------


  Elastic Compliance Matrix: (Units=1/GPa)

-------------------------------------------------------------------------------
  Indices      1         2         3         4         5         6    
-------------------------------------------------------------------------------
       1    0.015300 -0.004935 -0.004935  0.000000  0.000000 -0.000000
       2   -0.004935  0.015300 -0.004935  0.000000 -0.000000 -0.000000
       3   -0.004935 -0.004935  0.015300 -0.000000 -0.000000  0.000000
       4    0.000000  0.000000 -0.000000  0.022263  0.000000 -0.000000
       5    0.000000 -0.000000 -0.000000  0.000000  0.022263 -0.000000
       6   -0.000000 -0.000000  0.000000 -0.000000 -0.000000  0.022263
-------------------------------------------------------------------------------

  Mechanical properties :

-------------------------------------------------------------------------------
  Convention :                    Reuss         Voigt         Hill
-------------------------------------------------------------------------------
  Bulk  Modulus (GPa)     =      61.39080      61.39080      61.39080
  Shear Modulus (GPa)     =      33.84570      36.83448      35.34009
-------------------------------------------------------------------------------
  Velocity S-wave (km/s)  =       4.12274       4.30092       4.21277
  Velocity P-wave (km/s)  =       7.31386       7.44942       7.38195
-------------------------------------------------------------------------------
  Compressibility (1/GPa) =    0.01628909
-------------------------------------------------------------------------------
  Stress axis :                     x             y             z
-------------------------------------------------------------------------------
  Youngs Moduli (GPa)     =      65.35947      65.35947      65.35947
-------------------------------------------------------------------------------
  Poissons Ratio (x)      =                     0.32256       0.32256
  Poissons Ratio (y)      =       0.32256                     0.32256
  Poissons Ratio (z)      =       0.32256       0.32256
-------------------------------------------------------------------------------


  Piezoelectric Strain Matrix: (Units=C/m**2)

-------------------------------------------------------------------------------
  Indices      1         2         3         4         5         6    
-------------------------------------------------------------------------------
       x     0.00000  -0.00000  -0.00000   0.00000   0.00000  -0.00000
       y    -0.00000   0.00000   0.00000  -0.00000   0.00000  -0.00000
       z    -0.00000   0.00000   0.00000   0.00000  -0.00000   0.00000
-------------------------------------------------------------------------------


  Piezoelectric Stress Matrix: (Units=10**-11 C/N)

-------------------------------------------------------------------------------
  Indices      1         2         3         4         5         6    
-------------------------------------------------------------------------------
       x     0.00000  -0.00000  -0.00000   0.00000   0.00000  -0.00000
       y    -0.00000   0.00000   0.00000  -0.00000   0.00000  -0.00000
       z    -0.00000  -0.00000   0.00000   0.00000  -0.00000   0.00000
-------------------------------------------------------------------------------


  Static dielectric constant tensor : 

-------------------------------------------------------------------------------
              x         y         z
-------------------------------------------------------------------------------
       x    12.11703  -0.00000   0.00000
       y    -0.00000  12.11703   0.00000
       z     0.00000   0.00000  12.11703
--------------------------------------------------------------------------------

  High frequency dielectric constant tensor : 

-------------------------------------------------------------------------------
              x         y         z
-------------------------------------------------------------------------------
       x     1.74104  -0.00000   0.00000
       y    -0.00000   1.74104   0.00000
       z     0.00000   0.00000   1.74104
-------------------------------------------------------------------------------

  Static refractive indices : 

-------------------------------------------------------------------------------
    1 =    3.48095      2 =    3.48095      3 =    3.48095
-------------------------------------------------------------------------------

  High frequency refractive indices : 

-------------------------------------------------------------------------------
    1 =    1.31948      2 =    1.31948      3 =    1.31948
-------------------------------------------------------------------------------


  Time to end of optimisation =       0.0101 seconds

********************************************************************************
*  Defect calculation for configuration   1 :                                  *
********************************************************************************

  Total number of defects =      3

  Total charge on defect  =   2.00

  Defect centre is at   1.5675   1.5675   0.0000  Angs

  Region 1 radius =  20.0000      Number of ions =   3920

  Number of symmetry inequivalent region 1 ions  =   1137

  Region 2 radius =  24.0000      Number of ions =   2804

  Number of symmetry inequivalent region 2a ions =    769

  Region 2a mode = 4 : screened electrostatics due to region 1 
                       neglect correction to region 1 forces from 2a
                       region 2a displacements based on defects only

  Region 2a ions will only interact with defects in region 1

  Vacancies:

--------------------------------------------------------------------------------
    Specification type     Symbol/Number         x          y          z
--------------------------------------------------------------------------------
    Cartesian                                0.000000   0.000000   0.000000
    Cartesian                                3.918873   3.918873   0.000000
--------------------------------------------------------------------------------

  Interstitials:

--------------------------------------------------------------------------------
    Specification type     Symbol/Number         x          y          z
--------------------------------------------------------------------------------
    Atom/Cartesian          O                1.567549   1.567549   0.000000
--------------------------------------------------------------------------------


  Symmetry reduced region 1 (Relative to defect centre) :

--------------------------------------------------------------------------------
   No.   Atomic       x            y             z       Radius  Multiplicity   
         Label      (Angs)       (Angs)        (Angs)    (Angs)     
--------------------------------------------------------------------------------
     1  O     c      0.0000       0.0000       0.0000    0.0000     1    Defect
     2  Li    c      0.3928 *    -1.5675 *     0.0000    0.0000     2          
     3  Cl    c      0.3928 *     0.3928      -1.9603 *  0.0000     2          
     4  Li    c      0.3928 *     2.3531 *     0.0000    0.0000     2          
     5  O     c      2.3531 *    -1.5675 *     0.0000    0.0000     2          
     6  Li    c     -1.5675 *    -1.5675      -1.9603 *  0.0000     2          
     7  Li    c     -1.5675 *     2.3531 *    -1.9603 *  0.0000     4          
     8  Li    c     -3.5279 *    -1.5675 *     0.0000    0.0000     2          
     9  Li    c      2.3531 *     2.3531      -1.9603 *  0.0000     2          
    10  Cl    c      0.3928 *    -3.5279 *    -1.9603 *  0.0000     4          
    11  Li    c      0.3928 *    -1.5675 *     3.9207 *  0.0000     4          
    12  Li    c     -3.5279 *     2.3531 *     0.0000    0.0000     2          
    13  O     c     -1.5675 *    -1.5675       3.9207 *  0.0000     2          
    14  Li    c      0.3928 *     2.3531 *     3.9207 *  0.0000     4          
    15  Li    c      4.3135 *    -1.5675 *     0.0000    0.0000     2          
    16  Cl    c      0.3928 *     4.3135 *    -1.9603 *  0.0000     4          
    17  O     c      2.3531 *    -1.5675 *     3.9207 *  0.0000     4          
    18  Li    c      4.3135 *     2.3531 *     0.0000    0.0000     2          
    19  O     c      2.3531 *     2.3531       3.9207 *  0.0000     2          
    20  Cl    c     -3.5279 *    -3.5279      -1.9603 *  0.0000     2          
    21  Li    c      0.3928 *    -5.4882 *     0.0000    0.0000     2          
    22  Li    c     -3.5279 *    -1.5675 *     3.9207 *  0.0000     4          
    23  O     c     -1.5675 *    -5.4882 *     0.0000    0.0000     2          
    24  Li    c     -3.5279 *     2.3531 *     3.9207 *  0.0000     4          
    25  Cl    c      0.3928 *     0.3928       5.8810 *  0.0000     2          
    26  Cl    c      4.3135 *    -3.5279 *    -1.9603 *  0.0000     4          
    27  O     c      2.3531 *    -5.4882 *     0.0000    0.0000     2          
    28  Li    c     -1.5675 *    -5.4882 *    -1.9603 *  0.0000     4          
    29  Li    c      4.3135 *    -1.5675 *     3.9207 *  0.0000     4          
    30  Li    c     -1.5675 *    -1.5675       5.8810 *  0.0000     2          
    31  Li    c      2.3531 *    -5.4882 *    -1.9603 *  0.0000     4          
    32  Li    c      0.3928 *     6.2738 *     0.0000    0.0000     2          
    33  Li    c      4.3135 *     2.3531 *     3.9207 *  0.0000     4          
    34  Cl    c      4.3135 *     4.3135      -1.9603 *  0.0000     2          
    35  O     c      6.2738 *    -1.5675 *     0.0000    0.0000     2          
    36  Li    c     -3.5279 *    -5.4882 *     0.0000    0.0000     2          
    37  Li    c     -1.5675 *     2.3531 *     5.8810 *  0.0000     4          
    38  O     c      2.3531 *     6.2738 *     0.0000    0.0000     2          
    39  Li    c      0.3928 *    -5.4882 *     3.9207 *  0.0000     4          
    40  Li    c     -1.5675 *     6.2738 *    -1.9603 *  0.0000     4          
    41  Li    c      2.3531 *     2.3531       5.8810 *  0.0000     2          
    42  Cl    c      0.3928 *    -3.5279 *     5.8810 *  0.0000     4          
    43  O     c     -1.5675 *    -5.4882 *     3.9207 *  0.0000     4          
    44  Li    c      4.3135 *    -5.4882 *     0.0000    0.0000     2          
    45  Li    c      2.3531 *     6.2738 *    -1.9603 *  0.0000     4          
    46  O     c      2.3531 *    -5.4882 *     3.9207 *  0.0000     4          
    47  Li    c     -3.5279 *     6.2738 *     0.0000    0.0000     2          
    48  Cl    c      0.3928 *     4.3135 *     5.8810 *  0.0000     4          
    49  Li    c      0.3928 *     6.2738 *     3.9207 *  0.0000     4          
    50  O     c      6.2738 *    -1.5675 *     3.9207 *  0.0000     4          
    51  Li    c     -3.5279 *    -5.4882 *     3.9207 *  0.0000     4          
    52  Li    c     -7.4486 *    -1.5675 *     0.0000    0.0000     2          
    53  Li    c      4.3135 *     6.2738 *     0.0000    0.0000     2          
    54  Cl    c      0.3928 *    -7.4486 *    -1.9603 *  0.0000     4          
    55  Cl    c     -3.5279 *    -3.5279       5.8810 *  0.0000     2          
    56  O     c     -5.4882 *    -5.4882       0.0000    0.0000     1          
    57  O     c      2.3531 *     6.2738 *     3.9207 *  0.0000     4          
    58  Li    c     -7.4486 *     2.3531 *     0.0000    0.0000     2          
    59  Li    c     -5.4882 *    -5.4882      -1.9603 *  0.0000     2          
    60  Li    c      0.3928 *    -1.5675 *     7.8414 *  0.0000     4          
    61  Li    c      4.3135 *    -5.4882 *     3.9207 *  0.0000     4          
    62  Cl    c      4.3135 *    -3.5279 *     5.8810 *  0.0000     4          
    63  O     c     -1.5675 *    -1.5675       7.8414 *  0.0000     2          
    64  Li    c     -1.5675 *    -5.4882 *     5.8810 *  0.0000     4          
    65  Li    c     -3.5279 *     6.2738 *     3.9207 *  0.0000     4          
    66  Li    c      0.3928 *     2.3531 *     7.8414 *  0.0000     4          
    67  O     c      2.3531 *    -1.5675 *     7.8414 *  0.0000     4          
    68  O     c      6.2738 *    -5.4882 *     0.0000    0.0000     2          
    69  Li    c      2.3531 *    -5.4882 *     5.8810 *  0.0000     4          
    70  Li    c      8.2341 *    -1.5675 *     0.0000    0.0000     2          
    71  Cl    c     -3.5279 *    -7.4486 *    -1.9603 *  0.0000     4          
    72  Cl    c      4.3135 *     4.3135       5.8810 *  0.0000     2          
    73  Cl    c      0.3928 *     8.2341 *    -1.9603 *  0.0000     4          
    74  O     c      2.3531 *     2.3531       7.8414 *  0.0000     2          
    75  Li    c     -7.4486 *    -1.5675 *     3.9207 *  0.0000     4          
    76  Li    c      6.2738 *    -5.4882 *    -1.9603 *  0.0000     4          
    77  Li    c      4.3135 *     6.2738 *     3.9207 *  0.0000     4          
    78  Li    c      8.2341 *     2.3531 *     0.0000    0.0000     2          
    79  O     c     -5.4882 *    -5.4882       3.9207 *  0.0000     2          
    80  Li    c     -3.5279 *    -1.5675 *     7.8414 *  0.0000     4          
    81  Li    c     -7.4486 *     2.3531 *     3.9207 *  0.0000     4          
    82  Li    c     -1.5675 *     6.2738 *     5.8810 *  0.0000     4          
    83  Cl    c      4.3135 *    -7.4486 *    -1.9603 *  0.0000     4          
    84  O     c      6.2738 *     6.2738       0.0000    0.0000     1          
    85  Li    c     -3.5279 *     2.3531 *     7.8414 *  0.0000     4          
    86  Li    c      2.3531 *     6.2738 *     5.8810 *  0.0000     4          
    87  Li    c      4.3135 *    -1.5675 *     7.8414 *  0.0000     4          
    88  Li    c      6.2738 *     6.2738      -1.9603 *  0.0000     2          
    89  Cl    c      8.2341 *    -3.5279 *    -1.9603 *  0.0000     4          
    90  O     c      6.2738 *    -5.4882 *     3.9207 *  0.0000     4          
    91  Li    c     -7.4486 *    -5.4882 *     0.0000    0.0000     2          
    92  Li    c      4.3135 *     2.3531 *     7.8414 *  0.0000     4          
    93  Li    c      8.2341 *    -1.5675 *     3.9207 *  0.0000     4          
    94  Li    c      0.3928 *    -9.4089 *     0.0000    0.0000     2          
    95  Li    c      8.2341 *     2.3531 *     3.9207 *  0.0000     4          
    96  Cl    c      0.3928 *    -7.4486 *     5.8810 *  0.0000     4          
    97  Cl    c      4.3135 *     8.2341 *    -1.9603 *  0.0000     4          
    98  O     c     -1.5675 *    -9.4089 *     0.0000    0.0000     2          
    99  Li    c      0.3928 *    -5.4882 *     7.8414 *  0.0000     4          
   100  O     c      2.3531 *    -9.4089 *     0.0000    0.0000     2          
   101  O     c     -1.5675 *    -5.4882 *     7.8414 *  0.0000     4          
   102  O     c      6.2738 *     6.2738       3.9207 *  0.0000     2          
   103  Li    c     -1.5675 *    -9.4089 *    -1.9603 *  0.0000     4          
   104  Li    c     -5.4882 *    -5.4882       5.8810 *  0.0000     2          
   105  Li    c     -7.4486 *     6.2738 *     0.0000    0.0000     2          
   106  Cl    c      0.3928 *     0.3928       9.8017 *  0.0000     2          
   107  O     c      2.3531 *    -5.4882 *     7.8414 *  0.0000     4          
   108  Li    c      2.3531 *    -9.4089 *    -1.9603 *  0.0000     4          
   109  Li    c      8.2341 *    -5.4882 *     0.0000    0.0000     2          
   110  Li    c     -3.5279 *    -9.4089 *     0.0000    0.0000     2          
   111  Li    c     -7.4486 *    -5.4882 *     3.9207 *  0.0000     4          
   112  Li    c     -1.5675 *    -1.5675       9.8017 *  0.0000     2          
   113  Li    c      0.3928 *     6.2738 *     7.8414 *  0.0000     4          
   114  Cl    c     -3.5279 *    -7.4486 *     5.8810 *  0.0000     4          
   115  Cl    c      0.3928 *     8.2341 *     5.8810 *  0.0000     4          
   116  O     c      6.2738 *    -1.5675 *     7.8414 *  0.0000     4          
   117  Li    c      0.3928 *    -9.4089 *     3.9207 *  0.0000     4          
   118  Li    c     -3.5279 *    -5.4882 *     7.8414 *  0.0000     4          
   119  Li    c     -1.5675 *     2.3531 *     9.8017 *  0.0000     4          
   120  Li    c      6.2738 *    -5.4882 *     5.8810 *  0.0000     4          
   121  Li    c      0.3928 *    10.1945 *     0.0000    0.0000     2          
   122  O     c     -1.5675 *    -9.4089 *     3.9207 *  0.0000     4          
   123  O     c      2.3531 *     6.2738 *     7.8414 *  0.0000     4          
   124  O     c     10.1945 *    -1.5675 *     0.0000    0.0000     2          
   125  Li    c      4.3135 *    -9.4089 *     0.0000    0.0000     2          
   126  Li    c      2.3531 *     2.3531       9.8017 *  0.0000     2          
   127  Li    c      8.2341 *     6.2738 *     0.0000    0.0000     2          
   128  Cl    c      0.3928 *    -3.5279 *     9.8017 *  0.0000     4          
   129  Cl    c      4.3135 *    -7.4486 *     5.8810 *  0.0000     4          
   130  O     c      2.3531 *    -9.4089 *     3.9207 *  0.0000     4          
   131  O     c      2.3531 *    10.1945 *     0.0000    0.0000     2          
   132  Li    c     -7.4486 *     6.2738 *     3.9207 *  0.0000     4          
   133  Li    c      4.3135 *    -5.4882 *     7.8414 *  0.0000     4          
   134  Li    c     -1.5675 *    10.1945 *    -1.9603 *  0.0000     4          
   135  Li    c     -3.5279 *     6.2738 *     7.8414 *  0.0000     4          
   136  Li    c      8.2341 *    -5.4882 *     3.9207 *  0.0000     4          
   137  Li    c      6.2738 *     6.2738       5.8810 *  0.0000     2          
   138  Li    c      2.3531 *    10.1945 *    -1.9603 *  0.0000     4          
   139  Cl    c     -7.4486 *    -7.4486      -1.9603 *  0.0000     2          
   140  Cl    c      0.3928 *     4.3135 *     9.8017 *  0.0000     4          
   141  Cl    c      8.2341 *    -3.5279 *     5.8810 *  0.0000     4          
   142  Li    c     -3.5279 *    -9.4089 *     3.9207 *  0.0000     4          
   143  Li    c     -3.5279 *    10.1945 *     0.0000    0.0000     2          
   144  O     c     -5.4882 *    -9.4089 *     0.0000    0.0000     2          
   145  Li    c     -7.4486 *    -1.5675 *     7.8414 *  0.0000     4          
   146  Li    c      4.3135 *     6.2738 *     7.8414 *  0.0000     4          
   147  Li    c      0.3928 *    10.1945 *     3.9207 *  0.0000     4          
   148  Cl    c     -3.5279 *    -3.5279       9.8017 *  0.0000     2          
   149  Cl    c      4.3135 *     8.2341 *     5.8810 *  0.0000     4          
   150  O     c     -5.4882 *    -5.4882       7.8414 *  0.0000     2          
   151  O     c     10.1945 *    -1.5675 *     3.9207 *  0.0000     4          
   152  Li    c     -5.4882 *    -9.4089 *    -1.9603 *  0.0000     4          
   153  Li    c      4.3135 *    -9.4089 *     3.9207 *  0.0000     4          
   154  Li    c     -7.4486 *     2.3531 *     7.8414 *  0.0000     4          
   155  Li    c      4.3135 *    10.1945 *     0.0000    0.0000     2          
   156  Li    c      8.2341 *     6.2738 *     3.9207 *  0.0000     4          
   157  O     c      2.3531 *    10.1945 *     3.9207 *  0.0000     4          
   158  Li    c     -1.5675 *    -9.4089 *     5.8810 *  0.0000     4          
   159  Cl    c      4.3135 *    -3.5279 *     9.8017 *  0.0000     4          
   160  Cl    c      8.2341 *    -7.4486 *    -1.9603 *  0.0000     4          
   161  O     c      6.2738 *    -9.4089 *     0.0000    0.0000     2          
   162  Li    c     -1.5675 *    -5.4882 *     9.8017 *  0.0000     4          
   163  Li    c      2.3531 *    -9.4089 *     5.8810 *  0.0000     4          
   164  O     c      6.2738 *    -5.4882 *     7.8414 *  0.0000     4          
   165  Li    c    -11.3692 *    -1.5675 *     0.0000    0.0000     2          
   166  Li    c      2.3531 *    -5.4882 *     9.8017 *  0.0000     4          
   167  Li    c      6.2738 *    -9.4089 *    -1.9603 *  0.0000     4          
   168  Li    c     -3.5279 *    10.1945 *     3.9207 *  0.0000     4          
   169  Li    c      8.2341 *    -1.5675 *     7.8414 *  0.0000     4          
   170  Cl    c      0.3928 *   -11.3692 *    -1.9603 *  0.0000     4          
   171  Cl    c      4.3135 *     4.3135       9.8017 *  0.0000     2          
   172  O     c     -5.4882 *    -9.4089 *     3.9207 *  0.0000     4          
   173  O     c     10.1945 *    -5.4882 *     0.0000    0.0000     2          
   174  Li    c    -11.3692 *     2.3531 *     0.0000    0.0000     2          
   175  Li    c      8.2341 *     2.3531 *     7.8414 *  0.0000     4          
   176  Li    c     -1.5675 *     6.2738 *     9.8017 *  0.0000     4          
   177  Li    c     10.1945 *    -5.4882 *    -1.9603 *  0.0000     4          
   178  Li    c      4.3135 *    10.1945 *     3.9207 *  0.0000     4          
   179  Cl    c      8.2341 *     8.2341      -1.9603 *  0.0000     2          
   180  O     c      6.2738 *     6.2738       7.8414 *  0.0000     2          
   181  Li    c      0.3928 *    -1.5675 *    11.7620 *  0.0000     4          
   182  Li    c      2.3531 *     6.2738 *     9.8017 *  0.0000     4          
   183  Li    c     -1.5675 *    10.1945 *     5.8810 *  0.0000     4          
   184  O     c      6.2738 *    -9.4089 *     3.9207 *  0.0000     4          
   185  O     c     -1.5675 *    -1.5675      11.7620 *  0.0000     2          
   186  O     c      6.2738 *    10.1945 *     0.0000    0.0000     2          
   187  Li    c     -7.4486 *    -9.4089 *     0.0000    0.0000     2          
   188  Li    c      0.3928 *     2.3531 *    11.7620 *  0.0000     4          
   189  Li    c      2.3531 *    10.1945 *     5.8810 *  0.0000     4          
   190  Cl    c     -3.5279 *   -11.3692 *    -1.9603 *  0.0000     4          
   191  Cl    c     -7.4486 *    -7.4486       5.8810 *  0.0000     2          
   192  O     c      2.3531 *    -1.5675 *    11.7620 *  0.0000     4          
   193  Li    c     -7.4486 *    -5.4882 *     7.8414 *  0.0000     4          
   194  Li    c    -11.3692 *    -1.5675 *     3.9207 *  0.0000     4          
   195  Li    c      6.2738 *    10.1945 *    -1.9603 *  0.0000     4          
   196  O     c      2.3531 *     2.3531      11.7620 *  0.0000     2          
   197  O     c     10.1945 *    -5.4882 *     3.9207 *  0.0000     4          
   198  Li    c      0.3928 *    -9.4089 *     7.8414 *  0.0000     4          
   199  Li    c    -11.3692 *     2.3531 *     3.9207 *  0.0000     4          
   200  Li    c     12.1548 *    -1.5675 *     0.0000    0.0000     2          
   201  Cl    c      0.3928 *    -7.4486 *     9.8017 *  0.0000     4          
   202  Cl    c      4.3135 *   -11.3692 *    -1.9603 *  0.0000     4          
   203  Cl    c      0.3928 *    12.1548 *    -1.9603 *  0.0000     4          
   204  O     c     -1.5675 *    -9.4089 *     7.8414 *  0.0000     4          
   205  Li    c     -5.4882 *    -9.4089 *     5.8810 *  0.0000     4          
   206  Li    c     -3.5279 *    -1.5675 *    11.7620 *  0.0000     4          
   207  Li    c     12.1548 *     2.3531 *     0.0000    0.0000     2          
   208  O     c      2.3531 *    -9.4089 *     7.8414 *  0.0000     4          
   209  Li    c     -5.4882 *    -5.4882       9.8017 *  0.0000     2          
   210  Li    c      8.2341 *    -9.4089 *     0.0000    0.0000     2          
   211  Li    c     -3.5279 *     2.3531 *    11.7620 *  0.0000     4          
   212  Li    c     -7.4486 *     6.2738 *     7.8414 *  0.0000     4          
   213  Cl    c      8.2341 *    -7.4486 *     5.8810 *  0.0000     4          
   214  O     c      6.2738 *    10.1945 *     3.9207 *  0.0000     4          
   215  Li    c     -7.4486 *    -9.4089 *     3.9207 *  0.0000     4          
   216  Li    c    -11.3692 *    -5.4882 *     0.0000    0.0000     2          
   217  Li    c      4.3135 *    -1.5675 *    11.7620 *  0.0000     4          
   218  Li    c     -7.4486 *    10.1945 *     0.0000    0.0000     2          
   219  Li    c      8.2341 *    -5.4882 *     7.8414 *  0.0000     4          
   220  Li    c     -3.5279 *    -9.4089 *     7.8414 *  0.0000     4          
   221  Li    c      6.2738 *    -9.4089 *     5.8810 *  0.0000     4          
   222  Li    c      4.3135 *     2.3531 *    11.7620 *  0.0000     4          
   223  Cl    c      0.3928 *   -11.3692 *     5.8810 *  0.0000     4          
   224  Cl    c     -3.5279 *    -7.4486 *     9.8017 *  0.0000     4          
   225  Cl    c      0.3928 *     8.2341 *     9.8017 *  0.0000     4          
   226  Cl    c     12.1548 *    -3.5279 *    -1.9603 *  0.0000     4          
   227  Li    c      6.2738 *    -5.4882 *     9.8017 *  0.0000     4          
   228  Li    c      0.3928 *    10.1945 *     7.8414 *  0.0000     4          
   229  Li    c     12.1548 *    -1.5675 *     3.9207 *  0.0000     4          
   230  O     c     10.1945 *    -1.5675 *     7.8414 *  0.0000     4          
   231  Li    c      0.3928 *    -5.4882 *    11.7620 *  0.0000     4          
   232  Li    c      4.3135 *    -9.4089 *     7.8414 *  0.0000     4          
   233  Li    c    -11.3692 *     6.2738 *     0.0000    0.0000     2          
   234  Li    c     10.1945 *    -5.4882 *     5.8810 *  0.0000     4          
   235  Li    c     12.1548 *     2.3531 *     3.9207 *  0.0000     4          
   236  Li    c      8.2341 *     6.2738 *     7.8414 *  0.0000     4          
   237  Cl    c      4.3135 *    -7.4486 *     9.8017 *  0.0000     4          
   238  Cl    c      4.3135 *    12.1548 *    -1.9603 *  0.0000     4          
   239  Cl    c      8.2341 *     8.2341       5.8810 *  0.0000     2          
   240  O     c     -1.5675 *    -5.4882 *    11.7620 *  0.0000     4          
   241  O     c      2.3531 *    10.1945 *     7.8414 *  0.0000     4          
   242  Li    c      8.2341 *    -9.4089 *     3.9207 *  0.0000     4          
   243  Li    c      8.2341 *    10.1945 *     0.0000    0.0000     2          
   244  O     c      2.3531 *    -5.4882 *    11.7620 *  0.0000     4          
   245  Li    c    -11.3692 *    -5.4882 *     3.9207 *  0.0000     4          
   246  Li    c     -7.4486 *    10.1945 *     3.9207 *  0.0000     4          
   247  Li    c      6.2738 *     6.2738       9.8017 *  0.0000     2          
   248  Cl    c     -3.5279 *   -11.3692 *     5.8810 *  0.0000     4          
   249  Cl    c      8.2341 *    -3.5279 *     9.8017 *  0.0000     4          
   250  O     c     -9.4089 *    -9.4089       0.0000    0.0000     1          
   251  Li    c      0.3928 *   -13.3296 *     0.0000    0.0000     2          
   252  Li    c      0.3928 *     6.2738 *    11.7620 *  0.0000     4          
   253  Li    c     12.1548 *    -5.4882 *     0.0000    0.0000     2          
   254  Li    c     -3.5279 *    10.1945 *     7.8414 *  0.0000     4          
   255  Li    c      6.2738 *    10.1945 *     5.8810 *  0.0000     4          
   256  O     c     -1.5675 *   -13.3296 *     0.0000    0.0000     2          
   257  O     c     -5.4882 *    -9.4089 *     7.8414 *  0.0000     4          
   258  O     c      6.2738 *    -1.5675 *    11.7620 *  0.0000     4          
   259  Li    c     -9.4089 *    -9.4089      -1.9603 *  0.0000     2          
   260  Li    c     -3.5279 *    -5.4882 *    11.7620 *  0.0000     4          
   261  Cl    c      4.3135 *   -11.3692 *     5.8810 *  0.0000     4          
   262  Cl    c      4.3135 *     8.2341 *     9.8017 *  0.0000     4          
   263  Cl    c      0.3928 *    12.1548 *     5.8810 *  0.0000     4          
   264  O     c      2.3531 *   -13.3296 *     0.0000    0.0000     2          
   265  O     c      2.3531 *     6.2738 *    11.7620 *  0.0000     4          
   266  Li    c     -1.5675 *   -13.3296 *    -1.9603 *  0.0000     4          
   267  Li    c    -11.3692 *     6.2738 *     3.9207 *  0.0000     4          
   268  Li    c      4.3135 *    10.1945 *     7.8414 *  0.0000     4          
   269  Li    c     -1.5675 *    -9.4089 *     9.8017 *  0.0000     4          
   270  Li    c      2.3531 *   -13.3296 *    -1.9603 *  0.0000     4          
   271  Li    c      4.3135 *    -5.4882 *    11.7620 *  0.0000     4          
   272  Li    c      8.2341 *    10.1945 *     3.9207 *  0.0000     4          
   273  Li    c     12.1548 *     6.2738 *     0.0000    0.0000     2          
   274  Cl    c     -7.4486 *   -11.3692 *    -1.9603 *  0.0000     4          
   275  Cl    c      0.3928 *     0.3928      13.7224 *  0.0000     2          
   276  O     c      6.2738 *    -9.4089 *     7.8414 *  0.0000     4          
   277  Li    c     -3.5279 *   -13.3296 *     0.0000    0.0000     2          
   278  Li    c      2.3531 *    -9.4089 *     9.8017 *  0.0000     4          
   279  Li    c     -3.5279 *     6.2738 *    11.7620 *  0.0000     4          
   280  O     c     -9.4089 *    -9.4089       3.9207 *  0.0000     2          
   281  O     c     10.1945 *    -9.4089 *     0.0000    0.0000     2          
   282  Li    c      0.3928 *   -13.3296 *     3.9207 *  0.0000     4          
   283  Li    c    -11.3692 *    -1.5675 *     7.8414 *  0.0000     4          
   284  Li    c     -1.5675 *    -1.5675      13.7224 *  0.0000     2          
   285  Li    c     12.1548 *    -5.4882 *     3.9207 *  0.0000     4          
   286  Cl    c     12.1548 *    -3.5279 *     5.8810 *  0.0000     4          
   287  O     c     -1.5675 *   -13.3296 *     3.9207 *  0.0000     4          
   288  O     c     10.1945 *    -5.4882 *     7.8414 *  0.0000     4          
   289  Li    c      4.3135 *   -13.3296 *     0.0000    0.0000     2          
   290  Li    c     -7.4486 *    -1.5675 *    11.7620 *  0.0000     4          
   291  Li    c    -11.3692 *     2.3531 *     7.8414 *  0.0000     4          
   292  Li    c     -1.5675 *     2.3531 *    13.7224 *  0.0000     4          
   293  Li    c     10.1945 *    -9.4089 *    -1.9603 *  0.0000     4          
   294  Li    c      4.3135 *     6.2738 *    11.7620 *  0.0000     4          
   295  O     c      2.3531 *   -13.3296 *     3.9207 *  0.0000     4          
   296  O     c     -5.4882 *    -5.4882      11.7620 *  0.0000     2          
   297  Li    c     -7.4486 *     2.3531 *    11.7620 *  0.0000     4          
   298  Li    c      2.3531 *     2.3531      13.7224 *  0.0000     2          
   299  Li    c      0.3928 *    14.1152 *     0.0000    0.0000     2          
   300  Cl    c      0.3928 *    -3.5279 *    13.7224 *  0.0000     4          
   301  Cl    c      8.2341 *   -11.3692 *    -1.9603 *  0.0000     4          
   302  Cl    c      4.3135 *    12.1548 *     5.8810 *  0.0000     4          
   303  O     c     14.1152 *    -1.5675 *     0.0000    0.0000     2          
   304  Li    c     -1.5675 *    10.1945 *     9.8017 *  0.0000     4          
   305  Li    c     12.1548 *     6.2738 *     3.9207 *  0.0000     4          
   306  O     c      2.3531 *    14.1152 *     0.0000    0.0000     2          
   307  O     c      6.2738 *    10.1945 *     7.8414 *  0.0000     4          
   308  Li    c     -3.5279 *   -13.3296 *     3.9207 *  0.0000     4          
   309  Li    c     -7.4486 *    -9.4089 *     7.8414 *  0.0000     4          
   310  Li    c     -1.5675 *    14.1152 *    -1.9603 *  0.0000     4          
   311  Li    c      2.3531 *    10.1945 *     9.8017 *  0.0000     4          
   312  Cl    c     -7.4486 *    -7.4486       9.8017 *  0.0000     2          
   313  Cl    c      0.3928 *     4.3135 *    13.7224 *  0.0000     4          
   314  Cl    c     12.1548 *    -7.4486 *    -1.9603 *  0.0000     4          
   315  O     c     -5.4882 *   -13.3296 *     0.0000    0.0000     2          
   316  O     c      6.2738 *    -5.4882 *    11.7620 *  0.0000     4          
   317  O     c     10.1945 *    -9.4089 *     3.9207 *  0.0000     4          
   318  O     c     10.1945 *    10.1945       0.0000    0.0000     1          
   319  Li    c      8.2341 *    -1.5675 *    11.7620 *  0.0000     4          
   320  Li    c      2.3531 *    14.1152 *    -1.9603 *  0.0000     4          
   321  Li    c     -5.4882 *   -13.3296 *    -1.9603 *  0.0000     4          
   322  Li    c     -9.4089 *    -9.4089       5.8810 *  0.0000     2          
   323  Li    c      4.3135 *   -13.3296 *     3.9207 *  0.0000     4          
   324  Li    c     -3.5279 *    14.1152 *     0.0000    0.0000     2          
   325  Li    c      8.2341 *     2.3531 *    11.7620 *  0.0000     4          
   326  Li    c     12.1548 *    -1.5675 *     7.8414 *  0.0000     4          
   327  Li    c     10.1945 *    10.1945      -1.9603 *  0.0000     2          
   328  Cl    c     -3.5279 *    -3.5279      13.7224 *  0.0000     2          
   329  Li    c     -1.5675 *   -13.3296 *     5.8810 *  0.0000     4          
   330  Li    c     -5.4882 *    -9.4089 *     9.8017 *  0.0000     4          
   331  Li    c      0.3928 *    14.1152 *     3.9207 *  0.0000     4          
   332  Li    c     12.1548 *     2.3531 *     7.8414 *  0.0000     4          
   333  O     c      6.2738 *   -13.3296 *     0.0000    0.0000     2          
   334  O     c      6.2738 *     6.2738      11.7620 *  0.0000     2          
   335  O     c     14.1152 *    -1.5675 *     3.9207 *  0.0000     4          
   336  Li    c    -11.3692 *    -9.4089 *     0.0000    0.0000     2          
   337  Li    c      2.3531 *   -13.3296 *     5.8810 *  0.0000     4          
   338  Li    c      8.2341 *    -9.4089 *     7.8414 *  0.0000     4          
   339  Li    c      4.3135 *    14.1152 *     0.0000    0.0000     2          
   340  Cl    c     -7.4486 *   -11.3692 *     5.8810 *  0.0000     4          
   341  Cl    c      4.3135 *    -3.5279 *    13.7224 *  0.0000     4          
   342  Cl    c      8.2341 *    -7.4486 *     9.8017 *  0.0000     4          
   343  Cl    c      8.2341 *    12.1548 *    -1.9603 *  0.0000     4          
   344  O     c      2.3531 *    14.1152 *     3.9207 *  0.0000     4          
   345  Li    c    -11.3692 *    -5.4882 *     7.8414 *  0.0000     4          
   346  Li    c     -1.5675 *    -5.4882 *    13.7224 *  0.0000     4          
   347  Li    c      6.2738 *   -13.3296 *    -1.9603 *  0.0000     4          
   348  Li    c     -7.4486 *    10.1945 *     7.8414 *  0.0000     4          
   349  O     c     -5.4882 *   -13.3296 *     3.9207 *  0.0000     4          
   350  O     c     10.1945 *    10.1945       3.9207 *  0.0000     2          
   351  Li    c     -7.4486 *    -5.4882 *    11.7620 *  0.0000     4          
   352  Li    c      2.3531 *    -5.4882 *    13.7224 *  0.0000     4          
   353  Li    c      6.2738 *    -9.4089 *     9.8017 *  0.0000     4          
   354  Cl    c      0.3928 *   -11.3692 *     9.8017 *  0.0000     4          
   355  Cl    c      4.3135 *     4.3135      13.7224 *  0.0000     2          
   356  Li    c      0.3928 *    -9.4089 *    11.7620 *  0.0000     4          
   357  Li    c     10.1945 *    -9.4089 *     5.8810 *  0.0000     4          
   358  Li    c     -3.5279 *    14.1152 *     3.9207 *  0.0000     4          
   359  O     c     -1.5675 *    -9.4089 *    11.7620 *  0.0000     4          
   360  O     c     14.1152 *    -5.4882 *     0.0000    0.0000     2          
   361  Li    c    -11.3692 *     6.2738 *     7.8414 *  0.0000     4          
   362  Li    c     -1.5675 *     6.2738 *    13.7224 *  0.0000     4          
   363  Li    c     10.1945 *    -5.4882 *     9.8017 *  0.0000     4          
   364  Cl    c      8.2341 *   -11.3692 *     5.8810 *  0.0000     4          
   365  Cl    c      8.2341 *     8.2341       9.8017 *  0.0000     2          
   366  O     c      2.3531 *    -9.4089 *    11.7620 *  0.0000     4          
   367  O     c      6.2738 *   -13.3296 *     3.9207 *  0.0000     4          
   368  Li    c     -7.4486 *   -13.3296 *     0.0000    0.0000     2          
   369  Li    c    -11.3692 *    -9.4089 *     3.9207 *  0.0000     4          
   370  Li    c     -7.4486 *     6.2738 *    11.7620 *  0.0000     4          
   371  Li    c    -11.3692 *    10.1945 *     0.0000    0.0000     2          
   372  Li    c      2.3531 *     6.2738 *    13.7224 *  0.0000     4          
   373  Li    c     14.1152 *    -5.4882 *    -1.9603 *  0.0000     4          
   374  Li    c      4.3135 *    14.1152 *     3.9207 *  0.0000     4          
   375  Li    c      8.2341 *    10.1945 *     7.8414 *  0.0000     4          
   376  Li    c    -15.2899 *    -1.5675 *     0.0000    0.0000     2          
   377  Li    c      8.2341 *    -5.4882 *    11.7620 *  0.0000     4          
   378  Li    c     12.1548 *    -9.4089 *     0.0000    0.0000     2          
   379  Li    c     -1.5675 *    14.1152 *     5.8810 *  0.0000     4          
   380  Cl    c     -3.5279 *   -11.3692 *     9.8017 *  0.0000     4          
   381  Cl    c      0.3928 *   -15.2899 *    -1.9603 *  0.0000     4          
   382  Cl    c     12.1548 *    -7.4486 *     5.8810 *  0.0000     4          
   383  O     c     -9.4089 *    -9.4089       7.8414 *  0.0000     2          
   384  O     c      6.2738 *    14.1152 *     0.0000    0.0000     2          
   385  Li    c      0.3928 *   -13.3296 *     7.8414 *  0.0000     4          
   386  Li    c     -3.5279 *    -9.4089 *    11.7620 *  0.0000     4          
   387  Li    c    -15.2899 *     2.3531 *     0.0000    0.0000     2          
   388  Li    c     12.1548 *    -5.4882 *     7.8414 *  0.0000     4          
   389  Li    c      2.3531 *    14.1152 *     5.8810 *  0.0000     4          
   390  Li    c      6.2738 *    10.1945 *     9.8017 *  0.0000     4          
   391  O     c     -1.5675 *   -13.3296 *     7.8414 *  0.0000     4          
   392  Li    c     -5.4882 *   -13.3296 *     5.8810 *  0.0000     4          
   393  Li    c      0.3928 *    10.1945 *    11.7620 *  0.0000     4          
   394  Li    c      6.2738 *    14.1152 *    -1.9603 *  0.0000     4          
   395  Li    c     10.1945 *    10.1945       5.8810 *  0.0000     2          
   396  Cl    c      0.3928 *    -7.4486 *    13.7224 *  0.0000     4          
   397  Cl    c      4.3135 *   -11.3692 *     9.8017 *  0.0000     4          
   398  Cl    c      0.3928 *    12.1548 *     9.8017 *  0.0000     4          
   399  O     c      2.3531 *   -13.3296 *     7.8414 *  0.0000     4          
   400  O     c     14.1152 *    -5.4882 *     3.9207 *  0.0000     4          
   401  O     c     10.1945 *    -1.5675 *    11.7620 *  0.0000     4          
   402  Li    c      4.3135 *    -9.4089 *    11.7620 *  0.0000     4          
   403  Li    c      8.2341 *   -13.3296 *     0.0000    0.0000     2          
   404  Li    c      8.2341 *     6.2738 *    11.7620 *  0.0000     4          
   405  O     c      2.3531 *    10.1945 *    11.7620 *  0.0000     4          
   406  Li    c     -7.4486 *   -13.3296 *     3.9207 *  0.0000     4          
   407  Li    c     -5.4882 *    -5.4882      13.7224 *  0.0000     2          
   408  Li    c      0.3928 *    -1.5675 *    15.6827 *  0.0000     4          
   409  Li    c    -11.3692 *    10.1945 *     3.9207 *  0.0000     4          
   410  Li    c     12.1548 *     6.2738 *     7.8414 *  0.0000     4          
   411  Cl    c     -3.5279 *   -15.2899 *    -1.9603 *  0.0000     4          
   412  Cl    c      8.2341 *    12.1548 *     5.8810 *  0.0000     4          
   413  O     c     -1.5675 *    -1.5675      15.6827 *  0.0000     2          
   414  Li    c     -3.5279 *   -13.3296 *     7.8414 *  0.0000     4          
   415  Li    c    -15.2899 *    -1.5675 *     3.9207 *  0.0000     4          
   416  Li    c      6.2738 *   -13.3296 *     5.8810 *  0.0000     4          
   417  Li    c      0.3928 *     2.3531 *    15.6827 *  0.0000     4          
   418  Li    c     12.1548 *    -9.4089 *     3.9207 *  0.0000     4          
   419  Li    c     12.1548 *    10.1945 *     0.0000    0.0000     2          
   420  O     c      2.3531 *    -1.5675 *    15.6827 *  0.0000     4          
   421  O     c     10.1945 *    -9.4089 *     7.8414 *  0.0000     4          
   422  O     c      6.2738 *    14.1152 *     3.9207 *  0.0000     4          
   423  Li    c    -15.2899 *     2.3531 *     3.9207 *  0.0000     4          
   424  Li    c     -7.4486 *    14.1152 *     0.0000    0.0000     2          
   425  Li    c     -3.5279 *    10.1945 *    11.7620 *  0.0000     4          
   426  Cl    c     -3.5279 *    -7.4486 *    13.7224 *  0.0000     4          
   427  Cl    c      4.3135 *   -15.2899 *    -1.9603 *  0.0000     4          
   428  Cl    c      0.3928 *     8.2341 *    13.7224 *  0.0000     4          
   429  Cl    c     12.1548 *    -3.5279 *     9.8017 *  0.0000     4          
   430  O     c     -5.4882 *    -9.4089 *    11.7620 *  0.0000     4          
   431  O     c      2.3531 *     2.3531      15.6827 *  0.0000     2          
   432  Li    c      4.3135 *   -13.3296 *     7.8414 *  0.0000     4          
   433  Li    c      6.2738 *    -5.4882 *    13.7224 *  0.0000     4          
   434  Li    c      8.2341 *   -13.3296 *     3.9207 *  0.0000     4          
   435  Li    c     -3.5279 *    -1.5675 *    15.6827 *  0.0000     4          
   436  Li    c      0.3928 *    14.1152 *     7.8414 *  0.0000     4          
   437  Li    c      4.3135 *    10.1945 *    11.7620 *  0.0000     4          
   438  Li    c     16.0755 *    -1.5675 *     0.0000    0.0000     2          
   439  Cl    c    -11.3692 *   -11.3692      -1.9603 *  0.0000     2          
   440  Cl    c      4.3135 *    -7.4486 *    13.7224 *  0.0000     4          
   441  Cl    c      0.3928 *    16.0755 *    -1.9603 *  0.0000     4          
   442  Cl    c      4.3135 *    12.1548 *     9.8017 *  0.0000     4          
   443  O     c     14.1152 *    -1.5675 *     7.8414 *  0.0000     4          
   444  Li    c    -15.2899 *    -5.4882 *     0.0000    0.0000     2          
   445  Li    c     -3.5279 *     2.3531 *    15.6827 *  0.0000     4          
   446  Li    c     14.1152 *    -5.4882 *     5.8810 *  0.0000     4          
   447  Li    c     16.0755 *     2.3531 *     0.0000    0.0000     2          
   448  O     c     -9.4089 *   -13.3296 *     0.0000    0.0000     2          
   449  O     c      6.2738 *    -9.4089 *    11.7620 *  0.0000     4          
   450  O     c      2.3531 *    14.1152 *     7.8414 *  0.0000     4          
   451  Li    c      4.3135 *    -1.5675 *    15.6827 *  0.0000     4          
   452  Li    c      6.2738 *     6.2738      13.7224 *  0.0000     2          
   453  Li    c      8.2341 *    14.1152 *     0.0000    0.0000     2          
   454  Li    c     12.1548 *    10.1945 *     3.9207 *  0.0000     4          
   455  Cl    c      0.3928 *   -15.2899 *     5.8810 *  0.0000     4          
   456  Cl    c      8.2341 *    -3.5279 *    13.7224 *  0.0000     4          
   457  O     c     -5.4882 *   -13.3296 *     7.8414 *  0.0000     4          
   458  O     c     10.1945 *    10.1945       7.8414 *  0.0000     2          
   459  Li    c     -9.4089 *   -13.3296 *    -1.9603 *  0.0000     4          
   460  Li    c    -11.3692 *    -1.5675 *    11.7620 *  0.0000     4          
   461  Li    c     -7.4486 *    14.1152 *     3.9207 *  0.0000     4          
   462  Li    c      4.3135 *     2.3531 *    15.6827 *  0.0000     4          
   463  O     c     10.1945 *    -5.4882 *    11.7620 *  0.0000     4          
   464  Li    c     -9.4089 *    -9.4089       9.8017 *  0.0000     2          
   465  Li    c    -11.3692 *     2.3531 *    11.7620 *  0.0000     4          
   466  Li    c    -15.2899 *     6.2738 *     0.0000    0.0000     2          
   467  Li    c     -3.5279 *    14.1152 *     7.8414 *  0.0000     4          
   468  Li    c      6.2738 *    14.1152 *     5.8810 *  0.0000     4          
   469  Cl    c      4.3135 *     8.2341 *    13.7224 *  0.0000     4          
   470  Cl    c     16.0755 *    -3.5279 *    -1.9603 *  0.0000     4          
   471  Li    c     -1.5675 *   -13.3296 *     9.8017 *  0.0000     4          
   472  Li    c      0.3928 *    -5.4882 *    15.6827 *  0.0000     4          
   473  Li    c     16.0755 *    -1.5675 *     3.9207 *  0.0000     4          
   474  O     c      6.2738 *   -13.3296 *     7.8414 *  0.0000     4          
   475  O     c     -1.5675 *    -5.4882 *    15.6827 *  0.0000     4          
   476  Li    c    -11.3692 *    -9.4089 *     7.8414 *  0.0000     4          
   477  Li    c    -15.2899 *    -5.4882 *     3.9207 *  0.0000     4          
   478  Li    c     -1.5675 *    -9.4089 *    13.7224 *  0.0000     4          
   479  Li    c      2.3531 *   -13.3296 *     9.8017 *  0.0000     4          
   480  Li    c      4.3135 *    14.1152 *     7.8414 *  0.0000     4          
   481  Li    c     16.0755 *     2.3531 *     3.9207 *  0.0000     4          
   482  Cl    c     -3.5279 *   -15.2899 *     5.8810 *  0.0000     4          
   483  Cl    c     -7.4486 *   -11.3692 *     9.8017 *  0.0000     4          
   484  Cl    c     12.1548 *   -11.3692 *    -1.9603 *  0.0000     4          
   485  Cl    c      4.3135 *    16.0755 *    -1.9603 *  0.0000     4          
   486  O     c     -9.4089 *   -13.3296 *     3.9207 *  0.0000     4          
   487  O     c      2.3531 *    -5.4882 *    15.6827 *  0.0000     4          
   488  O     c     10.1945 *   -13.3296 *     0.0000    0.0000     2          
   489  O     c      6.2738 *    10.1945 *    11.7620 *  0.0000     4          
   490  Li    c     -7.4486 *    -9.4089 *    11.7620 *  0.0000     4          
   491  Li    c      2.3531 *    -9.4089 *    13.7224 *  0.0000     4          
   492  Li    c      8.2341 *    14.1152 *     3.9207 *  0.0000     4          
   493  Li    c     10.1945 *   -13.3296 *    -1.9603 *  0.0000     4          
   494  Li    c      0.3928 *     6.2738 *    15.6827 *  0.0000     4          
   495  Cl    c      4.3135 *   -15.2899 *     5.8810 *  0.0000     4          
   496  O     c     14.1152 *    -9.4089 *     0.0000    0.0000     2          
   497  O     c      6.2738 *    -1.5675 *    15.6827 *  0.0000     4          
   498  Li    c     -3.5279 *    -5.4882 *    15.6827 *  0.0000     4          
   499  Li    c    -15.2899 *     6.2738 *     3.9207 *  0.0000     4          
   500  Li    c     10.1945 *    -9.4089 *     9.8017 *  0.0000     4          
   501  Li    c     12.1548 *    -1.5675 *    11.7620 *  0.0000     4          
   502  Li    c     16.0755 *    -5.4882 *     0.0000    0.0000     2          
   503  O     c      2.3531 *     6.2738 *    15.6827 *  0.0000     4          
   504  O     c     14.1152 *    -5.4882 *     7.8414 *  0.0000     4          
   505  Li    c     14.1152 *    -9.4089 *    -1.9603 *  0.0000     4          
   506  Li    c     12.1548 *     2.3531 *    11.7620 *  0.0000     4          
   507  Cl    c    -11.3692 *   -11.3692       5.8810 *  0.0000     2          
   508  Cl    c     -7.4486 *   -15.2899 *    -1.9603 *  0.0000     4          
   509  Cl    c      8.2341 *   -11.3692 *     9.8017 *  0.0000     4          
   510  Cl    c      0.3928 *    16.0755 *     5.8810 *  0.0000     4          
   511  Li    c     -7.4486 *   -13.3296 *     7.8414 *  0.0000     4          
   512  Li    c      4.3135 *    -5.4882 *    15.6827 *  0.0000     4          
   513  Li    c      8.2341 *    -9.4089 *    11.7620 *  0.0000     4          
   514  Li    c    -11.3692 *    10.1945 *     7.8414 *  0.0000     4          
   515  Li    c     -1.5675 *    10.1945 *    13.7224 *  0.0000     4          
   516  O     c     10.1945 *   -13.3296 *     3.9207 *  0.0000     4          
   517  Li    c      0.3928 *   -17.2503 *     0.0000    0.0000     2          
   518  Li    c    -11.3692 *    -5.4882 *    11.7620 *  0.0000     4          
   519  Li    c    -15.2899 *    -1.5675 *     7.8414 *  0.0000     4          
   520  Li    c     12.1548 *    -9.4089 *     7.8414 *  0.0000     4          
   521  Li    c     -3.5279 *     6.2738 *    15.6827 *  0.0000     4          
   522  Li    c     -7.4486 *    10.1945 *    11.7620 *  0.0000     4          
   523  Li    c     -1.5675 *    14.1152 *     9.8017 *  0.0000     4          
   524  Li    c      2.3531 *    10.1945 *    13.7224 *  0.0000     4          
   525  Li    c     16.0755 *     6.2738 *     0.0000    0.0000     2          
   526  Cl    c     -7.4486 *    -7.4486      13.7224 *  0.0000     2          
   527  Cl    c     12.1548 *    -7.4486 *     9.8017 *  0.0000     4          
   528  Cl    c     12.1548 *    12.1548      -1.9603 *  0.0000     2          
   529  O     c     -1.5675 *   -17.2503 *     0.0000    0.0000     2          
   530  O     c      6.2738 *    14.1152 *     7.8414 *  0.0000     4          
   531  Li    c     -9.4089 *   -13.3296 *     5.8810 *  0.0000     4          
   532  Li    c    -15.2899 *     2.3531 *     7.8414 *  0.0000     4          
   533  Li    c      2.3531 *    14.1152 *     9.8017 *  0.0000     4          
   534  O     c      2.3531 *   -17.2503 *     0.0000    0.0000     2          
   535  O     c     14.1152 *    -9.4089 *     3.9207 *  0.0000     4          
   536  O     c     10.1945 *    14.1152 *     0.0000    0.0000     2          
   537  Li    c     -5.4882 *   -13.3296 *     9.8017 *  0.0000     4          
   538  Li    c     -1.5675 *   -17.2503 *    -1.9603 *  0.0000     4          
   539  Li    c     -7.4486 *    -1.5675 *    15.6827 *  0.0000     4          
   540  Li    c      4.3135 *     6.2738 *    15.6827 *  0.0000     4          
   541  Li    c     16.0755 *    -5.4882 *     3.9207 *  0.0000     4          
   542  Li    c     10.1945 *    10.1945       9.8017 *  0.0000     2          
   543  Cl    c      8.2341 *   -15.2899 *    -1.9603 *  0.0000     4          
   544  Cl    c     16.0755 *    -3.5279 *     5.8810 *  0.0000     4          
   545  O     c     -5.4882 *    -5.4882      15.6827 *  0.0000     2          
   546  Li    c    -11.3692 *   -13.3296 *     0.0000    0.0000     2          
   547  Li    c     -5.4882 *    -9.4089 *    13.7224 *  0.0000     4          
   548  Li    c      2.3531 *   -17.2503 *    -1.9603 *  0.0000     4          
   549  Li    c      8.2341 *   -13.3296 *     7.8414 *  0.0000     4          
   550  Li    c     -7.4486 *     2.3531 *    15.6827 *  0.0000     4          
   551  Li    c    -11.3692 *     6.2738 *    11.7620 *  0.0000     4          
   552  Li    c     10.1945 *    14.1152 *    -1.9603 *  0.0000     4          
   553  Li    c     -3.5279 *   -17.2503 *     0.0000    0.0000     2          
   554  Li    c      8.2341 *    10.1945 *    11.7620 *  0.0000     4          
   555  Cl    c      0.3928 *     0.3928      17.6430 *  0.0000     2          
   556  Cl    c      8.2341 *    -7.4486 *    13.7224 *  0.0000     4          
   557  Cl    c     12.1548 *   -11.3692 *     5.8810 *  0.0000     4          
   558  Cl    c      4.3135 *    16.0755 *     5.8810 *  0.0000     4          
   559  Cl    c      8.2341 *    12.1548 *     9.8017 *  0.0000     4          
   560  Li    c      0.3928 *   -17.2503 *     3.9207 *  0.0000     4          
   561  Li    c      6.2738 *   -13.3296 *     9.8017 *  0.0000     4          
   562  Li    c     16.0755 *     6.2738 *     3.9207 *  0.0000     4          
   563  Li    c     12.1548 *    10.1945 *     7.8414 *  0.0000     4          
   564  O     c     -1.5675 *   -17.2503 *     3.9207 *  0.0000     4          
   565  O     c     -9.4089 *    -9.4089      11.7620 *  0.0000     2          
   566  O     c      6.2738 *    -5.4882 *    15.6827 *  0.0000     4          
   567  Li    c      0.3928 *   -13.3296 *    11.7620 *  0.0000     4          
   568  Li    c      4.3135 *   -17.2503 *     0.0000    0.0000     2          
   569  Li    c      6.2738 *    -9.4089 *    13.7224 *  0.0000     4          
   570  Li    c     -1.5675 *    -1.5675      17.6430 *  0.0000     2          
   571  Li    c     10.1945 *   -13.3296 *     5.8810 *  0.0000     4          
   572  Li    c      8.2341 *    -1.5675 *    15.6827 *  0.0000     4          
   573  Li    c     12.1548 *    -5.4882 *    11.7620 *  0.0000     4          
   574  Li    c     -7.4486 *    14.1152 *     7.8414 *  0.0000     4          
   575  Cl    c      0.3928 *   -11.3692 *    13.7224 *  0.0000     4          
   576  Cl    c     16.0755 *    -7.4486 *    -1.9603 *  0.0000     4          
   577  O     c     -1.5675 *   -13.3296 *    11.7620 *  0.0000     4          
   578  O     c      2.3531 *   -17.2503 *     3.9207 *  0.0000     4          
   579  O     c     10.1945 *    14.1152 *     3.9207 *  0.0000     4          
   580  Li    c     -1.5675 *     2.3531 *    17.6430 *  0.0000     4          
   581  Li    c      8.2341 *     2.3531 *    15.6827 *  0.0000     4          
   582  O     c      2.3531 *   -13.3296 *    11.7620 *  0.0000     4          
   583  Li    c    -11.3692 *   -13.3296 *     3.9207 *  0.0000     4          
   584  Li    c    -15.2899 *    -9.4089 *     0.0000    0.0000     2          
   585  Li    c      2.3531 *     2.3531      17.6430 *  0.0000     2          
   586  Li    c     14.1152 *    -9.4089 *     5.8810 *  0.0000     4          
   587  Li    c     10.1945 *    -5.4882 *    13.7224 *  0.0000     4          
   588  Li    c     16.0755 *    -1.5675 *     7.8414 *  0.0000     4          
   589  Cl    c     -7.4486 *   -15.2899 *     5.8810 *  0.0000     4          
   590  Cl    c      0.3928 *    -3.5279 *    17.6430 *  0.0000     4          
   591  Cl    c      8.2341 *     8.2341      13.7224 *  0.0000     2          
   592  O     c      6.2738 *     6.2738      15.6827 *  0.0000     2          
   593  Li    c     -3.5279 *   -17.2503 *     3.9207 *  0.0000     4          
   594  Li    c    -15.2899 *    -5.4882 *     7.8414 *  0.0000     4          
   595  Li    c     12.1548 *   -13.3296 *     0.0000    0.0000     2          
   596  Li    c     14.1152 *    -5.4882 *     9.8017 *  0.0000     4          
   597  Li    c      0.3928 *    18.0358 *     0.0000    0.0000     2          
   598  Li    c     12.1548 *     6.2738 *    11.7620 *  0.0000     4          
   599  Li    c     16.0755 *     2.3531 *     7.8414 *  0.0000     4          
   600  O     c     -5.4882 *   -17.2503 *     0.0000    0.0000     2          
   601  O     c     -9.4089 *   -13.3296 *     7.8414 *  0.0000     4          
   602  O     c     18.0358 *    -1.5675 *     0.0000    0.0000     2          
   603  Li    c     -3.5279 *   -13.3296 *    11.7620 *  0.0000     4          
   604  Li    c    -11.3692 *    14.1152 *     0.0000    0.0000     2          
   605  Li    c      8.2341 *    14.1152 *     7.8414 *  0.0000     4          
   606  Cl    c      0.3928 *   -15.2899 *     9.8017 *  0.0000     4          
   607  Cl    c     -3.5279 *   -11.3692 *    13.7224 *  0.0000     4          
   608  Cl    c      0.3928 *     4.3135 *    17.6430 *  0.0000     4          
   609  Cl    c      8.2341 *    16.0755 *    -1.9603 *  0.0000     4          
   610  Cl    c     12.1548 *    12.1548       5.8810 *  0.0000     2          
   611  O     c     10.1945 *    -9.4089 *    11.7620 *  0.0000     4          
   612  O     c      2.3531 *    18.0358 *     0.0000    0.0000     2          
   613  Li    c     -5.4882 *   -17.2503 *    -1.9603 *  0.0000     4          
   614  Li    c     -7.4486 *    -5.4882 *    15.6827 *  0.0000     4          
   615  Li    c      4.3135 *   -17.2503 *     3.9207 *  0.0000     4          
   616  Li    c     -1.5675 *    18.0358 *    -1.9603 *  0.0000     4          
   617  Li    c      6.2738 *    10.1945 *    13.7224 *  0.0000     4          
   618  Li    c     -1.5675 *   -17.2503 *     5.8810 *  0.0000     4          
   619  Li    c      4.3135 *   -13.3296 *    11.7620 *  0.0000     4          
   620  Li    c      0.3928 *    -9.4089 *    15.6827 *  0.0000     4          
   621  Li    c    -15.2899 *     6.2738 *     7.8414 *  0.0000     4          
   622  Li    c      6.2738 *    14.1152 *     9.8017 *  0.0000     4          
   623  Li    c      2.3531 *    18.0358 *    -1.9603 *  0.0000     4          
   624  Cl    c      4.3135 *   -11.3692 *    13.7224 *  0.0000     4          
   625  Cl    c     -3.5279 *    -3.5279      17.6430 *  0.0000     2          
   626  Cl    c      8.2341 *   -15.2899 *     5.8810 *  0.0000     4          
   627  Cl    c      0.3928 *    12.1548 *    13.7224 *  0.0000     4          
   628  O     c     -1.5675 *    -9.4089 *    15.6827 *  0.0000     4          
   629  O     c      6.2738 *   -17.2503 *     0.0000    0.0000     2          
   630  Li    c    -15.2899 *    -9.4089 *     3.9207 *  0.0000     4          
   631  Li    c      2.3531 *   -17.2503 *     5.8810 *  0.0000     4          
   632  Li    c    -15.2899 *    10.1945 *     0.0000    0.0000     2          
   633  Li    c      0.3928 *    14.1152 *    11.7620 *  0.0000     4          
   634  Li    c     -3.5279 *    18.0358 *     0.0000    0.0000     2          
   635  Li    c     10.1945 *    14.1152 *     5.8810 *  0.0000     4          
   636  O     c      2.3531 *    -9.4089 *    15.6827 *  0.0000     4          
   637  O     c     14.1152 *    -1.5675 *    11.7620 *  0.0000     4          
   638  Li    c      6.2738 *   -17.2503 *    -1.9603 *  0.0000     4          
   639  Li    c     12.1548 *   -13.3296 *     3.9207 *  0.0000     4          
   640  Li    c     -7.4486 *     6.2738 *    15.6827 *  0.0000     4          
   641  Li    c      0.3928 *    18.0358 *     3.9207 *  0.0000     4          
   642  Cl    c     -3.5279 *   -15.2899 *     9.8017 *  0.0000     4          
   643  Cl    c      4.3135 *    -3.5279 *    17.6430 *  0.0000     4          
   644  O     c     -5.4882 *   -17.2503 *     3.9207 *  0.0000     4          
   645  O     c     10.1945 *   -13.3296 *     7.8414 *  0.0000     4          
   646  O     c      2.3531 *    14.1152 *    11.7620 *  0.0000     4          
   647  O     c     18.0358 *    -1.5675 *     3.9207 *  0.0000     4          
   648  Li    c     -1.5675 *    -5.4882 *    17.6430 *  0.0000     4          
   649  Li    c      8.2341 *    -5.4882 *    15.6827 *  0.0000     4          
   650  Li    c    -11.3692 *    14.1152 *     3.9207 *  0.0000     4          
   651  Li    c      4.3135 *    18.0358 *     0.0000    0.0000     2          
   652  O     c     -5.4882 *   -13.3296 *    11.7620 *  0.0000     4          
   653  O     c      2.3531 *    18.0358 *     3.9207 *  0.0000     4          
   654  O     c     10.1945 *    10.1945      11.7620 *  0.0000     2          
   655  Li    c     -3.5279 *    -9.4089 *    15.6827 *  0.0000     4          
   656  Li    c      2.3531 *    -5.4882 *    17.6430 *  0.0000     4          
   657  Li    c     16.0755 *    -9.4089 *     0.0000    0.0000     2          
   658  Li    c     12.1548 *    14.1152 *     0.0000    0.0000     2          
   659  Cl    c      4.3135 *   -15.2899 *     9.8017 *  0.0000     4          
   660  Cl    c      4.3135 *     4.3135      17.6430 *  0.0000     2          
   661  Cl    c     12.1548 *    -3.5279 *    13.7224 *  0.0000     4          
   662  Cl    c     16.0755 *    -7.4486 *     5.8810 *  0.0000     4          
   663  O     c     14.1152 *    -9.4089 *     7.8414 *  0.0000     4          
   664  Li    c     16.0755 *    -5.4882 *     7.8414 *  0.0000     4          
   665  Li    c     -3.5279 *    14.1152 *    11.7620 *  0.0000     4          
   666  Li    c      0.3928 *    10.1945 *    15.6827 *  0.0000     4          
   667  O     c      6.2738 *   -17.2503 *     3.9207 *  0.0000     4          
   668  O     c     10.1945 *    -1.5675 *    15.6827 *  0.0000     4          
   669  Li    c     -7.4486 *   -17.2503 *     0.0000    0.0000     2          
   670  Li    c      4.3135 *    -9.4089 *    15.6827 *  0.0000     4          
   671  Li    c    -15.2899 *    10.1945 *     3.9207 *  0.0000     4          
   672  Li    c     -1.5675 *     6.2738 *    17.6430 *  0.0000     4          
   673  Li    c     -3.5279 *    18.0358 *     3.9207 *  0.0000     4          
   674  Li    c      8.2341 *     6.2738 *    15.6827 *  0.0000     4          
   675  Cl    c    -11.3692 *   -11.3692       9.8017 *  0.0000     2          
   676  Cl    c      0.3928 *    16.0755 *     9.8017 *  0.0000     4          
   677  Cl    c      4.3135 *    12.1548 *    13.7224 *  0.0000     4          
   678  O     c    -13.3296 *   -13.3296       0.0000    0.0000     1          
   679  O     c      6.2738 *   -13.3296 *    11.7620 *  0.0000     4          
   680  O     c     18.0358 *    -5.4882 *     0.0000    0.0000     2          
   681  O     c      2.3531 *    10.1945 *    15.6827 *  0.0000     4          
   682  Li    c    -11.3692 *    -9.4089 *    11.7620 *  0.0000     4          
   683  Li    c      2.3531 *     6.2738 *    17.6430 *  0.0000     4          
   684  Li    c      4.3135 *    14.1152 *    11.7620 *  0.0000     4          
   685  Li    c    -13.3296 *   -13.3296      -1.9603 *  0.0000     2          
   686  Li    c      0.3928 *   -17.2503 *     7.8414 *  0.0000     4          
   687  Li    c     18.0358 *    -5.4882 *    -1.9603 *  0.0000     4          
   688  Li    c      4.3135 *    18.0358 *     3.9207 *  0.0000     4          
   689  Li    c     16.0755 *     6.2738 *     7.8414 *  0.0000     4          
   690  Cl    c      8.2341 *    16.0755 *     5.8810 *  0.0000     4          
   691  O     c     -1.5675 *   -17.2503 *     7.8414 *  0.0000     4          
   692  Li    c     -5.4882 *   -17.2503 *     5.8810 *  0.0000     4          
   693  Li    c     -9.4089 *   -13.3296 *     9.8017 *  0.0000     4          
   694  Li    c     16.0755 *    -9.4089 *     3.9207 *  0.0000     4          
   695  Li    c     -3.5279 *    10.1945 *    15.6827 *  0.0000     4          
   696  Li    c     -1.5675 *    18.0358 *     5.8810 *  0.0000     4          
   697  Li    c     12.1548 *    14.1152 *     3.9207 *  0.0000     4          
   698  Li    c     16.0755 *    10.1945 *     0.0000    0.0000     2          
   699  O     c     -5.4882 *    -9.4089 *    15.6827 *  0.0000     4          
[...]
   1057 y         13.722364     13.720706    -0.001658    Cartesian   -0.01
   1057 z          5.881013      5.878897    -0.002116    Cartesian   -0.04
   1058 x         11.762026     11.764679     0.002653    Cartesian    0.02
   1058 y         -7.841351     -7.843681    -0.002330    Cartesian    0.03
   1058 z         11.762026     11.763238     0.001212    Cartesian    0.01
   1059 x          3.920675      3.921096     0.000420    Cartesian    0.01
   1059 y         19.603377     19.603146    -0.000231    Cartesian   -0.00
   1059 z          0.000000      0.000000     0.000000    Cartesian    0.00
   1060 x          5.881013      5.880209    -0.000804    Cartesian   -0.01
   1060 y         -9.801689     -9.799744     0.001944    Cartesian   -0.02
   1060 z         13.722364     13.718245    -0.004119    Cartesian   -0.03
   1061 x         -1.960338     -1.960611    -0.000274    Cartesian    0.01
   1061 y         -1.960338     -1.960611    -0.000274    Cartesian    0.01
   1061 z         17.643040     17.638342    -0.004697    Cartesian   -0.03
   1062 x          9.801689      9.800843    -0.000846    Cartesian   -0.01
   1062 y        -13.722364    -13.717364     0.005001    Cartesian   -0.04
   1062 z          5.881013      5.878657    -0.002356    Cartesian   -0.04
   1063 x          1.960338      1.960294    -0.000044    Cartesian   -0.00
   1063 y         13.722364     13.724381     0.002017    Cartesian    0.01
   1063 z         13.722364     13.721000    -0.001364    Cartesian   -0.01
   1064 x         -0.000000     -0.000281    -0.000281    Cartesian *******
   1064 y         -7.841351     -7.842345    -0.000994    Cartesian    0.01
   1064 z         15.682702     15.682111    -0.000591    Cartesian   -0.00
   1065 x          7.841351      7.843038     0.001687    Cartesian    0.02
   1065 y        -15.682702    -15.681477     0.001225    Cartesian   -0.01
   1065 z          0.000000      0.000000     0.000000    Cartesian    0.00
   1066 x          3.920675      3.920214    -0.000462    Cartesian   -0.01
   1066 y         -7.841351     -7.843126    -0.001775    Cartesian    0.02
   1066 z         15.682702     15.682632    -0.000070    Cartesian   -0.00
   1067 x         15.682702     15.686526     0.003824    Cartesian    0.02
   1067 y         -0.000000     -0.000720    -0.000720    Cartesian *******
   1067 z         11.762026     11.764712     0.002685    Cartesian    0.02
   1068 x         -1.960338     -1.959466     0.000872    Cartesian   -0.04
   1068 y        -13.722364    -13.716419     0.005945    Cartesian   -0.04
   1068 z          9.801689      9.799134    -0.002555    Cartesian   -0.03
   1069 x          5.881013      5.881123     0.000110    Cartesian    0.00
   1069 y         -1.960338     -1.960187     0.000151    Cartesian   -0.01
   1069 z         17.643040     17.638253    -0.004787    Cartesian   -0.03
   1070 x         -3.920675     -3.920352     0.000324    Cartesian   -0.01
   1070 y        -15.682702    -15.681211     0.001491    Cartesian   -0.01
   1070 z          3.920675      3.920527    -0.000149    Cartesian   -0.00
   1071 x         11.762026     11.764130     0.002104    Cartesian    0.02
   1071 y        -11.762026    -11.763234    -0.001207    Cartesian    0.01
   1071 z          7.841351      7.841534     0.000183    Cartesian    0.00
   1072 x          3.920675      3.920774     0.000099    Cartesian    0.00
   1072 y         15.682702     15.685654     0.002952    Cartesian    0.02
   1072 z         11.762026     11.764085     0.002058    Cartesian    0.02
   1073 x         19.603377     19.602634    -0.000743    Cartesian   -0.00
   1073 y         -0.000000     -0.000072    -0.000072    Cartesian *******
   1073 z          3.920675      3.920460    -0.000215    Cartesian   -0.01
   1074 x         -3.920675     -3.920059     0.000617    Cartesian   -0.02
   1074 y        -11.762026    -11.760718     0.001308    Cartesian   -0.01
   1074 z         11.762026     11.761358    -0.000669    Cartesian   -0.01
   1075 x          3.920675      3.920673    -0.000002    Cartesian   -0.00
   1075 y         19.603377     19.602736    -0.000641    Cartesian   -0.00
   1075 z          3.920675      3.920634    -0.000042    Cartesian   -0.00
   1076 x         11.762026     11.766761     0.004734    Cartesian    0.04
   1076 y         11.762026     11.766761     0.004734    Cartesian    0.04
   1076 z         11.762026     11.766575     0.004549    Cartesian    0.04
   1077 x          5.881013      5.879696    -0.001317    Cartesian   -0.02
   1077 y        -13.722364    -13.716816     0.005548    Cartesian   -0.04
   1077 z          9.801689      9.799593    -0.002096    Cartesian   -0.02
   1078 x          5.881013      5.881534     0.000520    Cartesian    0.01
   1078 y          5.881013      5.881534     0.000520    Cartesian    0.01
   1078 z         17.643040     17.638625    -0.004415    Cartesian   -0.03
   1079 x         13.722364     13.723068     0.000704    Cartesian    0.01
   1079 y         -1.960338     -1.960747    -0.000409    Cartesian    0.02
   1079 z         13.722364     13.719712    -0.002652    Cartesian   -0.02
   1080 x         17.643040     17.638636    -0.004404    Cartesian   -0.02
   1080 y         -5.881013     -5.878574     0.002439    Cartesian   -0.04
   1080 z          5.881013      5.879428    -0.001585    Cartesian   -0.03
   1081 x         15.682702     15.683558     0.000856    Cartesian    0.01
   1081 y         -7.841351     -7.841558    -0.000207    Cartesian    0.00
   1081 z          7.841351      7.841148    -0.000203    Cartesian   -0.00
   1082 x          7.841351      7.841734     0.000383    Cartesian    0.00
   1082 y        -15.682702    -15.681767     0.000935    Cartesian   -0.01
   1082 z          3.920675      3.920888     0.000213    Cartesian    0.01
   1083 x         11.762026     11.765547     0.003520    Cartesian    0.03
   1083 y         -0.000000     -0.000482    -0.000482    Cartesian *******
   1083 z         15.682702     15.684445     0.001743    Cartesian    0.01
   1084 x         -9.801689     -9.795547     0.006142    Cartesian   -0.06
   1084 y         -9.801689     -9.795547     0.006142    Cartesian   -0.06
   1084 z          9.801689      9.796350    -0.005339    Cartesian   -0.05
   1085 x          1.960338      1.961251     0.000913    Cartesian    0.05
   1085 y         17.643040     17.638606    -0.004434    Cartesian   -0.03
   1085 z          9.801689      9.799209    -0.002480    Cartesian   -0.03
   1086 x          5.881013      5.882139     0.001125    Cartesian    0.02
   1086 y         13.722364     13.723451     0.001087    Cartesian    0.01
   1086 z         13.722364     13.719856    -0.002509    Cartesian   -0.02
   1087 x        -11.762026    -11.759210     0.002817    Cartesian   -0.02
   1087 y        -11.762026    -11.759210     0.002817    Cartesian   -0.02
   1087 z          0.000000      0.000000     0.000000    Cartesian    0.00
   1088 x          7.841351      7.840725    -0.000626    Cartesian   -0.01
   1088 y        -11.762026    -11.760775     0.001252    Cartesian   -0.01
   1088 z         11.762026     11.760745    -0.001282    Cartesian   -0.01
   1089 x         19.603377     19.602724    -0.000654    Cartesian   -0.00
   1089 y         -3.920675     -3.920753    -0.000077    Cartesian    0.00
   1089 z          0.000000      0.000000     0.000000    Cartesian    0.00
   1090 x          3.920675      3.920894     0.000218    Cartesian    0.01
   1090 y         11.762026     11.765704     0.003677    Cartesian    0.03
   1090 z         15.682702     15.684954     0.002252    Cartesian    0.01
   1091 x          9.801689      9.800725    -0.000964    Cartesian   -0.01
   1091 y         17.643040     17.637951    -0.005089    Cartesian   -0.03
   1091 z          5.881013      5.879092    -0.001922    Cartesian   -0.03
   1092 x         -0.000000      0.000259     0.000259    Cartesian *******
   1092 y        -15.682702    -15.681244     0.001458    Cartesian   -0.01
   1092 z          7.841351      7.841385     0.000034    Cartesian    0.00
   1093 x         -3.920675     -3.920489     0.000187    Cartesian   -0.00
   1093 y         -7.841351     -7.839991     0.001359    Cartesian   -0.02
   1093 z         15.682702     15.680353    -0.002349    Cartesian   -0.01
   1094 x          3.920675      3.920507    -0.000169    Cartesian   -0.00
   1094 y        -15.682702    -15.681403     0.001299    Cartesian   -0.01
   1094 z          7.841351      7.841558     0.000207    Cartesian    0.00
   1095 x          7.841351      7.841611     0.000260    Cartesian    0.00
   1095 y         19.603377     19.603196    -0.000182    Cartesian   -0.00
   1095 z          0.000000      0.000000     0.000000    Cartesian    0.00
   1096 x         11.762026     11.761518    -0.000509    Cartesian   -0.00
   1096 y         15.682702     15.682423    -0.000279    Cartesian   -0.00
   1096 z          7.841351      7.840783    -0.000568    Cartesian   -0.01
   1097 x         -9.801689     -9.796593     0.005096    Cartesian   -0.05
   1097 y        -13.722364    -13.715152     0.007212    Cartesian   -0.05
   1097 z         -1.960338     -1.959336     0.001002    Cartesian   -0.05
   1098 x          1.960338      1.960335    -0.000003    Cartesian   -0.00
   1098 y         -5.881013     -5.878563     0.002451    Cartesian   -0.04
   1098 z         17.643040     17.635185    -0.007854    Cartesian   -0.04
   1099 x         17.643040     17.638485    -0.004554    Cartesian   -0.03
   1099 y         -1.960338     -1.958971     0.001366    Cartesian   -0.07
   1099 z          9.801689      9.798137    -0.003552    Cartesian   -0.04
   1100 x         15.682702     15.682800     0.000098    Cartesian    0.00
   1100 y         -3.920675     -3.920638     0.000037    Cartesian   -0.00
   1100 z         11.762026     11.760599    -0.001428    Cartesian   -0.01
   1101 x        -11.762026    -11.759151     0.002875    Cartesian   -0.02
   1101 y        -11.762026    -11.759151     0.002875    Cartesian   -0.02
   1101 z          3.920675      3.919940    -0.000736    Cartesian   -0.02
   1102 x         19.603377     19.602878    -0.000499    Cartesian   -0.00
   1102 y         -3.920675     -3.920901    -0.000225    Cartesian    0.01
   1102 z          3.920675      3.920693     0.000018    Cartesian    0.00
   1103 x          1.960338      1.960318    -0.000020    Cartesian   -0.00
   1103 y        -17.643040    -17.634563     0.008476    Cartesian   -0.05
   1103 z         -1.960338     -1.959446     0.000892    Cartesian   -0.05
   1104 x         -5.881013     -5.878180     0.002833    Cartesian   -0.05
   1104 y         -9.801689     -9.796613     0.005076    Cartesian   -0.05
   1104 z         13.722364     13.715018    -0.007346    Cartesian   -0.05
   1105 x         13.722364     13.719951    -0.002413    Cartesian   -0.02
   1105 y         -9.801689     -9.798427     0.003261    Cartesian   -0.03
   1105 z          9.801689      9.798577    -0.003112    Cartesian   -0.03
   1106 x          5.881013      5.879964    -0.001049    Cartesian   -0.02
   1106 y         17.643040     17.636839    -0.006201    Cartesian   -0.04
   1106 z          9.801689      9.797428    -0.004261    Cartesian   -0.04
   1107 x          7.841351      7.839977    -0.001374    Cartesian   -0.02
   1107 y         -7.841351     -7.840187     0.001164    Cartesian   -0.01
   1107 z         15.682702     15.679875    -0.002827    Cartesian   -0.02
   1108 x         15.682702     15.680705    -0.001997    Cartesian   -0.01
   1108 y        -11.762026    -11.760025     0.002001    Cartesian   -0.02
   1108 z          0.000000      0.000000     0.000000    Cartesian    0.00
   1109 x          7.841351      7.840204    -0.001147    Cartesian   -0.01
   1109 y         15.682702     15.680990    -0.001712    Cartesian   -0.01
   1109 z         11.762026     11.759849    -0.002177    Cartesian   -0.02
   1110 x         -1.960338     -1.958811     0.001527    Cartesian   -0.08
   1110 y         -5.881013     -5.877876     0.003138    Cartesian   -0.05
   1110 z         17.643040     17.634051    -0.008988    Cartesian   -0.05
   1111 x          1.960338      1.960452     0.000115    Cartesian    0.01
   1111 y          9.801689      9.800372    -0.001316    Cartesian   -0.01
   1111 z         17.643040     17.635740    -0.007300    Cartesian   -0.04
   1112 x         11.762026     11.761172    -0.000854    Cartesian   -0.01
   1112 y         -3.920675     -3.919772     0.000903    Cartesian   -0.02
   1112 z         15.682702     15.680322    -0.002380    Cartesian   -0.02
   1113 x          7.841351      7.840374    -0.000977    Cartesian   -0.01
   1113 y         19.603377     19.601552    -0.001825    Cartesian   -0.01
   1113 z          3.920675      3.920608    -0.000068    Cartesian   -0.00
   1114 x         -1.960338     -1.958621     0.001717    Cartesian   -0.09
   1114 y        -17.643040    -17.632705     0.010335    Cartesian   -0.06
   1114 z         -1.960338     -1.959311     0.001026    Cartesian   -0.05
   1115 x         -5.881013     -5.877211     0.003802    Cartesian   -0.06
   1115 y        -13.722364    -13.713473     0.008891    Cartesian   -0.06
   1115 z          9.801689      9.796245    -0.005444    Cartesian   -0.06
   1116 x          5.881013      5.879127    -0.001887    Cartesian   -0.03
   1116 y         -5.881013     -5.878250     0.002763    Cartesian   -0.05
   1116 z         17.643040     17.634445    -0.008595    Cartesian   -0.05
   1117 x          9.801689      9.798586    -0.003103    Cartesian   -0.03
   1117 y         -9.801689     -9.797364     0.004325    Cartesian   -0.04
   1117 z         13.722364     13.715650    -0.006714    Cartesian   -0.05
   1118 x         13.722364     13.716919    -0.005445    Cartesian   -0.04
   1118 y        -13.722364    -13.714498     0.007867    Cartesian   -0.06
   1118 z         -1.960338     -1.958890     0.001447    Cartesian   -0.07
   1119 x         -7.841351     -7.839617     0.001734    Cartesian   -0.02
   1119 y        -15.682702    -15.679599     0.003103    Cartesian   -0.02
   1119 z          0.000000      0.000000     0.000000    Cartesian    0.00
   1120 x         -3.920675     -3.918746     0.001930    Cartesian   -0.05
   1120 y        -15.682702    -15.677885     0.004817    Cartesian   -0.03
   1120 z          7.841351      7.839164    -0.002187    Cartesian   -0.03
   1121 x         -0.000000     -0.000226    -0.000226    Cartesian *******
   1121 y         -0.000000     -0.000226    -0.000226    Cartesian *******
   1121 z         19.603377     19.602555    -0.000823    Cartesian   -0.00
   1122 x         19.603377     19.601072    -0.002305    Cartesian   -0.01
   1122 y         -0.000000      0.000061     0.000061    Cartesian *******
   1122 z          7.841351      7.839726    -0.001625    Cartesian   -0.02
   1123 x          7.841351      7.839927    -0.001424    Cartesian   -0.02
   1123 y         11.762026     11.761086    -0.000940    Cartesian   -0.01
   1123 z         15.682702     15.680811    -0.001891    Cartesian   -0.01
   1124 x          5.881013      5.878954    -0.002060    Cartesian   -0.04
   1124 y        -17.643040    -17.632276     0.010764    Cartesian   -0.06
   1124 z         -1.960338     -1.959109     0.001229    Cartesian   -0.06
   1125 x          9.801689      9.799237    -0.002452    Cartesian   -0.03
   1125 y         -1.960338     -1.958678     0.001660    Cartesian   -0.08
   1125 z         17.643040     17.634699    -0.008340    Cartesian   -0.05
   1126 x         13.722364     13.718776    -0.003588    Cartesian   -0.03
   1126 y         -5.881013     -5.878037     0.002976    Cartesian   -0.05
   1126 z         13.722364     13.715881    -0.006483    Cartesian   -0.05
   1127 x         17.643040     17.634975    -0.008065    Cartesian   -0.05
   1127 y         -9.801689     -9.795336     0.006352    Cartesian   -0.06
   1127 z         -1.960338     -1.958863     0.001475    Cartesian   -0.08
   1128 x         13.722364     13.718285    -0.004079    Cartesian   -0.03
   1128 y         13.722364     13.718285    -0.004079    Cartesian   -0.03
   1128 z          9.801689      9.796225    -0.005464    Cartesian   -0.06
   1129 x          3.920675      3.919453    -0.001222    Cartesian   -0.03
   1129 y         -0.000000      0.001068     0.001068    Cartesian *******
   1129 z         19.603377     19.599249    -0.004128    Cartesian   -0.02
   1130 x         15.682702     15.679558    -0.003144    Cartesian   -0.02
   1130 y        -11.762026    -11.758695     0.003332    Cartesian   -0.03
   1130 z          3.920675      3.918761    -0.001915    Cartesian   -0.05
   1131 x          3.920675      3.919587    -0.001089    Cartesian   -0.03
   1131 y         19.603377     19.599508    -0.003870    Cartesian   -0.02
   1131 z          7.841351      7.839129    -0.002222    Cartesian   -0.03
   1132 x          3.920675      3.919553    -0.001123    Cartesian   -0.03
   1132 y          3.920675      3.919553    -0.001123    Cartesian   -0.03
   1132 z         19.603377     19.599197    -0.004180    Cartesian   -0.02
   1133 x         -9.801689     -9.795201     0.006488    Cartesian   -0.07
   1133 y        -13.722364    -13.712341     0.010023    Cartesian   -0.07
   1133 z          5.881013      5.877499    -0.003514    Cartesian   -0.06
   1134 x          9.801689      9.798242    -0.003447    Cartesian   -0.04
   1134 y        -13.722364    -13.714130     0.008234    Cartesian   -0.06
   1134 z          9.801689      9.797080    -0.004609    Cartesian   -0.05
   1135 x          5.881013      5.879451    -0.001562    Cartesian   -0.03
   1135 y          9.801689      9.799558    -0.002131    Cartesian   -0.02
   1135 z         17.643040     17.635079    -0.007961    Cartesian   -0.05
   1136 x          7.841351      7.839409    -0.001942    Cartesian   -0.02
   1136 y        -15.682702    -15.678219     0.004483    Cartesian   -0.03
   1136 z          7.841351      7.839299    -0.002052    Cartesian   -0.03
   1137 x         15.682702     15.678059    -0.004642    Cartesian   -0.03
   1137 y         15.682702     15.678059    -0.004642    Cartesian   -0.03
   1137 z          0.000000      0.000000     0.000000    Cartesian    0.00
--------------------------------------------------------------------------------


  Time to end of optimisation  =      966.5223 seconds


  Peak dynamic memory used =    1259.91 MB 


  Timing analysis for GULP :

--------------------------------------------------------------------------------
  Task / Subroutine                                          Time (Seconds)
--------------------------------------------------------------------------------
  Calculation of reciprocal space energy and derivatives          0.0002
  Calculation of reciprocal space energy using symmetry           0.0003
  Calculation of real space energy and derivatives                0.0015
  Calculation of real space energy using symmetry                 0.0032
  Calculation for region 1 energy and derivatives (2-b)         295.4532
  Calculation for region 2a energy                              112.7239
  Calculation for region 2b energy                                0.0094
  Calculation and manipulation of Hessian matrix                496.9661
  Calculation of matrix inversion                                59.5717
  Symmetry generation of equivalent positions                     0.0017
--------------------------------------------------------------------------------
  Total CPU time                                                966.5223
--------------------------------------------------------------------------------


  Dump file written as Li3OCl.grs


  Job Finished at 14:53.01 28th October    2020                               

