********************************************************************************
*                       GENERAL UTILITY LATTICE PROGRAM                        *
*                                 Julian Gale                                  *
*                       Curtin Institute for Computation                       *
*                    School of Molecular and Life Sciences                     *
*                    Curtin University, Western Australia                      *
********************************************************************************
* Version = 5.2.0 * Last modified =  10th September 2020                       *
********************************************************************************
*  optimise     - perform optimisation run                                     *
*  conp         - constant pressure calculation                                *
*  property     - calculate properties for final geometry                      *
*  defect       - perform defect calculation after bulk run                    *
*  compare      - compare initial and final structures                         *
********************************************************************************

  Job Started  at 13:02.33 28th October    2020                               

  Number of CPUs =     1


  Total number of configurations input =      1

********************************************************************************
*  Input for Configuration =   1                                               *
********************************************************************************

  Formula = ClOLi3                                                      

  Number of irreducible atoms/shells =       5


  Total number atoms/shells =       7

  Dimensionality = 3               :  Bulk   


  Symmetry :

  Crystal family                   :  Cubic       
  Crystal class  (Groth - 1921)    :  Cubic Hexakisoctahedral              

  Space group (centrosymmetric)    :  P M 3 M         

  Patterson group                  :  P m -3 m 

  Cartesian lattice vectors (Angstroms) :

        3.918873    0.000000    0.000000
        0.000000    3.918873    0.000000
        0.000000    0.000000    3.918873

  Cell parameters (Angstroms/Degrees):

  a =       3.9189    alpha =  90.0000
  b =       3.9189    beta  =  90.0000
  c =       3.9189    gamma =  90.0000

  Initial cell volume =          60.184349 Angs**3

  Temperature of configuration =   0.00     K 

  Pressure of configuration =         0.000 GPa 

  Fractional coordinates of asymmetric unit :

--------------------------------------------------------------------------------
   No.  Atomic       x           y          z         Charge      Occupancy
        Label      (Frac)      (Frac)     (Frac)        (e)         (Frac)  
--------------------------------------------------------------------------------
      1 Cl    c    0.500000    0.500000    0.500000     1.48500    1.000000    
      2 O     c    0.000000    0.000000    0.000000     0.18300    1.000000    
      3 Li    c    0.500000    0.000000    0.000000     1.00000    1.000000    
      4 Cl    s    0.500000    0.500000    0.500000    -2.48500    1.000000    
      5 O     s    0.000000    0.000000    0.000000    -2.18300    1.000000    
--------------------------------------------------------------------------------


  Constraints : 

--------------------------------------------------------------------------------
  Constraint no.      Unconstrained     Constrained    Coefficient    Offset
                         Variable         Variable
--------------------------------------------------------------------------------
           1              Strain 1        Strain 2       1.00000      0.0000
           2              Strain 1        Strain 3       1.00000      0.0000
--------------------------------------------------------------------------------


********************************************************************************
*  General input information                                                   *
********************************************************************************

  Species output for all configurations : 

--------------------------------------------------------------------------------
  Species    Type    Atomic    Atomic    Charge       Radii (Angs)     Library
                     Number     Mass       (e)     Cova   Ionic  VDW   Symbol
--------------------------------------------------------------------------------
    Li       Core        3       6.94   1.000000   0.680  0.000  1.800          
    O        Core        8      16.00   0.183000   0.730  0.000  1.360          
    O        Shell       8       0.00  -2.183000   0.730  0.000  1.360          
    Cl       Core       17      35.45   1.485000   0.990  0.000  1.650          
    Cl       Shell      17       0.00  -2.485000   0.990  0.000  1.650          
--------------------------------------------------------------------------------


  Lattice summation method               =    Ewald          (3-D)
                                         =    Parry          (2-D)
                                         =    Saunders et al (1-D)
  Accuracy factor for lattice sums       =   12.000


  Analytic derivatives to be used

  Time limit = Infinity

  Maximum range for interatomic potentials =    100000.000000 Angstroms

  General interatomic potentials :

--------------------------------------------------------------------------------
Atom  Types   Potential      Parameter       Value         Units   Cutoffs(Ang)
  1     2                                                            Min /  Max 
--------------------------------------------------------------------------------
O    c O    s Spring (c-s)  Spring k 2       593.72000    eV*Ang^-2 0.000  0.800
                            Spring k 4       0.0000000    eV*Ang^-4 
--------------------------------------------------------------------------------
Cl   c Cl   s Spring (c-s)  Spring k 2       29.380000    eV*Ang^-2 0.000  0.800
                            Spring k 4       0.0000000    eV*Ang^-4 
--------------------------------------------------------------------------------
Li   c Li   c Buckingham    Buckingham A     360.53000    eV        0.000 12.000
                            Buckingham rho  0.16100000    Ang       
                            Buckingham C     0.0000000    eV*Ang^6  
--------------------------------------------------------------------------------
Li   c O    s Buckingham    Buckingham A     292.30000    eV        0.000 12.000
                            Buckingham rho  0.34720000    Ang       
                            Buckingham C     0.0000000    eV*Ang^6  
--------------------------------------------------------------------------------
Li   c Cl   s Buckingham    Buckingham A     421.04000    eV        0.000 12.000
                            Buckingham rho  0.33400000    Ang       
                            Buckingham C     0.0000000    eV*Ang^6  
--------------------------------------------------------------------------------
O    s O    s Buckingham    Buckingham A     22764.300    eV        0.000 12.000
                            Buckingham rho  0.14900000    Ang       
                            Buckingham C     13.190000    eV*Ang^6  
--------------------------------------------------------------------------------
O    s Cl   s Buckingham    Buckingham A     8286.9100    eV        0.000 12.000
                            Buckingham rho  0.25900000    Ang       
                            Buckingham C     62.200000    eV*Ang^6  
--------------------------------------------------------------------------------
Cl   s Cl   s Buckingham    Buckingham A     1227.2000    eV        0.000 12.000
                            Buckingham rho  0.32100000    Ang       
                            Buckingham C     14.530000    eV*Ang^6  
--------------------------------------------------------------------------------

********************************************************************************
*  Output for configuration   1                                                *
********************************************************************************


  Components of energy : 

--------------------------------------------------------------------------------
  Interatomic potentials     =           7.26836263 eV    
  Monopole - monopole (real) =         -11.53475722 eV    
  Monopole - monopole (recip)=         -33.94580548 eV    
  Monopole - monopole (total)=         -45.48056271 eV    
--------------------------------------------------------------------------------
  Total lattice energy       =         -38.21220008 eV    
--------------------------------------------------------------------------------
  Total lattice energy       =           -3686.8932 kJ/(mole unit cells)
--------------------------------------------------------------------------------


  Number of variables =        1

  Maximum number of calculations  =          1000
  Maximum Hessian update interval =            10
  Maximum step size               =   1.000000000
  Maximum parameter tolerance     =   0.000010000
  Maximum function  tolerance     =   0.000010000
  Maximum gradient  tolerance     =   0.001000000
  Maximum gradient  component     =   0.010000000

  Symmetry constrained optimisation

  Symmetry used for second derivatives

  Cell parameters to be optimised using strains

  Newton-Raphson optimiser to be used

  BFGS hessian update to be used

  Lower half triangular hessian to be used

  Start of bulk optimisation :

  Cycle:      0 Energy:       -38.212200  Gnorm:      0.095699  CPU:    0.006
  ** Hessian calculated **
  Cycle:      1 Energy:       -38.212222  Gnorm:      0.000105  CPU:    0.007


  **** Optimisation achieved ****


  Final energy =     -38.21222207 eV
  Final Gnorm  =       0.00000001

  Components of energy : 

--------------------------------------------------------------------------------
  Interatomic potentials     =           7.24743137 eV    
  Monopole - monopole (real) =         -11.52945422 eV    
  Monopole - monopole (recip)=         -33.93019921 eV    
  Monopole - monopole (total)=         -45.45965344 eV    
--------------------------------------------------------------------------------
  Total lattice energy       =         -38.21222207 eV    
--------------------------------------------------------------------------------
  Total lattice energy       =           -3686.8953 kJ/(mole unit cells)
--------------------------------------------------------------------------------

  Final asymmetric unit coordinates :

--------------------------------------------------------------------------------
   No.  Atomic        x           y           z         Radius
        Label       (Frac)      (Frac)      (Frac)       (Angs) 
--------------------------------------------------------------------------------
     1  Cl    c     0.500000    0.500000    0.500000    0.000000
     2  O     c     0.000000    0.000000    0.000000    0.000000
     3  Li    c     0.500000    0.000000    0.000000    0.000000
     4  Cl    s     0.500000    0.500000    0.500000    0.000000
     5  O     s     0.000000    0.000000    0.000000    0.000000
--------------------------------------------------------------------------------

  Final Cartesian lattice vectors (Angstroms) :

        3.920675    0.000000    0.000000
        0.000000    3.920675    0.000000
        0.000000    0.000000    3.920675


  Final cell parameters and derivatives :

--------------------------------------------------------------------------------
       a            3.920675 Angstrom     dE/de1(xx)     0.000000 eV/strain
       b            3.920675 Angstrom     dE/de2(yy)     0.000000 eV/strain
       c            3.920675 Angstrom     dE/de3(zz)     0.000000 eV/strain
       alpha       90.000000 Degrees      dE/de4(yz)     0.000000 eV/strain
       beta        90.000000 Degrees      dE/de5(xz)     0.000000 eV/strain
       gamma       90.000000 Degrees      dE/de6(xy)     0.000000 eV/strain
--------------------------------------------------------------------------------

  Primitive cell volume =            60.267433 Angs**3

  Density of cell =      1.991276 g/cm**3

  Non-primitive cell volume =            60.267433 Angs**3


  Final internal derivatives :

--------------------------------------------------------------------------------
   No.  Atomic          a             b             c           Radius
        Label          (eV)          (eV)          (eV)        (eV/Angs)
--------------------------------------------------------------------------------
      1 Cl    c       0.000000      0.000000      0.000000      0.000000
      2 O     c       0.000000      0.000000      0.000000      0.000000
      3 Li    c       0.000000      0.000000      0.000000      0.000000
      4 Cl    s       0.000000      0.000000      0.000000      0.000000
      5 O     s       0.000000      0.000000      0.000000      0.000000
--------------------------------------------------------------------------------
  Maximum abs         0.000000      0.000000      0.000000      0.000000
--------------------------------------------------------------------------------

  Comparison of initial and final structures : 

--------------------------------------------------------------------------------
  Parameter   Initial value   Final value   Difference    Units      Percent
--------------------------------------------------------------------------------
    Volume        60.184349     60.267433     0.083084    Angs**3      0.14
    a              3.918873      3.920675     0.001802    Angstroms    0.05
    b              3.918873      3.920675     0.001802    Angstroms    0.05
    c              3.918873      3.920675     0.001802    Angstroms    0.05
    alpha         90.000000     90.000000     0.000000    Degrees      0.00
    beta          90.000000     90.000000     0.000000    Degrees      0.00
    gamma         90.000000     90.000000     0.000000    Degrees      0.00
      1 x          0.500000      0.500000     0.000000    Fractional   0.00
      1 y          0.500000      0.500000     0.000000    Fractional   0.00
      1 z          0.500000      0.500000     0.000000    Fractional   0.00
      2 x          0.000000      0.000000     0.000000    Fractional   0.00
      2 y          0.000000      0.000000     0.000000    Fractional   0.00
      2 z          0.000000      0.000000     0.000000    Fractional   0.00
      3 x          0.500000      0.500000     0.000000    Fractional   0.00
      3 y          0.000000      0.000000     0.000000    Fractional   0.00
      3 z          0.000000      0.000000     0.000000    Fractional   0.00
      4 x          0.500000      0.500000     0.000000    Fractional   0.00
      4 y          0.500000      0.500000     0.000000    Fractional   0.00
      4 z          0.500000      0.500000     0.000000    Fractional   0.00
      5 x          0.000000      0.000000     0.000000    Fractional   0.00
      5 y          0.000000      0.000000     0.000000    Fractional   0.00
      5 z          0.000000      0.000000     0.000000    Fractional   0.00
--------------------------------------------------------------------------------


  Born effective charge tensors : 

-------------------------------------------------------------------------------
  Atom             x           y             z
-------------------------------------------------------------------------------
    1 Cl    x      -0.9489      0.0000     -0.0000
            y       0.0000     -0.9489     -0.0000
            z      -0.0000     -0.0000     -0.9489
-------------------------------------------------------------------------------
    2 O     x      -2.4688      0.0000     -0.0000
            y       0.0000     -2.4688     -0.0000
            z      -0.0000     -0.0000     -2.4688
-------------------------------------------------------------------------------
    3 Li    x       0.7919     -0.0000      0.0000
            y      -0.0000      1.3129      0.0000
            z      -0.0000      0.0000      1.3129
-------------------------------------------------------------------------------




  Elastic Constant Matrix: (Units=GPa)

-------------------------------------------------------------------------------
  Indices      1         2         3         4         5         6    
-------------------------------------------------------------------------------
       1     94.3368   44.9178   44.9178   -0.0000   -0.0000    0.0000
       2     44.9178   94.3368   44.9178    0.0000   -0.0000    0.0000
       3     44.9178   44.9178   94.3368    0.0000    0.0000   -0.0000
       4     -0.0000    0.0000    0.0000   44.9178   -0.0000    0.0000
       5     -0.0000   -0.0000    0.0000   -0.0000   44.9178    0.0000
       6      0.0000    0.0000   -0.0000    0.0000    0.0000   44.9178
-------------------------------------------------------------------------------


  Elastic Compliance Matrix: (Units=1/GPa)

-------------------------------------------------------------------------------
  Indices      1         2         3         4         5         6    
-------------------------------------------------------------------------------
       1    0.015300 -0.004935 -0.004935  0.000000  0.000000 -0.000000
       2   -0.004935  0.015300 -0.004935  0.000000 -0.000000 -0.000000
       3   -0.004935 -0.004935  0.015300 -0.000000 -0.000000  0.000000
       4    0.000000  0.000000 -0.000000  0.022263  0.000000 -0.000000
       5    0.000000 -0.000000 -0.000000  0.000000  0.022263 -0.000000
       6   -0.000000 -0.000000  0.000000 -0.000000 -0.000000  0.022263
-------------------------------------------------------------------------------

  Mechanical properties :

-------------------------------------------------------------------------------
  Convention :                    Reuss         Voigt         Hill
-------------------------------------------------------------------------------
  Bulk  Modulus (GPa)     =      61.39080      61.39080      61.39080
  Shear Modulus (GPa)     =      33.84570      36.83448      35.34009
-------------------------------------------------------------------------------
  Velocity S-wave (km/s)  =       4.12274       4.30092       4.21277
  Velocity P-wave (km/s)  =       7.31386       7.44942       7.38195
-------------------------------------------------------------------------------
  Compressibility (1/GPa) =    0.01628909
-------------------------------------------------------------------------------
  Stress axis :                     x             y             z
-------------------------------------------------------------------------------
  Youngs Moduli (GPa)     =      65.35947      65.35947      65.35947
-------------------------------------------------------------------------------
  Poissons Ratio (x)      =                     0.32256       0.32256
  Poissons Ratio (y)      =       0.32256                     0.32256
  Poissons Ratio (z)      =       0.32256       0.32256
-------------------------------------------------------------------------------


  Piezoelectric Strain Matrix: (Units=C/m**2)

-------------------------------------------------------------------------------
  Indices      1         2         3         4         5         6    
-------------------------------------------------------------------------------
       x     0.00000  -0.00000  -0.00000   0.00000   0.00000  -0.00000
       y    -0.00000   0.00000   0.00000  -0.00000   0.00000  -0.00000
       z    -0.00000   0.00000   0.00000   0.00000  -0.00000   0.00000
-------------------------------------------------------------------------------


  Piezoelectric Stress Matrix: (Units=10**-11 C/N)

-------------------------------------------------------------------------------
  Indices      1         2         3         4         5         6    
-------------------------------------------------------------------------------
       x     0.00000  -0.00000  -0.00000   0.00000   0.00000  -0.00000
       y    -0.00000   0.00000   0.00000  -0.00000   0.00000  -0.00000
       z    -0.00000  -0.00000   0.00000   0.00000  -0.00000   0.00000
-------------------------------------------------------------------------------


  Static dielectric constant tensor : 

-------------------------------------------------------------------------------
              x         y         z
-------------------------------------------------------------------------------
       x    12.11703  -0.00000   0.00000
       y    -0.00000  12.11703   0.00000
       z     0.00000   0.00000  12.11703
--------------------------------------------------------------------------------

  High frequency dielectric constant tensor : 

-------------------------------------------------------------------------------
              x         y         z
-------------------------------------------------------------------------------
       x     1.74104  -0.00000   0.00000
       y    -0.00000   1.74104   0.00000
       z     0.00000   0.00000   1.74104
-------------------------------------------------------------------------------

  Static refractive indices : 

-------------------------------------------------------------------------------
    1 =    3.48095      2 =    3.48095      3 =    3.48095
-------------------------------------------------------------------------------

  High frequency refractive indices : 

-------------------------------------------------------------------------------
    1 =    1.31948      2 =    1.31948      3 =    1.31948
-------------------------------------------------------------------------------


  Time to end of optimisation =       0.0102 seconds

********************************************************************************
*  Defect calculation for configuration   1 :                                  *
********************************************************************************

  Total number of defects =      3

  Total charge on defect  =   2.00

  Defect centre is at   0.7838   0.7838   0.0000  Angs

  Region 1 radius =  20.0000      Number of ions =   3848

  Number of symmetry inequivalent region 1 ions  =   1117

  Region 2 radius =  24.0000      Number of ions =   2848

  Number of symmetry inequivalent region 2a ions =    783

  Region 2a mode = 4 : screened electrostatics due to region 1 
                       neglect correction to region 1 forces from 2a
                       region 2a displacements based on defects only

  Region 2a ions will only interact with defects in region 1

  Vacancies:

--------------------------------------------------------------------------------
    Specification type     Symbol/Number         x          y          z
--------------------------------------------------------------------------------
    Cartesian                                0.000000   0.000000   0.000000
    Cartesian                                3.918873   3.918873   0.000000
--------------------------------------------------------------------------------

  Interstitials:

--------------------------------------------------------------------------------
    Specification type     Symbol/Number         x          y          z
--------------------------------------------------------------------------------
    Atom/Cartesian          O                0.783775   0.783775   0.000000
--------------------------------------------------------------------------------


  Symmetry reduced region 1 (Relative to defect centre) :

--------------------------------------------------------------------------------
   No.   Atomic       x            y             z       Radius  Multiplicity   
         Label      (Angs)       (Angs)        (Angs)    (Angs)     
--------------------------------------------------------------------------------
     1  O     c      0.0000       0.0000       0.0000    0.0000     1    Defect
     2  Li    c      1.1766 *    -0.7838 *     0.0000    0.0000     2          
     3  Li    c     -0.7838 *    -0.7838      -1.9603 *  0.0000     2          
     4  Cl    c      1.1766 *     1.1766      -1.9603 *  0.0000     2          
     5  Li    c     -2.7441 *    -0.7838 *     0.0000    0.0000     2          
     6  O     c     -0.7838 *     3.1369 *     0.0000    0.0000     2          
     7  Li    c      1.1766 *     3.1369 *     0.0000    0.0000     2          
     8  Cl    c      1.1766 *    -2.7441 *    -1.9603 *  0.0000     4          
     9  Li    c     -0.7838 *     3.1369 *    -1.9603 *  0.0000     4          
    10  O     c     -0.7838 *    -0.7838       3.9207 *  0.0000     2          
    11  Li    c      1.1766 *    -0.7838 *     3.9207 *  0.0000     4          
    12  Li    c     -2.7441 *     3.1369 *     0.0000    0.0000     2          
    13  Cl    c     -2.7441 *    -2.7441      -1.9603 *  0.0000     2          
    14  O     c     -0.7838 *    -4.7045 *     0.0000    0.0000     2          
    15  Li    c      1.1766 *    -4.7045 *     0.0000    0.0000     2          
    16  Li    c     -2.7441 *    -0.7838 *     3.9207 *  0.0000     4          
    17  Li    c      3.1369 *     3.1369      -1.9603 *  0.0000     2          
    18  O     c     -0.7838 *     3.1369 *     3.9207 *  0.0000     4          
    19  Li    c     -0.7838 *    -4.7045 *    -1.9603 *  0.0000     4          
    20  Li    c      1.1766 *     3.1369 *     3.9207 *  0.0000     4          
    21  Li    c      5.0972 *    -0.7838 *     0.0000    0.0000     2          
    22  Li    c     -2.7441 *    -4.7045 *     0.0000    0.0000     2          
    23  Cl    c      1.1766 *     5.0972 *    -1.9603 *  0.0000     4          
    24  O     c      3.1369 *    -4.7045 *     0.0000    0.0000     2          
    25  Li    c     -2.7441 *     3.1369 *     3.9207 *  0.0000     4          
    26  O     c      3.1369 *     3.1369       3.9207 *  0.0000     2          
    27  Li    c     -0.7838 *    -0.7838       5.8810 *  0.0000     2          
    28  Li    c      3.1369 *    -4.7045 *    -1.9603 *  0.0000     4          
    29  Li    c      5.0972 *     3.1369 *     0.0000    0.0000     2          
    30  Cl    c      1.1766 *     1.1766       5.8810 *  0.0000     2          
    31  Cl    c      5.0972 *    -2.7441 *    -1.9603 *  0.0000     4          
    32  O     c     -0.7838 *    -4.7045 *     3.9207 *  0.0000     4          
    33  Li    c      1.1766 *    -4.7045 *     3.9207 *  0.0000     4          
    34  Li    c      5.0972 *    -0.7838 *     3.9207 *  0.0000     4          
    35  Cl    c      1.1766 *    -2.7441 *     5.8810 *  0.0000     4          
    36  O     c     -4.7045 *    -4.7045       0.0000    0.0000     1          
    37  Li    c     -2.7441 *    -4.7045 *     3.9207 *  0.0000     4          
    38  Li    c     -6.6648 *    -0.7838 *     0.0000    0.0000     2          
    39  Li    c     -0.7838 *     3.1369 *     5.8810 *  0.0000     4          
    40  O     c      3.1369 *    -4.7045 *     3.9207 *  0.0000     4          
    41  Li    c     -4.7045 *    -4.7045      -1.9603 *  0.0000     2          
    42  Li    c      5.0972 *    -4.7045 *     0.0000    0.0000     2          
    43  Cl    c      1.1766 *    -6.6648 *    -1.9603 *  0.0000     4          
    44  Cl    c     -2.7441 *    -2.7441       5.8810 *  0.0000     2          
    45  O     c     -0.7838 *     7.0576 *     0.0000    0.0000     2          
    46  Li    c      1.1766 *     7.0576 *     0.0000    0.0000     2          
    47  Li    c      5.0972 *     3.1369 *     3.9207 *  0.0000     4          
    48  Li    c     -6.6648 *     3.1369 *     0.0000    0.0000     2          
    49  Li    c     -0.7838 *     7.0576 *    -1.9603 *  0.0000     4          
    50  Li    c      3.1369 *     3.1369       5.8810 *  0.0000     2          
    51  Cl    c     -2.7441 *    -6.6648 *    -1.9603 *  0.0000     4          
    52  Cl    c      5.0972 *     5.0972      -1.9603 *  0.0000     2          
    53  Li    c     -0.7838 *    -4.7045 *     5.8810 *  0.0000     4          
    54  Li    c     -2.7441 *     7.0576 *     0.0000    0.0000     2          
    55  O     c     -4.7045 *    -4.7045       3.9207 *  0.0000     2          
    56  O     c      3.1369 *     7.0576 *     0.0000    0.0000     2          
    57  Li    c     -6.6648 *    -0.7838 *     3.9207 *  0.0000     4          
    58  Cl    c      1.1766 *     5.0972 *     5.8810 *  0.0000     4          
    59  O     c     -0.7838 *    -0.7838       7.8414 *  0.0000     2          
    60  Li    c      1.1766 *    -0.7838 *     7.8414 *  0.0000     4          
    61  Li    c      5.0972 *    -4.7045 *     3.9207 *  0.0000     4          
    62  Li    c      3.1369 *     7.0576 *    -1.9603 *  0.0000     4          
    63  O     c     -0.7838 *     7.0576 *     3.9207 *  0.0000     4          
    64  Li    c     -6.6648 *    -4.7045 *     0.0000    0.0000     2          
    65  Li    c      3.1369 *    -4.7045 *     5.8810 *  0.0000     4          
    66  Li    c      1.1766 *     7.0576 *     3.9207 *  0.0000     4          
    67  Cl    c      5.0972 *    -2.7441 *     5.8810 *  0.0000     4          
    68  Li    c     -2.7441 *    -0.7838 *     7.8414 *  0.0000     4          
    69  Li    c     -6.6648 *     3.1369 *     3.9207 *  0.0000     4          
    70  O     c      7.0576 *    -4.7045 *     0.0000    0.0000     2          
    71  O     c     -0.7838 *     3.1369 *     7.8414 *  0.0000     4          
    72  Li    c      1.1766 *     3.1369 *     7.8414 *  0.0000     4          
    73  Li    c     -2.7441 *     7.0576 *     3.9207 *  0.0000     4          
    74  Cl    c      5.0972 *    -6.6648 *    -1.9603 *  0.0000     4          
    75  O     c     -0.7838 *    -8.6251 *     0.0000    0.0000     2          
    76  O     c      3.1369 *     7.0576 *     3.9207 *  0.0000     4          
    77  Li    c      1.1766 *    -8.6251 *     0.0000    0.0000     2          
    78  Li    c      7.0576 *    -4.7045 *    -1.9603 *  0.0000     4          
    79  Li    c      5.0972 *     7.0576 *     0.0000    0.0000     2          
    80  Li    c     -0.7838 *    -8.6251 *    -1.9603 *  0.0000     4          
    81  Li    c     -4.7045 *    -4.7045       5.8810 *  0.0000     2          
    82  Li    c     -2.7441 *     3.1369 *     7.8414 *  0.0000     4          
    83  Cl    c      1.1766 *    -6.6648 *     5.8810 *  0.0000     4          
    84  O     c      3.1369 *     3.1369       7.8414 *  0.0000     2          
    85  Li    c     -2.7441 *    -8.6251 *     0.0000    0.0000     2          
    86  Li    c     -6.6648 *    -4.7045 *     3.9207 *  0.0000     4          
    87  Li    c      9.0179 *    -0.7838 *     0.0000    0.0000     2          
    88  O     c     -0.7838 *    -4.7045 *     7.8414 *  0.0000     4          
    89  O     c      3.1369 *    -8.6251 *     0.0000    0.0000     2          
    90  Li    c      1.1766 *    -4.7045 *     7.8414 *  0.0000     4          
    91  Li    c     -0.7838 *     7.0576 *     5.8810 *  0.0000     4          
    92  Cl    c     -2.7441 *    -6.6648 *     5.8810 *  0.0000     4          
    93  Cl    c      1.1766 *     9.0179 *    -1.9603 *  0.0000     4          
    94  Cl    c      5.0972 *     5.0972       5.8810 *  0.0000     2          
    95  O     c      7.0576 *    -4.7045 *     3.9207 *  0.0000     4          
    96  Li    c      3.1369 *    -8.6251 *    -1.9603 *  0.0000     4          
    97  Li    c      5.0972 *    -0.7838 *     7.8414 *  0.0000     4          
    98  O     c     -0.7838 *    -8.6251 *     3.9207 *  0.0000     4          
    99  Li    c     -2.7441 *    -4.7045 *     7.8414 *  0.0000     4          
   100  Li    c      1.1766 *    -8.6251 *     3.9207 *  0.0000     4          
   101  Li    c      9.0179 *     3.1369 *     0.0000    0.0000     2          
   102  Li    c      5.0972 *     7.0576 *     3.9207 *  0.0000     4          
   103  Cl    c     -6.6648 *    -6.6648      -1.9603 *  0.0000     2          
   104  Cl    c      9.0179 *    -2.7441 *    -1.9603 *  0.0000     4          
   105  O     c      3.1369 *    -4.7045 *     7.8414 *  0.0000     4          
   106  Li    c     -6.6648 *     7.0576 *     0.0000    0.0000     2          
   107  Li    c      3.1369 *     7.0576 *     5.8810 *  0.0000     4          
   108  O     c     -4.7045 *    -8.6251 *     0.0000    0.0000     2          
   109  Li    c     -2.7441 *    -8.6251 *     3.9207 *  0.0000     4          
   110  Li    c     -0.7838 *    -0.7838       9.8017 *  0.0000     2          
   111  Li    c      9.0179 *    -0.7838 *     3.9207 *  0.0000     4          
   112  Li    c      5.0972 *     3.1369 *     7.8414 *  0.0000     4          
   113  Cl    c      1.1766 *     1.1766       9.8017 *  0.0000     2          
   114  O     c      3.1369 *    -8.6251 *     3.9207 *  0.0000     4          
   115  O     c      7.0576 *     7.0576       0.0000    0.0000     1          
   116  Li    c     -4.7045 *    -8.6251 *    -1.9603 *  0.0000     4          
   117  Li    c      5.0972 *    -8.6251 *     0.0000    0.0000     2          
   118  Li    c      9.0179 *    -4.7045 *     0.0000    0.0000     2          
   119  Li    c      7.0576 *     7.0576      -1.9603 *  0.0000     2          
   120  Cl    c      1.1766 *    -2.7441 *     9.8017 *  0.0000     4          
   121  Cl    c      5.0972 *    -6.6648 *     5.8810 *  0.0000     4          
   122  O     c     -4.7045 *    -4.7045       7.8414 *  0.0000     2          
   123  Li    c     -6.6648 *    -0.7838 *     7.8414 *  0.0000     4          
   124  Li    c     -0.7838 *     3.1369 *     9.8017 *  0.0000     4          
   125  Li    c      7.0576 *    -4.7045 *     5.8810 *  0.0000     4          
   126  Li    c      9.0179 *     3.1369 *     3.9207 *  0.0000     4          
   127  Li    c     -0.7838 *    -8.6251 *     5.8810 *  0.0000     4          
   128  Li    c      5.0972 *    -4.7045 *     7.8414 *  0.0000     4          
   129  Li    c     -6.6648 *     7.0576 *     3.9207 *  0.0000     4          
   130  Cl    c     -2.7441 *    -2.7441       9.8017 *  0.0000     2          
   131  Cl    c      5.0972 *     9.0179 *    -1.9603 *  0.0000     4          
   132  O     c     -4.7045 *    -8.6251 *     3.9207 *  0.0000     4          
   133  O     c     -0.7838 *     7.0576 *     7.8414 *  0.0000     4          
   134  Li    c    -10.5855 *    -0.7838 *     0.0000    0.0000     2          
   135  Li    c      1.1766 *     7.0576 *     7.8414 *  0.0000     4          
   136  O     c      7.0576 *     7.0576       3.9207 *  0.0000     2          
   137  Li    c      5.0972 *    -8.6251 *     3.9207 *  0.0000     4          
   138  Li    c     -6.6648 *     3.1369 *     7.8414 *  0.0000     4          
   139  Li    c      3.1369 *     3.1369       9.8017 *  0.0000     2          
   140  Cl    c      1.1766 *   -10.5855 *    -1.9603 *  0.0000     4          
   141  Cl    c      1.1766 *     9.0179 *     5.8810 *  0.0000     4          
   142  Li    c     -6.6648 *    -8.6251 *     0.0000    0.0000     2          
   143  Li    c     -0.7838 *    -4.7045 *     9.8017 *  0.0000     4          
   144  Li    c      3.1369 *    -8.6251 *     5.8810 *  0.0000     4          
   145  Li    c      9.0179 *    -4.7045 *     3.9207 *  0.0000     4          
   146  Li    c     -2.7441 *     7.0576 *     7.8414 *  0.0000     4          
   147  O     c      3.1369 *     7.0576 *     7.8414 *  0.0000     4          
   148  O     c     -0.7838 *    10.9783 *     0.0000    0.0000     2          
   149  Li    c    -10.5855 *     3.1369 *     0.0000    0.0000     2          
   150  Li    c      1.1766 *    10.9783 *     0.0000    0.0000     2          
   151  Cl    c     -2.7441 *   -10.5855 *    -1.9603 *  0.0000     4          
   152  Cl    c     -6.6648 *    -6.6648       5.8810 *  0.0000     2          
   153  Cl    c      1.1766 *     5.0972 *     9.8017 *  0.0000     4          
   154  Cl    c      9.0179 *    -2.7441 *     5.8810 *  0.0000     4          
   155  O     c      7.0576 *    -8.6251 *     0.0000    0.0000     2          
   156  Li    c     -0.7838 *    10.9783 *    -1.9603 *  0.0000     4          
   157  Li    c     -6.6648 *    -4.7045 *     7.8414 *  0.0000     4          
   158  Li    c    -10.5855 *    -0.7838 *     3.9207 *  0.0000     4          
   159  Li    c      3.1369 *    -4.7045 *     9.8017 *  0.0000     4          
   160  Li    c      7.0576 *    -8.6251 *    -1.9603 *  0.0000     4          
   161  Li    c     -2.7441 *    10.9783 *     0.0000    0.0000     2          
   162  Cl    c      5.0972 *    -2.7441 *     9.8017 *  0.0000     4          
   163  Cl    c      9.0179 *    -6.6648 *    -1.9603 *  0.0000     4          
   164  O     c      3.1369 *    10.9783 *     0.0000    0.0000     2          
   165  Li    c     -4.7045 *    -8.6251 *     5.8810 *  0.0000     4          
   166  Li    c      9.0179 *     7.0576 *     0.0000    0.0000     2          
   167  O     c      7.0576 *    -4.7045 *     7.8414 *  0.0000     4          
   168  Li    c     -6.6648 *    -8.6251 *     3.9207 *  0.0000     4          
   169  Li    c    -10.5855 *    -4.7045 *     0.0000    0.0000     2          
   170  Li    c      7.0576 *     7.0576       5.8810 *  0.0000     2          
   171  Li    c      3.1369 *    10.9783 *    -1.9603 *  0.0000     4          
   172  O     c     -0.7838 *    -8.6251 *     7.8414 *  0.0000     4          
   173  O     c     -0.7838 *    10.9783 *     3.9207 *  0.0000     4          
   174  Li    c    -10.5855 *     3.1369 *     3.9207 *  0.0000     4          
   175  Li    c      1.1766 *    -8.6251 *     7.8414 *  0.0000     4          
   176  Li    c      5.0972 *     7.0576 *     7.8414 *  0.0000     4          
   177  Li    c      1.1766 *    10.9783 *     3.9207 *  0.0000     4          
   178  O     c     -0.7838 *    -0.7838      11.7620 *  0.0000     2          
   179  O     c      7.0576 *    -8.6251 *     3.9207 *  0.0000     4          
   180  Li    c     -4.7045 *    -4.7045       9.8017 *  0.0000     2          
   181  Li    c      1.1766 *    -0.7838 *    11.7620 *  0.0000     4          
   182  Cl    c      1.1766 *    -6.6648 *     9.8017 *  0.0000     4          
   183  Cl    c      5.0972 *   -10.5855 *    -1.9603 *  0.0000     4          
   184  Cl    c      5.0972 *     9.0179 *     5.8810 *  0.0000     4          
   185  O     c     10.9783 *    -4.7045 *     0.0000    0.0000     2          
   186  Li    c     -2.7441 *    -8.6251 *     7.8414 *  0.0000     4          
   187  Li    c      9.0179 *    -0.7838 *     7.8414 *  0.0000     4          
   188  Li    c     -2.7441 *    10.9783 *     3.9207 *  0.0000     4          
   189  O     c      3.1369 *    -8.6251 *     7.8414 *  0.0000     4          
   190  O     c      3.1369 *    10.9783 *     3.9207 *  0.0000     4          
   191  Li    c     -2.7441 *    -0.7838 *    11.7620 *  0.0000     4          
   192  Li    c     -0.7838 *     7.0576 *     9.8017 *  0.0000     4          
   193  Li    c     10.9783 *    -4.7045 *    -1.9603 *  0.0000     4          
   194  Li    c      9.0179 *     7.0576 *     3.9207 *  0.0000     4          
   195  Li    c      5.0972 *    10.9783 *     0.0000    0.0000     2          
   196  Cl    c     -2.7441 *    -6.6648 *     9.8017 *  0.0000     4          
   197  Cl    c      1.1766 *   -10.5855 *     5.8810 *  0.0000     4          
   198  Cl    c      5.0972 *     5.0972       9.8017 *  0.0000     2          
   199  O     c     -8.6251 *    -8.6251       0.0000    0.0000     1          
   200  O     c     -0.7838 *     3.1369 *    11.7620 *  0.0000     4          
   201  Li    c    -10.5855 *    -4.7045 *     3.9207 *  0.0000     4          
   202  Li    c      1.1766 *     3.1369 *    11.7620 *  0.0000     4          
   203  Li    c     -8.6251 *    -8.6251      -1.9603 *  0.0000     2          
   204  Li    c      9.0179 *     3.1369 *     7.8414 *  0.0000     4          
   205  Cl    c     -2.7441 *   -10.5855 *     5.8810 *  0.0000     4          
   206  Li    c      9.0179 *    -8.6251 *     0.0000    0.0000     2          
   207  Li    c     -2.7441 *     3.1369 *    11.7620 *  0.0000     4          
   208  Li    c     -6.6648 *     7.0576 *     7.8414 *  0.0000     4          
   209  Li    c      3.1369 *     7.0576 *     9.8017 *  0.0000     4          
   210  Li    c     -0.7838 *    10.9783 *     5.8810 *  0.0000     4          
   211  O     c     -4.7045 *    -8.6251 *     7.8414 *  0.0000     4          
   212  O     c     -0.7838 *   -12.5458 *     0.0000    0.0000     2          
   213  O     c      3.1369 *     3.1369      11.7620 *  0.0000     2          
   214  O     c     10.9783 *    -4.7045 *     3.9207 *  0.0000     4          
   215  Li    c      1.1766 *   -12.5458 *     0.0000    0.0000     2          
   216  Li    c      7.0576 *    -8.6251 *     5.8810 *  0.0000     4          
   217  Cl    c     -6.6648 *   -10.5855 *    -1.9603 *  0.0000     4          
   218  Cl    c      9.0179 *    -6.6648 *     5.8810 *  0.0000     4          
   219  O     c     -0.7838 *    -4.7045 *    11.7620 *  0.0000     4          
   220  O     c      7.0576 *     7.0576       7.8414 *  0.0000     2          
   221  Li    c     -0.7838 *   -12.5458 *    -1.9603 *  0.0000     4          
   222  Li    c      1.1766 *    -4.7045 *    11.7620 *  0.0000     4          
   223  Li    c      5.0972 *    -8.6251 *     7.8414 *  0.0000     4          
   224  Li    c    -10.5855 *     7.0576 *     0.0000    0.0000     2          
   225  Li    c      5.0972 *    10.9783 *     3.9207 *  0.0000     4          
   226  O     c     -8.6251 *    -8.6251       3.9207 *  0.0000     2          
   227  Li    c     -2.7441 *   -12.5458 *     0.0000    0.0000     2          
   228  Li    c      5.0972 *    -0.7838 *    11.7620 *  0.0000     4          
   229  Li    c      9.0179 *    -4.7045 *     7.8414 *  0.0000     4          
   230  Li    c     -6.6648 *    10.9783 *     0.0000    0.0000     2          
   231  Li    c      3.1369 *    10.9783 *     5.8810 *  0.0000     4          
   232  Cl    c      5.0972 *    -6.6648 *     9.8017 *  0.0000     4          
   233  Cl    c      9.0179 *     9.0179      -1.9603 *  0.0000     2          
   234  O     c      3.1369 *   -12.5458 *     0.0000    0.0000     2          
   235  Li    c     -2.7441 *    -4.7045 *    11.7620 *  0.0000     4          
   236  Li    c      7.0576 *    -4.7045 *     9.8017 *  0.0000     4          
   237  Li    c     12.9386 *    -0.7838 *     0.0000    0.0000     2          
   238  O     c      3.1369 *    -4.7045 *    11.7620 *  0.0000     4          
   239  O     c      7.0576 *    10.9783 *     0.0000    0.0000     2          
   240  Li    c     -0.7838 *    -8.6251 *     9.8017 *  0.0000     4          
   241  Li    c      3.1369 *   -12.5458 *    -1.9603 *  0.0000     4          
   242  Li    c      9.0179 *    -8.6251 *     3.9207 *  0.0000     4          
   243  Cl    c      5.0972 *   -10.5855 *     5.8810 *  0.0000     4          
   244  Cl    c      1.1766 *    12.9386 *    -1.9603 *  0.0000     4          
   245  O     c     -0.7838 *   -12.5458 *     3.9207 *  0.0000     4          
   246  Li    c    -10.5855 *    -0.7838 *     7.8414 *  0.0000     4          
   247  Li    c      1.1766 *   -12.5458 *     3.9207 *  0.0000     4          
   248  Li    c      5.0972 *     3.1369 *    11.7620 *  0.0000     4          
   249  Li    c      7.0576 *    10.9783 *    -1.9603 *  0.0000     4          
   250  Li    c    -10.5855 *     7.0576 *     3.9207 *  0.0000     4          
   251  Li    c     10.9783 *    -4.7045 *     5.8810 *  0.0000     4          
   252  Li    c     12.9386 *     3.1369 *     0.0000    0.0000     2          
   253  Cl    c      1.1766 *     9.0179 *     9.8017 *  0.0000     4          
   254  Cl    c     12.9386 *    -2.7441 *    -1.9603 *  0.0000     4          
   255  O     c     -4.7045 *   -12.5458 *     0.0000    0.0000     2          
   256  Li    c     -6.6648 *    -8.6251 *     7.8414 *  0.0000     4          
   257  Li    c     -2.7441 *   -12.5458 *     3.9207 *  0.0000     4          
   258  Li    c      3.1369 *    -8.6251 *     9.8017 *  0.0000     4          
   259  Li    c     -6.6648 *    10.9783 *     3.9207 *  0.0000     4          
   260  O     c     -4.7045 *    -4.7045      11.7620 *  0.0000     2          
   261  O     c      3.1369 *   -12.5458 *     3.9207 *  0.0000     4          
   262  O     c     -0.7838 *    10.9783 *     7.8414 *  0.0000     4          
   263  Li    c     -4.7045 *   -12.5458 *    -1.9603 *  0.0000     4          
   264  Li    c     -8.6251 *    -8.6251       5.8810 *  0.0000     2          
   265  Li    c     -6.6648 *    -0.7838 *    11.7620 *  0.0000     4          
   266  Li    c    -10.5855 *     3.1369 *     7.8414 *  0.0000     4          
   267  Li    c      5.0972 *   -12.5458 *     0.0000    0.0000     2          
   268  Li    c     12.9386 *    -0.7838 *     3.9207 *  0.0000     4          
   269  Li    c      1.1766 *    10.9783 *     7.8414 *  0.0000     4          
   270  Cl    c     -6.6648 *    -6.6648       9.8017 *  0.0000     2          
   271  Cl    c      9.0179 *    -2.7441 *     9.8017 *  0.0000     4          
   272  O     c      7.0576 *    -8.6251 *     7.8414 *  0.0000     4          
   273  O     c      7.0576 *    10.9783 *     3.9207 *  0.0000     4          
   274  Li    c    -10.5855 *    -8.6251 *     0.0000    0.0000     2          
   275  Li    c      5.0972 *    -4.7045 *    11.7620 *  0.0000     4          
   276  O     c     -0.7838 *     7.0576 *    11.7620 *  0.0000     4          
   277  Li    c     -0.7838 *    -0.7838      13.7224 *  0.0000     2          
   278  Li    c      1.1766 *     7.0576 *    11.7620 *  0.0000     4          
   279  Li    c     12.9386 *    -4.7045 *     0.0000    0.0000     2          
   280  Li    c     -2.7441 *    10.9783 *     7.8414 *  0.0000     4          
   281  Cl    c     -6.6648 *   -10.5855 *     5.8810 *  0.0000     4          
   282  Cl    c      1.1766 *     1.1766      13.7224 *  0.0000     2          
   283  O     c      3.1369 *    10.9783 *     7.8414 *  0.0000     4          
   284  Li    c     -4.7045 *    -8.6251 *     9.8017 *  0.0000     4          
   285  Li    c     -0.7838 *   -12.5458 *     5.8810 *  0.0000     4          
   286  Li    c     -6.6648 *     3.1369 *    11.7620 *  0.0000     4          
   287  Li    c      9.0179 *     7.0576 *     7.8414 *  0.0000     4          
   288  Li    c     12.9386 *     3.1369 *     3.9207 *  0.0000     4          
   289  O     c     -4.7045 *   -12.5458 *     3.9207 *  0.0000     4          
   290  O     c     10.9783 *    -8.6251 *     0.0000    0.0000     2          
   291  Li    c    -10.5855 *    -4.7045 *     7.8414 *  0.0000     4          
   292  Li    c     -2.7441 *     7.0576 *    11.7620 *  0.0000     4          
   293  Li    c      7.0576 *     7.0576       9.8017 *  0.0000     2          
   294  Cl    c      1.1766 *    -2.7441 *    13.7224 *  0.0000     4          
   295  Cl    c      9.0179 *   -10.5855 *    -1.9603 *  0.0000     4          
   296  Cl    c      5.0972 *    12.9386 *    -1.9603 *  0.0000     4          
   297  Cl    c      9.0179 *     9.0179       5.8810 *  0.0000     2          
   298  O     c      3.1369 *     7.0576 *    11.7620 *  0.0000     4          
   299  Li    c      5.0972 *   -12.5458 *     3.9207 *  0.0000     4          
   300  Li    c     -0.7838 *     3.1369 *    13.7224 *  0.0000     4          
   301  Li    c     10.9783 *    -8.6251 *    -1.9603 *  0.0000     4          
   302  Li    c    -10.5855 *    -8.6251 *     3.9207 *  0.0000     4          
   303  Li    c     -6.6648 *   -12.5458 *     0.0000    0.0000     2          
   304  Li    c      3.1369 *   -12.5458 *     5.8810 *  0.0000     4          
   305  Li    c      9.0179 *    10.9783 *     0.0000    0.0000     2          
   306  Cl    c     -2.7441 *    -2.7441      13.7224 *  0.0000     2          
   307  Cl    c      5.0972 *     9.0179 *     9.8017 *  0.0000     4          
   308  Cl    c      1.1766 *    12.9386 *     5.8810 *  0.0000     4          
   309  O     c     10.9783 *    -4.7045 *     7.8414 *  0.0000     4          
   310  Li    c     -6.6648 *    -4.7045 *    11.7620 *  0.0000     4          
   311  Li    c     12.9386 *    -4.7045 *     3.9207 *  0.0000     4          
   312  Li    c      7.0576 *    10.9783 *     5.8810 *  0.0000     4          
   313  O     c      7.0576 *   -12.5458 *     0.0000    0.0000     2          
   314  Li    c      3.1369 *     3.1369      13.7224 *  0.0000     2          
   315  Li    c      5.0972 *    10.9783 *     7.8414 *  0.0000     4          
   316  Cl    c      1.1766 *   -10.5855 *     9.8017 *  0.0000     4          
   317  Cl    c     12.9386 *    -2.7441 *     5.8810 *  0.0000     4          
   318  O     c     -8.6251 *    -8.6251       7.8414 *  0.0000     2          
   319  O     c      7.0576 *    -4.7045 *    11.7620 *  0.0000     4          
   320  O     c     10.9783 *    -8.6251 *     3.9207 *  0.0000     4          
   321  Li    c    -14.5061 *    -0.7838 *     0.0000    0.0000     2          
   322  Li    c     -0.7838 *    -4.7045 *    13.7224 *  0.0000     4          
   323  Li    c      7.0576 *   -12.5458 *    -1.9603 *  0.0000     4          
   324  O     c     -0.7838 *    -8.6251 *    11.7620 *  0.0000     4          
   325  Li    c     -4.7045 *   -12.5458 *     5.8810 *  0.0000     4          
   326  Li    c      1.1766 *    -8.6251 *    11.7620 *  0.0000     4          
   327  Li    c      5.0972 *     7.0576 *    11.7620 *  0.0000     4          
   328  Cl    c      1.1766 *   -14.5061 *    -1.9603 *  0.0000     4          
   329  Cl    c     -2.7441 *   -10.5855 *     9.8017 *  0.0000     4          
   330  Cl    c      1.1766 *     5.0972 *    13.7224 *  0.0000     4          
   331  Cl    c     12.9386 *    -6.6648 *    -1.9603 *  0.0000     4          
   332  Li    c     -6.6648 *   -12.5458 *     3.9207 *  0.0000     4          
   333  Li    c      9.0179 *    -8.6251 *     7.8414 *  0.0000     4          
   334  Li    c     -0.7838 *    10.9783 *     9.8017 *  0.0000     4          
   335  Li    c      9.0179 *    10.9783 *     3.9207 *  0.0000     4          
   336  Li    c     12.9386 *     7.0576 *     0.0000    0.0000     2          
   337  O     c     -0.7838 *   -12.5458 *     7.8414 *  0.0000     4          
   338  Li    c    -14.5061 *     3.1369 *     0.0000    0.0000     2          
   339  Li    c     -2.7441 *    -8.6251 *    11.7620 *  0.0000     4          
   340  Li    c      1.1766 *   -12.5458 *     7.8414 *  0.0000     4          
   341  Li    c      3.1369 *    -4.7045 *    13.7224 *  0.0000     4          
   342  Li    c      7.0576 *    -8.6251 *     9.8017 *  0.0000     4          
   343  Li    c      9.0179 *    -0.7838 *    11.7620 *  0.0000     4          
   344  Cl    c     -2.7441 *   -14.5061 *    -1.9603 *  0.0000     4          
   345  Cl    c      5.0972 *    -2.7441 *    13.7224 *  0.0000     4          
   346  Cl    c      9.0179 *    -6.6648 *     9.8017 *  0.0000     4          
   347  O     c      3.1369 *    -8.6251 *    11.7620 *  0.0000     4          
   348  O     c      7.0576 *   -12.5458 *     3.9207 *  0.0000     4          
   349  O     c     -0.7838 *    14.8989 *     0.0000    0.0000     2          
   350  Li    c    -10.5855 *     7.0576 *     7.8414 *  0.0000     4          
   351  Li    c      1.1766 *    14.8989 *     0.0000    0.0000     2          
   352  Li    c    -14.5061 *    -0.7838 *     3.9207 *  0.0000     4          
   353  Li    c     -2.7441 *   -12.5458 *     7.8414 *  0.0000     4          
   354  Li    c     -6.6648 *    10.9783 *     7.8414 *  0.0000     4          
   355  Li    c      3.1369 *    10.9783 *     9.8017 *  0.0000     4          
   356  Li    c     -0.7838 *    14.8989 *    -1.9603 *  0.0000     4          
   357  Cl    c    -10.5855 *   -10.5855      -1.9603 *  0.0000     2          
   358  Cl    c      9.0179 *   -10.5855 *     5.8810 *  0.0000     4          
   359  Cl    c      5.0972 *    12.9386 *     5.8810 *  0.0000     4          
   360  O     c      3.1369 *   -12.5458 *     7.8414 *  0.0000     4          
   361  Li    c     10.9783 *    -8.6251 *     5.8810 *  0.0000     4          
   362  Li    c      9.0179 *     3.1369 *    11.7620 *  0.0000     4          
   363  Li    c     12.9386 *    -0.7838 *     7.8414 *  0.0000     4          
   364  Li    c     -2.7441 *    14.8989 *     0.0000    0.0000     2          
   365  O     c     -8.6251 *   -12.5458 *     0.0000    0.0000     2          
   366  O     c      3.1369 *    14.8989 *     0.0000    0.0000     2          
   367  O     c      7.0576 *    10.9783 *     7.8414 *  0.0000     4          
   368  Li    c    -14.5061 *    -4.7045 *     0.0000    0.0000     2          
   369  Li    c     -4.7045 *    -4.7045      13.7224 *  0.0000     2          
   370  Li    c     -6.6648 *     7.0576 *    11.7620 *  0.0000     4          
   371  Li    c    -10.5855 *    10.9783 *     0.0000    0.0000     2          
   372  Li    c     12.9386 *     7.0576 *     3.9207 *  0.0000     4          
   373  Cl    c      1.1766 *    -6.6648 *    13.7224 *  0.0000     4          
   374  Cl    c      5.0972 *   -10.5855 *     9.8017 *  0.0000     4          
   375  O     c     -4.7045 *    -8.6251 *    11.7620 *  0.0000     4          
   376  Li    c     -8.6251 *   -12.5458 *    -1.9603 *  0.0000     4          
   377  Li    c    -14.5061 *     3.1369 *     3.9207 *  0.0000     4          
   378  Li    c      3.1369 *    14.8989 *    -1.9603 *  0.0000     4          
   379  O     c      7.0576 *     7.0576      11.7620 *  0.0000     2          
   380  O     c     -0.7838 *    14.8989 *     3.9207 *  0.0000     4          
   381  Li    c      5.0972 *    -8.6251 *    11.7620 *  0.0000     4          
   382  Li    c      9.0179 *   -12.5458 *     0.0000    0.0000     2          
   383  Li    c     -0.7838 *     7.0576 *    13.7224 *  0.0000     4          
   384  Li    c     10.9783 *    -4.7045 *     9.8017 *  0.0000     4          
   385  Li    c     12.9386 *     3.1369 *     7.8414 *  0.0000     4          
   386  Li    c      1.1766 *    14.8989 *     3.9207 *  0.0000     4          
   387  Cl    c     -2.7441 *    -6.6648 *    13.7224 *  0.0000     4          
   388  Cl    c      5.0972 *   -14.5061 *    -1.9603 *  0.0000     4          
   389  Cl    c      5.0972 *     5.0972      13.7224 *  0.0000     2          
   390  O     c     -4.7045 *   -12.5458 *     7.8414 *  0.0000     4          
   391  O     c     10.9783 *    10.9783       0.0000    0.0000     1          
   392  Li    c      7.0576 *   -12.5458 *     5.8810 *  0.0000     4          
   393  Li    c      9.0179 *    -4.7045 *    11.7620 *  0.0000     4          
   394  Li    c     12.9386 *    -8.6251 *     0.0000    0.0000     2          
   395  O     c     14.8989 *    -4.7045 *     0.0000    0.0000     2          
   396  Li    c     -8.6251 *    -8.6251       9.8017 *  0.0000     2          
   397  Li    c      5.0972 *   -12.5458 *     7.8414 *  0.0000     4          
   398  Li    c     -2.7441 *    14.8989 *     3.9207 *  0.0000     4          
   399  Li    c     10.9783 *    10.9783      -1.9603 *  0.0000     2          
   400  Cl    c      1.1766 *   -14.5061 *     5.8810 *  0.0000     4          
   401  Cl    c     12.9386 *    -6.6648 *     5.8810 *  0.0000     4          
   402  O     c     -8.6251 *   -12.5458 *     3.9207 *  0.0000     4          
   403  O     c     -0.7838 *    -0.7838      15.6827 *  0.0000     2          
   404  O     c      3.1369 *    14.8989 *     3.9207 *  0.0000     4          
   405  Li    c    -14.5061 *    -4.7045 *     3.9207 *  0.0000     4          
   406  Li    c    -10.5855 *    -8.6251 *     7.8414 *  0.0000     4          
   407  Li    c      1.1766 *    -0.7838 *    15.6827 *  0.0000     4          
   408  Li    c    -10.5855 *    10.9783 *     3.9207 *  0.0000     4          
   409  Li    c      3.1369 *     7.0576 *    13.7224 *  0.0000     4          
   410  Li    c     14.8989 *    -4.7045 *    -1.9603 *  0.0000     4          
   411  Li    c      5.0972 *    14.8989 *     0.0000    0.0000     2          
   412  Li    c    -10.5855 *    -0.7838 *    11.7620 *  0.0000     4          
   413  Li    c     12.9386 *    -4.7045 *     7.8414 *  0.0000     4          
   414  Cl    c     -6.6648 *   -10.5855 *     9.8017 *  0.0000     4          
   415  Cl    c     -2.7441 *   -14.5061 *     5.8810 *  0.0000     4          
   416  Cl    c      9.0179 *    12.9386 *    -1.9603 *  0.0000     4          
   417  Li    c     -0.7838 *   -12.5458 *     9.8017 *  0.0000     4          
   418  Li    c     -2.7441 *    -0.7838 *    15.6827 *  0.0000     4          
   419  Li    c      9.0179 *   -12.5458 *     3.9207 *  0.0000     4          
   420  O     c     -0.7838 *     3.1369 *    15.6827 *  0.0000     4          
   421  O     c     10.9783 *    -8.6251 *     7.8414 *  0.0000     4          
   422  O     c     10.9783 *    10.9783       3.9207 *  0.0000     2          
   423  Li    c     -6.6648 *    -8.6251 *    11.7620 *  0.0000     4          
   424  Li    c      1.1766 *     3.1369 *    15.6827 *  0.0000     4          
   425  Li    c     12.9386 *    -8.6251 *     3.9207 *  0.0000     4          
   426  Li    c     -0.7838 *    14.8989 *     5.8810 *  0.0000     4          
   427  Cl    c     -6.6648 *   -14.5061 *    -1.9603 *  0.0000     4          
   428  Cl    c    -10.5855 *   -10.5855       5.8810 *  0.0000     2          
   429  Cl    c      5.0972 *    -6.6648 *    13.7224 *  0.0000     4          
   430  Cl    c      9.0179 *     9.0179       9.8017 *  0.0000     2          
   431  O     c     -0.7838 *    10.9783 *    11.7620 *  0.0000     4          
   432  O     c     14.8989 *    -4.7045 *     3.9207 *  0.0000     4          
   433  Li    c    -10.5855 *     3.1369 *    11.7620 *  0.0000     4          
   434  Li    c    -14.5061 *     7.0576 *     0.0000    0.0000     2          
   435  Li    c      7.0576 *    -4.7045 *    13.7224 *  0.0000     4          
   436  Li    c      1.1766 *    10.9783 *    11.7620 *  0.0000     4          
   437  O     c      7.0576 *    -8.6251 *    11.7620 *  0.0000     4          
   438  Li    c     -6.6648 *   -12.5458 *     7.8414 *  0.0000     4          
   439  Li    c     -0.7838 *    -8.6251 *    13.7224 *  0.0000     4          
   440  Li    c      3.1369 *   -12.5458 *     9.8017 *  0.0000     4          
   441  Li    c     -2.7441 *     3.1369 *    15.6827 *  0.0000     4          
   442  Li    c      9.0179 *    10.9783 *     7.8414 *  0.0000     4          
   443  Li    c      5.0972 *    14.8989 *     3.9207 *  0.0000     4          
   444  Cl    c      1.1766 *    12.9386 *     9.8017 *  0.0000     4          
   445  O     c      3.1369 *     3.1369      15.6827 *  0.0000     2          
   446  Li    c     -8.6251 *   -12.5458 *     5.8810 *  0.0000     4          
   447  Li    c     -2.7441 *    10.9783 *    11.7620 *  0.0000     4          
   448  Li    c     -6.6648 *    14.8989 *     0.0000    0.0000     2          
   449  Li    c      7.0576 *    10.9783 *     9.8017 *  0.0000     4          
   450  Li    c      3.1369 *    14.8989 *     5.8810 *  0.0000     4          
   451  O     c     -0.7838 *    -4.7045 *    15.6827 *  0.0000     4          
   452  O     c      7.0576 *   -12.5458 *     7.8414 *  0.0000     4          
   453  O     c      3.1369 *    10.9783 *    11.7620 *  0.0000     4          
   454  Li    c    -10.5855 *   -12.5458 *     0.0000    0.0000     2          
   455  Li    c      1.1766 *    -4.7045 *    15.6827 *  0.0000     4          
   456  Li    c      9.0179 *     7.0576 *    11.7620 *  0.0000     4          
   457  Cl    c      5.0972 *   -14.5061 *     5.8810 *  0.0000     4          
   458  Cl    c      1.1766 *     9.0179 *    13.7224 *  0.0000     4          
   459  Cl    c     12.9386 *    -2.7441 *     9.8017 *  0.0000     4          
   460  O     c     -0.7838 *   -16.4665 *     0.0000    0.0000     2          
   461  O     c      7.0576 *    14.8989 *     0.0000    0.0000     2          
   462  Li    c    -10.5855 *    -4.7045 *    11.7620 *  0.0000     4          
   463  Li    c    -14.5061 *    -0.7838 *     7.8414 *  0.0000     4          
   464  Li    c      1.1766 *   -16.4665 *     0.0000    0.0000     2          
   465  Li    c      3.1369 *    -8.6251 *    13.7224 *  0.0000     4          
   466  Li    c      5.0972 *    -0.7838 *    15.6827 *  0.0000     4          
   467  Li    c     -0.7838 *   -16.4665 *    -1.9603 *  0.0000     4          
   468  Li    c     -4.7045 *   -12.5458 *     9.8017 *  0.0000     4          
   469  Li    c    -14.5061 *     7.0576 *     3.9207 *  0.0000     4          
   470  Li    c     -2.7441 *    -4.7045 *    15.6827 *  0.0000     4          
   471  Li    c      7.0576 *    14.8989 *    -1.9603 *  0.0000     4          
   472  Li    c     10.9783 *    10.9783       5.8810 *  0.0000     2          
   473  Cl    c     -6.6648 *    -6.6648      13.7224 *  0.0000     2          
   474  Cl    c      9.0179 *    -2.7441 *    13.7224 *  0.0000     4          
   475  O     c      3.1369 *    -4.7045 *    15.6827 *  0.0000     4          
   476  O     c     10.9783 *   -12.5458 *     0.0000    0.0000     2          
   477  Li    c     -2.7441 *   -16.4665 *     0.0000    0.0000     2          
   478  Li    c     14.8989 *    -4.7045 *     5.8810 *  0.0000     4          
   479  Li    c     12.9386 *     7.0576 *     7.8414 *  0.0000     4          
   480  O     c      3.1369 *   -16.4665 *     0.0000    0.0000     2          
   481  O     c     10.9783 *    -4.7045 *    11.7620 *  0.0000     4          
   482  Li    c    -14.5061 *     3.1369 *     7.8414 *  0.0000     4          
   483  Li    c     10.9783 *   -12.5458 *    -1.9603 *  0.0000     4          
   484  Li    c      5.0972 *     3.1369 *    15.6827 *  0.0000     4          
   485  Li    c     -6.6648 *    14.8989 *     3.9207 *  0.0000     4          
   486  Cl    c     12.9386 *   -10.5855 *    -1.9603 *  0.0000     4          
   487  Cl    c      9.0179 *    12.9386 *     5.8810 *  0.0000     4          
   488  O     c     -0.7838 *    14.8989 *     7.8414 *  0.0000     4          
   489  Li    c    -10.5855 *   -12.5458 *     3.9207 *  0.0000     4          
   490  Li    c    -14.5061 *    -8.6251 *     0.0000    0.0000     2          
   491  Li    c     -4.7045 *    -8.6251 *    13.7224 *  0.0000     4          
   492  Li    c      3.1369 *   -16.4665 *    -1.9603 *  0.0000     4          
   493  Li    c     16.8593 *    -0.7838 *     0.0000    0.0000     2          
   494  Li    c      1.1766 *    14.8989 *     7.8414 *  0.0000     4          
   495  Li    c      5.0972 *    10.9783 *    11.7620 *  0.0000     4          
   496  O     c     -0.7838 *   -16.4665 *     3.9207 *  0.0000     4          
   497  O     c     -8.6251 *    -8.6251      11.7620 *  0.0000     2          
   498  O     c      7.0576 *    14.8989 *     3.9207 *  0.0000     4          
   499  Li    c      1.1766 *   -16.4665 *     3.9207 *  0.0000     4          
   500  Li    c      7.0576 *     7.0576      13.7224 *  0.0000     2          
   501  Li    c     12.9386 *    10.9783 *     0.0000    0.0000     2          
   502  Cl    c     -6.6648 *   -14.5061 *     5.8810 *  0.0000     4          
   503  Cl    c      9.0179 *   -10.5855 *     9.8017 *  0.0000     4          
   504  Cl    c      1.1766 *    16.8593 *    -1.9603 *  0.0000     4          
   505  Cl    c      5.0972 *    12.9386 *     9.8017 *  0.0000     4          
   506  O     c     -4.7045 *    -4.7045      15.6827 *  0.0000     2          
   507  Li    c     -6.6648 *    -0.7838 *    15.6827 *  0.0000     4          
   508  Li    c     10.9783 *    -8.6251 *     9.8017 *  0.0000     4          
   509  Li    c     -2.7441 *    14.8989 *     7.8414 *  0.0000     4          
   510  O     c     -4.7045 *   -16.4665 *     0.0000    0.0000     2          
   511  O     c     -8.6251 *   -12.5458 *     7.8414 *  0.0000     4          
   512  O     c     10.9783 *   -12.5458 *     3.9207 *  0.0000     4          
   513  O     c      3.1369 *    14.8989 *     7.8414 *  0.0000     4          
   514  Li    c    -14.5061 *    -4.7045 *     7.8414 *  0.0000     4          
   515  Li    c     -2.7441 *   -16.4665 *     3.9207 *  0.0000     4          
   516  Li    c      5.0972 *    -4.7045 *    15.6827 *  0.0000     4          
   517  Li    c      9.0179 *    -8.6251 *    11.7620 *  0.0000     4          
   518  Li    c    -10.5855 *    10.9783 *     7.8414 *  0.0000     4          
   519  Li    c     16.8593 *     3.1369 *     0.0000    0.0000     2          
   520  Cl    c      9.0179 *   -14.5061 *    -1.9603 *  0.0000     4          
   521  Cl    c      5.0972 *     9.0179 *    13.7224 *  0.0000     4          
   522  Cl    c     16.8593 *    -2.7441 *    -1.9603 *  0.0000     4          
   523  O     c     -0.7838 *   -12.5458 *    11.7620 *  0.0000     4          
   524  O     c      3.1369 *   -16.4665 *     3.9207 *  0.0000     4          
   525  O     c     -0.7838 *     7.0576 *    15.6827 *  0.0000     4          
   526  O     c     14.8989 *    -8.6251 *     0.0000    0.0000     2          
   527  Li    c     -4.7045 *   -16.4665 *    -1.9603 *  0.0000     4          
   528  Li    c      1.1766 *   -12.5458 *    11.7620 *  0.0000     4          
   529  Li    c      5.0972 *   -16.4665 *     0.0000    0.0000     2          
   530  Li    c      1.1766 *     7.0576 *    15.6827 *  0.0000     4          
   531  Li    c    -14.5061 *    -8.6251 *     3.9207 *  0.0000     4          
   532  Li    c      9.0179 *   -12.5458 *     7.8414 *  0.0000     4          
   533  Li    c     -6.6648 *     3.1369 *    15.6827 *  0.0000     4          
   534  Li    c    -10.5855 *     7.0576 *    11.7620 *  0.0000     4          
   535  Li    c     14.8989 *    -8.6251 *    -1.9603 *  0.0000     4          
   536  Li    c     16.8593 *    -0.7838 *     3.9207 *  0.0000     4          
   537  Cl    c      1.1766 *   -10.5855 *    13.7224 *  0.0000     4          
   538  O     c     10.9783 *    10.9783       7.8414 *  0.0000     2          
   539  Li    c     -2.7441 *   -12.5458 *    11.7620 *  0.0000     4          
   540  Li    c      7.0576 *   -12.5458 *     9.8017 *  0.0000     4          
   541  Li    c     12.9386 *    -8.6251 *     7.8414 *  0.0000     4          
   542  Li    c     -2.7441 *     7.0576 *    15.6827 *  0.0000     4          
   543  Li    c     -6.6648 *    10.9783 *    11.7620 *  0.0000     4          
   544  Li    c      9.0179 *    14.8989 *     0.0000    0.0000     2          
   545  Li    c     12.9386 *    10.9783 *     3.9207 *  0.0000     4          
   546  O     c      3.1369 *   -12.5458 *    11.7620 *  0.0000     4          
   547  O     c      3.1369 *     7.0576 *    15.6827 *  0.0000     4          
   548  O     c     14.8989 *    -4.7045 *     7.8414 *  0.0000     4          
   549  Li    c     -0.7838 *   -16.4665 *     5.8810 *  0.0000     4          
   550  Li    c     12.9386 *    -0.7838 *    11.7620 *  0.0000     4          
   551  Li    c     16.8593 *    -4.7045 *     0.0000    0.0000     2          
   552  Li    c      7.0576 *    14.8989 *     5.8810 *  0.0000     4          
   553  Cl    c      1.1766 *   -14.5061 *     9.8017 *  0.0000     4          
   554  Cl    c     -2.7441 *   -10.5855 *    13.7224 *  0.0000     4          
   555  Cl    c     12.9386 *    -6.6648 *     9.8017 *  0.0000     4          
   556  O     c     -4.7045 *   -16.4665 *     3.9207 *  0.0000     4          
   557  O     c      7.0576 *    10.9783 *    11.7620 *  0.0000     4          
   558  Li    c     -0.7838 *    10.9783 *    13.7224 *  0.0000     4          
   559  Li    c     16.8593 *     3.1369 *     3.9207 *  0.0000     4          
   560  Li    c      5.0972 *    14.8989 *     7.8414 *  0.0000     4          
   561  O     c     14.8989 *    -8.6251 *     3.9207 *  0.0000     4          
   562  Li    c      5.0972 *   -16.4665 *     3.9207 *  0.0000     4          
   563  Li    c     -6.6648 *    -4.7045 *    15.6827 *  0.0000     4          
   564  Li    c     -0.7838 *    -0.7838      17.6430 *  0.0000     2          
   565  Li    c      7.0576 *    -8.6251 *    13.7224 *  0.0000     4          
   566  Li    c     10.9783 *   -12.5458 *     5.8810 *  0.0000     4          
   567  Cl    c     -2.7441 *   -14.5061 *     9.8017 *  0.0000     4          
   568  Cl    c      1.1766 *     1.1766      17.6430 *  0.0000     2          
   569  Cl    c      9.0179 *    -6.6648 *    13.7224 *  0.0000     4          
   570  Cl    c     12.9386 *   -10.5855 *     5.8810 *  0.0000     4          
   571  Cl    c      5.0972 *    16.8593 *    -1.9603 *  0.0000     4          
   572  O     c    -12.5458 *   -12.5458       0.0000    0.0000     1          
   573  Li    c     -6.6648 *   -16.4665 *     0.0000    0.0000     2          
   574  Li    c      3.1369 *   -16.4665 *     5.8810 *  0.0000     4          
   575  Li    c     12.9386 *     3.1369 *    11.7620 *  0.0000     4          
   576  O     c     -4.7045 *   -12.5458 *    11.7620 *  0.0000     4          
   577  O     c      7.0576 *    -4.7045 *    15.6827 *  0.0000     4          
   578  Li    c    -12.5458 *   -12.5458      -1.9603 *  0.0000     2          
   579  Li    c      3.1369 *    10.9783 *    13.7224 *  0.0000     4          
   580  Li    c     -0.7838 *    14.8989 *     9.8017 *  0.0000     4          
   581  Li    c      9.0179 *    14.8989 *     3.9207 *  0.0000     4          
   582  Cl    c    -10.5855 *   -10.5855       9.8017 *  0.0000     2          
   583  Cl    c      1.1766 *    -2.7441 *    17.6430 *  0.0000     4          
   584  Cl    c      1.1766 *    16.8593 *     5.8810 *  0.0000     4          
   585  O     c     -0.7838 *    -8.6251 *    15.6827 *  0.0000     4          
   586  O     c      7.0576 *   -16.4665 *     0.0000    0.0000     2          
   587  Li    c      1.1766 *    -8.6251 *    15.6827 *  0.0000     4          
   588  Li    c      5.0972 *   -12.5458 *    11.7620 *  0.0000     4          
   589  Li    c    -14.5061 *     7.0576 *     7.8414 *  0.0000     4          
   590  Li    c     -0.7838 *     3.1369 *    17.6430 *  0.0000     4          
   591  Li    c     16.8593 *    -4.7045 *     3.9207 *  0.0000     4          
   592  Li    c      5.0972 *     7.0576 *    15.6827 *  0.0000     4          
   593  Li    c    -10.5855 *    -8.6251 *    11.7620 *  0.0000     4          
   594  Li    c      7.0576 *   -16.4665 *    -1.9603 *  0.0000     4          
   595  Li    c     12.9386 *   -12.5458 *     0.0000    0.0000     2          
   596  Cl    c    -10.5855 *   -14.5061 *    -1.9603 *  0.0000     4          
   597  Cl    c      9.0179 *   -14.5061 *     5.8810 *  0.0000     4          
   598  Cl    c      5.0972 *   -10.5855 *    13.7224 *  0.0000     4          
   599  Cl    c     -2.7441 *    -2.7441      17.6430 *  0.0000     2          
   600  Cl    c     16.8593 *    -2.7441 *     5.8810 *  0.0000     4          
   601  Li    c     -4.7045 *   -16.4665 *     5.8810 *  0.0000     4          
   602  Li    c     -8.6251 *   -12.5458 *     9.8017 *  0.0000     4          
   603  Li    c     -2.7441 *    -8.6251 *    15.6827 *  0.0000     4          
   604  Li    c      9.0179 *    -0.7838 *    15.6827 *  0.0000     4          
   605  Li    c     12.9386 *    -4.7045 *    11.7620 *  0.0000     4          
   606  Li    c     -6.6648 *    14.8989 *     7.8414 *  0.0000     4          
   607  Li    c      3.1369 *    14.8989 *     9.8017 *  0.0000     4          
   608  O     c    -12.5458 *   -12.5458       3.9207 *  0.0000     2          
   609  O     c      3.1369 *    -8.6251 *    15.6827 *  0.0000     4          
   610  Li    c     -6.6648 *   -16.4665 *     3.9207 *  0.0000     4          
   611  Li    c    -10.5855 *   -12.5458 *     7.8414 *  0.0000     4          
   612  Li    c    -14.5061 *    10.9783 *     0.0000    0.0000     2          
   613  Li    c      3.1369 *     3.1369      17.6430 *  0.0000     2          
   614  Li    c     10.9783 *    -4.7045 *    13.7224 *  0.0000     4          
   615  Li    c     14.8989 *    -8.6251 *     5.8810 *  0.0000     4          
   616  Cl    c      5.0972 *   -14.5061 *     9.8017 *  0.0000     4          
   617  Cl    c     16.8593 *    -6.6648 *    -1.9603 *  0.0000     4          
   618  O     c     -0.7838 *   -16.4665 *     7.8414 *  0.0000     4          
   619  O     c     10.9783 *    -8.6251 *    11.7620 *  0.0000     4          
   620  O     c      7.0576 *    14.8989 *     7.8414 *  0.0000     4          
   621  Li    c      1.1766 *   -16.4665 *     7.8414 *  0.0000     4          
   622  Li    c     -0.7838 *    -4.7045 *    17.6430 *  0.0000     4          
   623  Li    c    -10.5855 *    14.8989 *     0.0000    0.0000     2          
   624  Li    c     16.8593 *     7.0576 *     0.0000    0.0000     2          
   625  O     c      7.0576 *   -16.4665 *     3.9207 *  0.0000     4          
   626  Li    c     -8.6251 *    -8.6251      13.7224 *  0.0000     2          
   627  Li    c      9.0179 *     3.1369 *    15.6827 *  0.0000     4          
   628  Li    c     10.9783 *    10.9783       9.8017 *  0.0000     2          
   629  Cl    c      1.1766 *     5.0972 *    17.6430 *  0.0000     4          
   630  Cl    c     12.9386 *    12.9386      -1.9603 *  0.0000     2          
   631  O     c     10.9783 *   -12.5458 *     7.8414 *  0.0000     4          
   632  Li    c    -18.4268 *    -0.7838 *     0.0000    0.0000     2          
   633  Li    c     -2.7441 *   -16.4665 *     7.8414 *  0.0000     4          
   634  Li    c     -6.6648 *   -12.5458 *    11.7620 *  0.0000     4          
   635  Li    c     12.9386 *   -12.5458 *     3.9207 *  0.0000     4          
   636  Li    c     -6.6648 *     7.0576 *    15.6827 *  0.0000     4          
   637  Li    c     14.8989 *    -4.7045 *     9.8017 *  0.0000     4          
   638  Li    c      9.0179 *    10.9783 *    11.7620 *  0.0000     4          
   639  O     c      3.1369 *   -16.4665 *     7.8414 *  0.0000     4          
   640  O     c     -4.7045 *    -8.6251 *    15.6827 *  0.0000     4          
   641  O     c     10.9783 *    14.8989 *     0.0000    0.0000     2          
   642  Li    c      3.1369 *    -4.7045 *    17.6430 *  0.0000     4          
   643  Cl    c      1.1766 *   -18.4268 *    -1.9603 *  0.0000     4          
   644  Cl    c     -6.6648 *   -10.5855 *    13.7224 *  0.0000     4          
   645  Cl    c      5.0972 *    -2.7441 *    17.6430 *  0.0000     4          
   646  Cl    c      5.0972 *    16.8593 *     5.8810 *  0.0000     4          
   647  Cl    c      9.0179 *    12.9386 *     9.8017 *  0.0000     4          
   648  O     c     -8.6251 *   -16.4665 *     0.0000    0.0000     2          
   649  O     c      7.0576 *   -12.5458 *    11.7620 *  0.0000     4          
   650  O     c      7.0576 *     7.0576      15.6827 *  0.0000     2          
   651  Li    c    -14.5061 *    -8.6251 *     7.8414 *  0.0000     4          
   652  Li    c     -0.7838 *   -12.5458 *    13.7224 *  0.0000     4          
   653  Li    c      5.0972 *    -8.6251 *    15.6827 *  0.0000     4          
   654  Li    c    -14.5061 *    10.9783 *     3.9207 *  0.0000     4          
   655  Li    c     16.8593 *    -0.7838 *     7.8414 *  0.0000     4          
   656  Li    c     10.9783 *    14.8989 *    -1.9603 *  0.0000     4          
   657  Li    c     -8.6251 *   -16.4665 *    -1.9603 *  0.0000     4          
   658  Li    c    -12.5458 *   -12.5458       5.8810 *  0.0000     2          
   659  Li    c    -18.4268 *     3.1369 *     0.0000    0.0000     2          
   660  Li    c    -14.5061 *    -0.7838 *    11.7620 *  0.0000     4          
   661  Li    c      9.0179 *    -4.7045 *    15.6827 *  0.0000     4          
   662  Li    c    -10.5855 *    14.8989 *     3.9207 *  0.0000     4          
   663  Li    c     16.8593 *     7.0576 *     3.9207 *  0.0000     4          
   664  Li    c     12.9386 *    10.9783 *     7.8414 *  0.0000     4          
   665  Cl    c     -2.7441 *   -18.4268 *    -1.9603 *  0.0000     4          
   666  Cl    c     -6.6648 *   -14.5061 *     9.8017 *  0.0000     4          
   667  Cl    c      9.0179 *     9.0179      13.7224 *  0.0000     2          
   668  Li    c      9.0179 *   -16.4665 *     0.0000    0.0000     2          
   669  O     c     -4.7045 *   -16.4665 *     7.8414 *  0.0000     4          
   670  O     c     -0.7838 *    18.8196 *     0.0000    0.0000     2          
   671  Li    c    -18.4268 *    -0.7838 *     3.9207 *  0.0000     4          
   672  Li    c      3.1369 *   -12.5458 *    13.7224 *  0.0000     4          
   673  Li    c      7.0576 *   -16.4665 *     5.8810 *  0.0000     4          
   674  Li    c     -4.7045 *    -4.7045      17.6430 *  0.0000     2          
   675  Li    c     16.8593 *     3.1369 *     7.8414 *  0.0000     4          
   676  Li    c     12.9386 *     7.0576 *    11.7620 *  0.0000     4          
   677  Li    c      1.1766 *    18.8196 *     0.0000    0.0000     2          
   678  Cl    c    -10.5855 *   -14.5061 *     5.8810 *  0.0000     4          
   679  Cl    c      1.1766 *    -6.6648 *    17.6430 *  0.0000     4          
   680  Cl    c      1.1766 *    12.9386 *    13.7224 *  0.0000     4          
   681  O     c     14.8989 *    -8.6251 *     7.8414 *  0.0000     4          
   682  O     c     10.9783 *    14.8989 *     3.9207 *  0.0000     4          
   683  Li    c      5.0972 *   -16.4665 *     7.8414 *  0.0000     4          
   684  Li    c    -10.5855 *    -0.7838 *    15.6827 *  0.0000     4          
   685  Li    c    -14.5061 *     3.1369 *    11.7620 *  0.0000     4          
   686  Li    c     16.8593 *    -8.6251 *     0.0000    0.0000     2          
   687  Li    c      7.0576 *    10.9783 *    13.7224 *  0.0000     4          
   688  Li    c     -0.7838 *    18.8196 *    -1.9603 *  0.0000     4          
   689  O     c     -8.6251 *   -16.4665 *     3.9207 *  0.0000     4          
   690  O     c     -0.7838 *    14.8989 *    11.7620 *  0.0000     4          
   691  Li    c    -18.4268 *    -4.7045 *     0.0000    0.0000     2          
   692  Li    c     -0.7838 *     7.0576 *    17.6430 *  0.0000     4          
   693  Li    c      1.1766 *    14.8989 *    11.7620 *  0.0000     4          
   694  Li    c     -2.7441 *    18.8196 *     0.0000    0.0000     2          
   695  Cl    c     -2.7441 *    -6.6648 *    17.6430 *  0.0000     4          
   696  Cl    c     12.9386 *    -2.7441 *    13.7224 *  0.0000     4          
   697  Cl    c     16.8593 *    -6.6648 *     5.8810 *  0.0000     4          
   698  Cl    c      5.0972 *     5.0972      17.6430 *  0.0000     2          
   699  O     c      3.1369 *    18.8196 *     0.0000    0.0000     2          
[...]
   1037 y         -7.841351     -7.840232     0.001119    Cartesian   -0.01
   1037 z         15.682702     15.680566    -0.002136    Cartesian   -0.01
   1038 x          7.841351      7.844077     0.002726    Cartesian    0.03
   1038 y        -15.682702    -15.682508     0.000194    Cartesian   -0.00
   1038 z          0.000000      0.000000     0.000000    Cartesian    0.00
   1039 x         -9.801689     -9.796045     0.005644    Cartesian   -0.06
   1039 y        -13.722364    -13.713731     0.008633    Cartesian   -0.06
   1039 z         -1.960338     -1.959228     0.001109    Cartesian   -0.06
   1040 x          9.801689      9.801790     0.000102    Cartesian    0.00
   1040 y        -13.722364    -13.717307     0.005057    Cartesian   -0.04
   1040 z          5.881013      5.879925    -0.001088    Cartesian   -0.02
   1041 x          5.881013      5.878724    -0.002289    Cartesian   -0.04
   1041 y         -9.801689     -9.796377     0.005311    Cartesian   -0.05
   1041 z         13.722364     13.717359    -0.005005    Cartesian   -0.04
   1042 x         -1.960338     -1.958494     0.001843    Cartesian   -0.09
   1042 y         -1.960338     -1.958494     0.001843    Cartesian   -0.09
   1042 z         17.643040     17.636605    -0.006435    Cartesian   -0.04
   1043 x         17.643040     17.640992    -0.002048    Cartesian   -0.01
   1043 y         -1.960338     -1.957770     0.002567    Cartesian   -0.13
   1043 z          5.881013      5.881310     0.000296    Cartesian    0.01
   1044 x        -11.762026    -11.758254     0.003773    Cartesian   -0.03
   1044 y        -11.762026    -11.758254     0.003773    Cartesian   -0.03
   1044 z          3.920675      3.919421    -0.001254    Cartesian   -0.03
   1045 x          3.920675      3.919676    -0.001000    Cartesian   -0.03
   1045 y         -7.841351     -7.841330     0.000021    Cartesian   -0.00
   1045 z         15.682702     15.681853    -0.000849    Cartesian   -0.01
   1046 x          5.881013      5.879517    -0.001496    Cartesian   -0.03
   1046 y        -13.722364    -13.715969     0.006395    Cartesian   -0.05
   1046 z          9.801689      9.800262    -0.001427    Cartesian   -0.01
   1047 x         17.643040     17.640712    -0.002327    Cartesian   -0.01
   1047 y         -5.881013     -5.879314     0.001699    Cartesian   -0.03
   1047 z         -1.960338     -1.960293     0.000045    Cartesian   -0.00
   1048 x          0.000000      0.000603     0.000603    Cartesian    0.00
   1048 y        -15.682702    -15.679831     0.002871    Cartesian   -0.02
   1048 z          7.841351      7.841826     0.000475    Cartesian    0.01
   1049 x         11.762026     11.763730     0.001704    Cartesian    0.01
   1049 y         -7.841351     -7.841621    -0.000270    Cartesian    0.00
   1049 z         11.762026     11.763551     0.001525    Cartesian    0.01
   1050 x          7.841351      7.845339     0.003988    Cartesian    0.05
   1050 y         15.682702     15.689228     0.006526    Cartesian    0.04
   1050 z          7.841351      7.845484     0.004133    Cartesian    0.05
   1051 x          7.841351      7.842232     0.000881    Cartesian    0.01
   1051 y        -15.682702    -15.681764     0.000938    Cartesian   -0.01
   1051 z          3.920675      3.921100     0.000425    Cartesian    0.01
   1052 x          1.960338      1.962299     0.001962    Cartesian    0.10
   1052 y          5.881013      5.882685     0.001672    Cartesian    0.03
   1052 z         17.643040     17.636260    -0.006779    Cartesian   -0.04
   1053 x         13.722364     13.722108    -0.000256    Cartesian   -0.00
   1053 y         13.722364     13.722108    -0.000256    Cartesian   -0.00
   1053 z         -1.960338     -1.962240    -0.001902    Cartesian    0.10
   1054 x         11.762026     11.764262     0.002235    Cartesian    0.02
   1054 y        -11.762026    -11.763465    -0.001438    Cartesian    0.01
   1054 z          7.841351      7.842749     0.001398    Cartesian    0.02
   1055 x          3.920675      3.920859     0.000184    Cartesian    0.00
   1055 y        -15.682702    -15.680727     0.001975    Cartesian   -0.01
   1055 z          7.841351      7.841718     0.000367    Cartesian    0.00
   1056 x         -3.920675     -3.918386     0.002289    Cartesian   -0.06
   1056 y         -7.841351     -7.838371     0.002980    Cartesian   -0.04
   1056 z         15.682702     15.678815    -0.003887    Cartesian   -0.02
   1057 x         11.762026     11.766802     0.004775    Cartesian    0.04
   1057 y         15.682702     15.686777     0.004075    Cartesian    0.03
   1057 z          0.000000      0.000000     0.000000    Cartesian    0.00
   1058 x          1.960338      1.961084     0.000746    Cartesian    0.04
   1058 y        -17.643040    -17.635112     0.007928    Cartesian   -0.04
   1058 z         -1.960338     -1.959529     0.000809    Cartesian   -0.04
   1059 x         -5.881013     -5.874521     0.006492    Cartesian   -0.11
   1059 y         -9.801689     -9.794263     0.007426    Cartesian   -0.08
   1059 z         13.722364     13.713629    -0.008735    Cartesian   -0.06
   1060 x          5.881013      5.880787    -0.000226    Cartesian   -0.00
   1060 y         -1.960338     -1.958210     0.002128    Cartesian   -0.11
   1060 z         17.643040     17.636327    -0.006713    Cartesian   -0.04
   1061 x          5.881013      5.883586     0.002573    Cartesian    0.04
   1061 y         17.643040     17.640642    -0.002398    Cartesian   -0.01
   1061 z          5.881013      5.881179     0.000166    Cartesian    0.00
   1062 x          9.801689      9.803626     0.001937    Cartesian    0.02
   1062 y         13.722364     13.722640     0.000276    Cartesian    0.00
   1062 z          9.801689      9.799641    -0.002048    Cartesian   -0.02
   1063 x         -7.841351     -7.840638     0.000713    Cartesian   -0.01
   1063 y        -15.682702    -15.678853     0.003849    Cartesian   -0.02
   1063 z          0.000000      0.000000     0.000000    Cartesian    0.00
   1064 x          7.841351      7.840760    -0.000591    Cartesian   -0.01
   1064 y        -11.762026    -11.762464    -0.000437    Cartesian    0.00
   1064 z         11.762026     11.763579     0.001552    Cartesian    0.01
   1065 x          7.841351      7.843290     0.001939    Cartesian    0.02
   1065 y          7.841351      7.843290     0.001939    Cartesian    0.02
   1065 z         15.682702     15.684777     0.002075    Cartesian    0.01
   1066 x         -1.960338     -1.958111     0.002227    Cartesian   -0.11
   1066 y        -17.643040    -17.634487     0.008553    Cartesian   -0.05
   1066 z         -1.960338     -1.959553     0.000785    Cartesian   -0.04
   1067 x         -5.881013     -5.876743     0.004270    Cartesian   -0.07
   1067 y        -13.722364    -13.713819     0.008545    Cartesian   -0.06
   1067 z          9.801689      9.796398    -0.005291    Cartesian   -0.05
   1068 x          9.801689      9.802902     0.001213    Cartesian    0.01
   1068 y          9.801689      9.802902     0.001213    Cartesian    0.01
   1068 z         13.722364     13.720199    -0.002166    Cartesian   -0.02
   1069 x         -3.920675     -3.919895     0.000781    Cartesian   -0.02
   1069 y        -15.682702    -15.679975     0.002727    Cartesian   -0.02
   1069 z          7.841351      7.840706    -0.000645    Cartesian   -0.01
   1070 x          0.000000      0.000539     0.000539    Cartesian    0.00
   1070 y         19.603377     19.604488     0.001111    Cartesian    0.01
   1070 z          0.000000      0.000000     0.000000    Cartesian    0.00
   1071 x         -9.801689     -9.794682     0.007007    Cartesian   -0.07
   1071 y        -13.722364    -13.713698     0.008666    Cartesian   -0.06
   1071 z          5.881013      5.878027    -0.002986    Cartesian   -0.05
   1072 x          1.960338      1.960689     0.000351    Cartesian    0.02
   1072 y         -5.881013     -5.876647     0.004367    Cartesian   -0.07
   1072 z         17.643040     17.634783    -0.008257    Cartesian   -0.05
   1073 x          1.960338      1.961769     0.001432    Cartesian    0.07
   1073 y         13.722364     13.721105    -0.001260    Cartesian   -0.01
   1073 z         13.722364     13.718206    -0.004158    Cartesian   -0.03
   1074 x         15.682702     15.684101     0.001399    Cartesian    0.01
   1074 y         -7.841351     -7.841929    -0.000578    Cartesian    0.01
   1074 z          7.841351      7.842341     0.000990    Cartesian    0.01
   1075 x         11.762026     11.762742     0.000716    Cartesian    0.01
   1075 y         15.682702     15.683792     0.001090    Cartesian    0.01
   1075 z          3.920675      3.921555     0.000880    Cartesian    0.02
   1076 x         -7.841351     -7.840064     0.001287    Cartesian   -0.02
   1076 y        -15.682702    -15.679570     0.003132    Cartesian   -0.02
   1076 z          3.920675      3.920253    -0.000423    Cartesian   -0.01
   1077 x          0.000000      0.000710     0.000710    Cartesian    0.00
   1077 y         15.682702     15.682202    -0.000500    Cartesian   -0.00
   1077 z         11.762026     11.761350    -0.000677    Cartesian   -0.01
   1078 x         -1.960338     -1.957880     0.002458    Cartesian   -0.13
   1078 y         -5.881013     -5.876142     0.004871    Cartesian   -0.08
   1078 z         17.643040     17.633261    -0.009778    Cartesian   -0.06
   1079 x         13.722364     13.719856    -0.002509    Cartesian   -0.02
   1079 y         -1.960338     -1.957219     0.003119    Cartesian   -0.16
   1079 z         13.722364     13.716874    -0.005490    Cartesian   -0.04
   1080 x         17.643040     17.638490    -0.004550    Cartesian   -0.03
   1080 y         -5.881013     -5.877648     0.003365    Cartesian   -0.06
   1080 z          5.881013      5.879694    -0.001319    Cartesian   -0.02
   1081 x          5.881013      5.880952    -0.000061    Cartesian   -0.00
   1081 y          5.881013      5.880952    -0.000061    Cartesian   -0.00
   1081 z         17.643040     17.634996    -0.008043    Cartesian   -0.05
   1082 x          3.920675      3.921955     0.001280    Cartesian    0.03
   1082 y         19.603377     19.605192     0.001814    Cartesian    0.01
   1082 z          0.000000      0.000000     0.000000    Cartesian    0.00
   1083 x          0.000000      0.000206     0.000206    Cartesian    0.00
   1083 y         11.762026     11.761212    -0.000815    Cartesian   -0.01
   1083 z         15.682702     15.680821    -0.001881    Cartesian   -0.01
   1084 x          5.881013      5.879921    -0.001093    Cartesian   -0.02
   1084 y        -17.643040    -17.633409     0.009630    Cartesian   -0.05
   1084 z         -1.960338     -1.959519     0.000819    Cartesian   -0.04
   1085 x          9.801689      9.801343    -0.000346    Cartesian   -0.00
   1085 y         17.643040     17.636197    -0.006843    Cartesian   -0.04
   1085 z         -1.960338     -1.959285     0.001053    Cartesian   -0.05
   1086 x         13.722364     13.719142    -0.003222    Cartesian   -0.02
   1086 y         13.722364     13.719142    -0.003222    Cartesian   -0.02
   1086 z          5.881013      5.879045    -0.001968    Cartesian   -0.03
   1087 x         -7.841351     -7.836888     0.004463    Cartesian   -0.06
   1087 y        -11.762026    -11.756100     0.005927    Cartesian   -0.05
   1087 z         11.762026     11.757099    -0.004927    Cartesian   -0.04
   1088 x          7.841351      7.839269    -0.002082    Cartesian   -0.03
   1088 y         -7.841351     -7.838797     0.002554    Cartesian   -0.03
   1088 z         15.682702     15.679196    -0.003506    Cartesian   -0.02
   1089 x          0.000000      0.000506     0.000506    Cartesian    0.00
   1089 y         19.603377     19.604247     0.000869    Cartesian    0.00
   1089 z          3.920675      3.921310     0.000635    Cartesian    0.02
   1090 x          3.920675      3.921495     0.000819    Cartesian    0.02
   1090 y         15.682702     15.682877     0.000175    Cartesian    0.00
   1090 z         11.762026     11.762057     0.000030    Cartesian    0.00
   1091 x          1.960338      1.960160    -0.000177    Cartesian   -0.01
   1091 y        -17.643040    -17.632275     0.010765    Cartesian   -0.06
   1091 z          5.881013      5.878178    -0.002835    Cartesian   -0.05
   1092 x         13.722364     13.719822    -0.002543    Cartesian   -0.02
   1092 y         -9.801689     -9.797485     0.004204    Cartesian   -0.04
   1092 z          9.801689      9.799669    -0.002020    Cartesian   -0.02
   1093 x        -11.762026    -11.756318     0.005708    Cartesian   -0.05
   1093 y        -11.762026    -11.756318     0.005708    Cartesian   -0.05
   1093 z          7.841351      7.837796    -0.003555    Cartesian   -0.05
   1094 x          3.920675      3.921361     0.000686    Cartesian    0.02
   1094 y         11.762026     11.761820    -0.000207    Cartesian   -0.00
   1094 z         15.682702     15.681618    -0.001084    Cartesian   -0.01
   1095 x         19.603377     19.603754     0.000376    Cartesian    0.00
   1095 y         -3.920675     -3.920784    -0.000108    Cartesian    0.00
   1095 z          0.000000      0.000000     0.000000    Cartesian    0.00
   1096 x         15.682702     15.681113    -0.001589    Cartesian   -0.01
   1096 y        -11.762026    -11.760501     0.001526    Cartesian   -0.01
   1096 z          0.000000      0.000000     0.000000    Cartesian    0.00
   1097 x          3.920675      3.921843     0.001168    Cartesian    0.03
   1097 y         19.603377     19.605128     0.001750    Cartesian    0.01
   1097 z          3.920675      3.921562     0.000886    Cartesian    0.02
   1098 x         11.762026     11.761022    -0.001004    Cartesian   -0.01
   1098 y         11.762026     11.761022    -0.001004    Cartesian   -0.01
   1098 z         11.762026     11.760527    -0.001499    Cartesian   -0.01
   1099 x         -1.960338     -1.957988     0.002349    Cartesian   -0.12
   1099 y        -17.643040    -17.631910     0.011130    Cartesian   -0.06
   1099 z          5.881013      5.877783    -0.003231    Cartesian   -0.05
   1100 x          5.881013      5.879184    -0.001829    Cartesian   -0.03
   1100 y         -5.881013     -5.876769     0.004244    Cartesian   -0.07
   1100 z         17.643040     17.633439    -0.009600    Cartesian   -0.05
   1101 x          9.801689      9.798442    -0.003247    Cartesian   -0.03
   1101 y         -9.801689     -9.795991     0.005698    Cartesian   -0.06
   1101 z         13.722364     13.715934    -0.006431    Cartesian   -0.05
   1102 x         13.722364     13.718801    -0.003563    Cartesian   -0.03
   1102 y        -13.722364    -13.716240     0.006125    Cartesian   -0.04
   1102 z         -1.960338     -1.959291     0.001046    Cartesian   -0.05
   1103 x          1.960338      1.961384     0.001046    Cartesian    0.05
   1103 y         17.643040     17.636614    -0.006426    Cartesian   -0.04
   1103 z          9.801689      9.798200    -0.003489    Cartesian   -0.04
   1104 x          5.881013      5.880707    -0.000306    Cartesian   -0.01
   1104 y         13.722364     13.720316    -0.002048    Cartesian   -0.01
   1104 z         13.722364     13.717466    -0.004898    Cartesian   -0.04
   1105 x          7.841351      7.839545    -0.001806    Cartesian   -0.02
   1105 y        -15.682702    -15.678236     0.004466    Cartesian   -0.03
   1105 z          7.841351      7.839669    -0.001682    Cartesian   -0.02
   1106 x         15.682702     15.680028    -0.002674    Cartesian   -0.02
   1106 y         -3.920675     -3.918616     0.002060    Cartesian   -0.05
   1106 z         11.762026     11.759579    -0.002448    Cartesian   -0.02
   1107 x          0.000000      0.000203     0.000203    Cartesian    0.00
   1107 y          0.000000      0.000203     0.000203    Cartesian *******
   1107 z         19.603377     19.601451    -0.001926    Cartesian   -0.01
   1108 x         -5.881013     -5.876686     0.004327    Cartesian   -0.07
   1108 y        -17.643040    -17.631655     0.011385    Cartesian   -0.06
   1108 z         -1.960338     -1.958944     0.001394    Cartesian   -0.07
   1109 x          9.801689      9.798802    -0.002887    Cartesian   -0.03
   1109 y        -13.722364    -13.714568     0.007796    Cartesian   -0.06
   1109 z          9.801689      9.798475    -0.003214    Cartesian   -0.03
   1110 x         17.643040     17.635890    -0.007150    Cartesian   -0.04
   1110 y         -1.960338     -1.957358     0.002980    Cartesian   -0.15
   1110 z          9.801689      9.797523    -0.004166    Cartesian   -0.04
   1111 x         11.762026     11.759387    -0.002640    Cartesian   -0.02
   1111 y         -3.920675     -3.918301     0.002374    Cartesian   -0.06
   1111 z         15.682702     15.678610    -0.004092    Cartesian   -0.03
   1112 x         11.762026     11.761007    -0.001020    Cartesian   -0.01
   1112 y        -15.682702    -15.680558     0.002144    Cartesian   -0.01
   1112 z          0.000000      0.000000     0.000000    Cartesian    0.00
   1113 x         19.603377     19.600012    -0.003365    Cartesian   -0.02
   1113 y         -3.920675     -3.918658     0.002017    Cartesian   -0.05
   1113 z          3.920675      3.919166    -0.001510    Cartesian   -0.04
   1114 x          1.960338      1.960824     0.000486    Cartesian    0.02
   1114 y          9.801689      9.798892    -0.002797    Cartesian   -0.03
   1114 z         17.643040     17.632498    -0.010541    Cartesian   -0.06
   1115 x         -7.841351     -7.836946     0.004405    Cartesian   -0.06
   1115 y         -7.841351     -7.836946     0.004405    Cartesian   -0.06
   1115 z         15.682702     15.675821    -0.006881    Cartesian   -0.04
   1116 x          0.000000      0.001552     0.001552    Cartesian    0.00
   1116 y          3.920675      3.919691    -0.000985    Cartesian   -0.03
   1116 z         19.603377     19.598747    -0.004630    Cartesian   -0.02
   1117 x         15.682702     15.679362    -0.003340    Cartesian   -0.02
   1117 y        -11.762026    -11.759191     0.002836    Cartesian   -0.02
   1117 z          3.920675      3.919284    -0.001392    Cartesian   -0.04
--------------------------------------------------------------------------------


  Time to end of optimisation  =     1000.6447 seconds


  Peak dynamic memory used =    1215.15 MB 


  Timing analysis for GULP :

--------------------------------------------------------------------------------
  Task / Subroutine                                          Time (Seconds)
--------------------------------------------------------------------------------
  Calculation of reciprocal space energy and derivatives          0.0002
  Calculation of reciprocal space energy using symmetry           0.0003
  Calculation of real space energy and derivatives                0.0015
  Calculation of real space energy using symmetry                 0.0032
  Calculation for region 1 energy and derivatives (2-b)         290.4169
  Calculation for region 2a energy                               93.9216
  Calculation for region 2b energy                                0.0093
  Calculation and manipulation of Hessian matrix                548.0541
  Calculation of matrix inversion                                66.1807
  Symmetry generation of equivalent positions                     0.0016
--------------------------------------------------------------------------------
  Total CPU time                                               1000.6447
--------------------------------------------------------------------------------


  Dump file written as Li3OCl.grs


  Job Finished at 13:19.14 28th October    2020                               

