********************************************************************************
*                       GENERAL UTILITY LATTICE PROGRAM                        *
*                                 Julian Gale                                  *
*                       Curtin Institute for Computation                       *
*                    School of Molecular and Life Sciences                     *
*                    Curtin University, Western Australia                      *
********************************************************************************
* Version = 5.2.0 * Last modified =  10th September 2020                       *
********************************************************************************
*  optimise     - perform optimisation run                                     *
*  conp         - constant pressure calculation                                *
*  property     - calculate properties for final geometry                      *
*  defect       - perform defect calculation after bulk run                    *
*  compare      - compare initial and final structures                         *
********************************************************************************

  Job Started  at 12:53.52 28th October    2020                               

  Number of CPUs =     1


  Total number of configurations input =      1

********************************************************************************
*  Input for Configuration =   1                                               *
********************************************************************************

  Formula = ClOLi3                                                      

  Number of irreducible atoms/shells =       5


  Total number atoms/shells =       7

  Dimensionality = 3               :  Bulk   


  Symmetry :

  Crystal family                   :  Cubic       
  Crystal class  (Groth - 1921)    :  Cubic Hexakisoctahedral              

  Space group (centrosymmetric)    :  P M 3 M         

  Patterson group                  :  P m -3 m 

  Cartesian lattice vectors (Angstroms) :

        3.918873    0.000000    0.000000
        0.000000    3.918873    0.000000
        0.000000    0.000000    3.918873

  Cell parameters (Angstroms/Degrees):

  a =       3.9189    alpha =  90.0000
  b =       3.9189    beta  =  90.0000
  c =       3.9189    gamma =  90.0000

  Initial cell volume =          60.184349 Angs**3

  Temperature of configuration =   0.00     K 

  Pressure of configuration =         0.000 GPa 

  Fractional coordinates of asymmetric unit :

--------------------------------------------------------------------------------
   No.  Atomic       x           y          z         Charge      Occupancy
        Label      (Frac)      (Frac)     (Frac)        (e)         (Frac)  
--------------------------------------------------------------------------------
      1 Cl    c    0.500000    0.500000    0.500000     1.48500    1.000000    
      2 O     c    0.000000    0.000000    0.000000     0.18300    1.000000    
      3 Li    c    0.500000    0.000000    0.000000     1.00000    1.000000    
      4 Cl    s    0.500000    0.500000    0.500000    -2.48500    1.000000    
      5 O     s    0.000000    0.000000    0.000000    -2.18300    1.000000    
--------------------------------------------------------------------------------


  Constraints : 

--------------------------------------------------------------------------------
  Constraint no.      Unconstrained     Constrained    Coefficient    Offset
                         Variable         Variable
--------------------------------------------------------------------------------
           1              Strain 1        Strain 2       1.00000      0.0000
           2              Strain 1        Strain 3       1.00000      0.0000
--------------------------------------------------------------------------------


********************************************************************************
*  General input information                                                   *
********************************************************************************

  Species output for all configurations : 

--------------------------------------------------------------------------------
  Species    Type    Atomic    Atomic    Charge       Radii (Angs)     Library
                     Number     Mass       (e)     Cova   Ionic  VDW   Symbol
--------------------------------------------------------------------------------
    Li       Core        3       6.94   1.000000   0.680  0.000  1.800          
    O        Core        8      16.00   0.183000   0.730  0.000  1.360          
    O        Shell       8       0.00  -2.183000   0.730  0.000  1.360          
    Cl       Core       17      35.45   1.485000   0.990  0.000  1.650          
    Cl       Shell      17       0.00  -2.485000   0.990  0.000  1.650          
--------------------------------------------------------------------------------


  Lattice summation method               =    Ewald          (3-D)
                                         =    Parry          (2-D)
                                         =    Saunders et al (1-D)
  Accuracy factor for lattice sums       =   12.000


  Analytic derivatives to be used

  Time limit = Infinity

  Maximum range for interatomic potentials =    100000.000000 Angstroms

  General interatomic potentials :

--------------------------------------------------------------------------------
Atom  Types   Potential      Parameter       Value         Units   Cutoffs(Ang)
  1     2                                                            Min /  Max 
--------------------------------------------------------------------------------
O    c O    s Spring (c-s)  Spring k 2       593.72000    eV*Ang^-2 0.000  0.800
                            Spring k 4       0.0000000    eV*Ang^-4 
--------------------------------------------------------------------------------
Cl   c Cl   s Spring (c-s)  Spring k 2       29.380000    eV*Ang^-2 0.000  0.800
                            Spring k 4       0.0000000    eV*Ang^-4 
--------------------------------------------------------------------------------
Li   c Li   c Buckingham    Buckingham A     360.53000    eV        0.000 12.000
                            Buckingham rho  0.16100000    Ang       
                            Buckingham C     0.0000000    eV*Ang^6  
--------------------------------------------------------------------------------
Li   c O    s Buckingham    Buckingham A     292.30000    eV        0.000 12.000
                            Buckingham rho  0.34720000    Ang       
                            Buckingham C     0.0000000    eV*Ang^6  
--------------------------------------------------------------------------------
Li   c Cl   s Buckingham    Buckingham A     421.04000    eV        0.000 12.000
                            Buckingham rho  0.33400000    Ang       
                            Buckingham C     0.0000000    eV*Ang^6  
--------------------------------------------------------------------------------
O    s O    s Buckingham    Buckingham A     22764.300    eV        0.000 12.000
                            Buckingham rho  0.14900000    Ang       
                            Buckingham C     13.190000    eV*Ang^6  
--------------------------------------------------------------------------------
O    s Cl   s Buckingham    Buckingham A     8286.9100    eV        0.000 12.000
                            Buckingham rho  0.25900000    Ang       
                            Buckingham C     62.200000    eV*Ang^6  
--------------------------------------------------------------------------------
Cl   s Cl   s Buckingham    Buckingham A     1227.2000    eV        0.000 12.000
                            Buckingham rho  0.32100000    Ang       
                            Buckingham C     14.530000    eV*Ang^6  
--------------------------------------------------------------------------------

********************************************************************************
*  Output for configuration   1                                                *
********************************************************************************


  Components of energy : 

--------------------------------------------------------------------------------
  Interatomic potentials     =           7.26836263 eV    
  Monopole - monopole (real) =         -11.53475722 eV    
  Monopole - monopole (recip)=         -33.94580548 eV    
  Monopole - monopole (total)=         -45.48056271 eV    
--------------------------------------------------------------------------------
  Total lattice energy       =         -38.21220008 eV    
--------------------------------------------------------------------------------
  Total lattice energy       =           -3686.8932 kJ/(mole unit cells)
--------------------------------------------------------------------------------


  Number of variables =        1

  Maximum number of calculations  =          1000
  Maximum Hessian update interval =            10
  Maximum step size               =   1.000000000
  Maximum parameter tolerance     =   0.000010000
  Maximum function  tolerance     =   0.000010000
  Maximum gradient  tolerance     =   0.001000000
  Maximum gradient  component     =   0.010000000

  Symmetry constrained optimisation

  Symmetry used for second derivatives

  Cell parameters to be optimised using strains

  Newton-Raphson optimiser to be used

  BFGS hessian update to be used

  Lower half triangular hessian to be used

  Start of bulk optimisation :

  Cycle:      0 Energy:       -38.212200  Gnorm:      0.095699  CPU:    0.009
  ** Hessian calculated **
  Cycle:      1 Energy:       -38.212222  Gnorm:      0.000105  CPU:    0.010


  **** Optimisation achieved ****


  Final energy =     -38.21222207 eV
  Final Gnorm  =       0.00000001

  Components of energy : 

--------------------------------------------------------------------------------
  Interatomic potentials     =           7.24743137 eV    
  Monopole - monopole (real) =         -11.52945422 eV    
  Monopole - monopole (recip)=         -33.93019921 eV    
  Monopole - monopole (total)=         -45.45965344 eV    
--------------------------------------------------------------------------------
  Total lattice energy       =         -38.21222207 eV    
--------------------------------------------------------------------------------
  Total lattice energy       =           -3686.8953 kJ/(mole unit cells)
--------------------------------------------------------------------------------

  Final asymmetric unit coordinates :

--------------------------------------------------------------------------------
   No.  Atomic        x           y           z         Radius
        Label       (Frac)      (Frac)      (Frac)       (Angs) 
--------------------------------------------------------------------------------
     1  Cl    c     0.500000    0.500000    0.500000    0.000000
     2  O     c     0.000000    0.000000    0.000000    0.000000
     3  Li    c     0.500000    0.000000    0.000000    0.000000
     4  Cl    s     0.500000    0.500000    0.500000    0.000000
     5  O     s     0.000000    0.000000    0.000000    0.000000
--------------------------------------------------------------------------------

  Final Cartesian lattice vectors (Angstroms) :

        3.920675    0.000000    0.000000
        0.000000    3.920675    0.000000
        0.000000    0.000000    3.920675


  Final cell parameters and derivatives :

--------------------------------------------------------------------------------
       a            3.920675 Angstrom     dE/de1(xx)     0.000000 eV/strain
       b            3.920675 Angstrom     dE/de2(yy)     0.000000 eV/strain
       c            3.920675 Angstrom     dE/de3(zz)     0.000000 eV/strain
       alpha       90.000000 Degrees      dE/de4(yz)     0.000000 eV/strain
       beta        90.000000 Degrees      dE/de5(xz)     0.000000 eV/strain
       gamma       90.000000 Degrees      dE/de6(xy)     0.000000 eV/strain
--------------------------------------------------------------------------------

  Primitive cell volume =            60.267433 Angs**3

  Density of cell =      1.991276 g/cm**3

  Non-primitive cell volume =            60.267433 Angs**3


  Final internal derivatives :

--------------------------------------------------------------------------------
   No.  Atomic          a             b             c           Radius
        Label          (eV)          (eV)          (eV)        (eV/Angs)
--------------------------------------------------------------------------------
      1 Cl    c       0.000000      0.000000      0.000000      0.000000
      2 O     c       0.000000      0.000000      0.000000      0.000000
      3 Li    c       0.000000      0.000000      0.000000      0.000000
      4 Cl    s       0.000000      0.000000      0.000000      0.000000
      5 O     s       0.000000      0.000000      0.000000      0.000000
--------------------------------------------------------------------------------
  Maximum abs         0.000000      0.000000      0.000000      0.000000
--------------------------------------------------------------------------------

  Comparison of initial and final structures : 

--------------------------------------------------------------------------------
  Parameter   Initial value   Final value   Difference    Units      Percent
--------------------------------------------------------------------------------
    Volume        60.184349     60.267433     0.083084    Angs**3      0.14
    a              3.918873      3.920675     0.001802    Angstroms    0.05
    b              3.918873      3.920675     0.001802    Angstroms    0.05
    c              3.918873      3.920675     0.001802    Angstroms    0.05
    alpha         90.000000     90.000000     0.000000    Degrees      0.00
    beta          90.000000     90.000000     0.000000    Degrees      0.00
    gamma         90.000000     90.000000     0.000000    Degrees      0.00
      1 x          0.500000      0.500000     0.000000    Fractional   0.00
      1 y          0.500000      0.500000     0.000000    Fractional   0.00
      1 z          0.500000      0.500000     0.000000    Fractional   0.00
      2 x          0.000000      0.000000     0.000000    Fractional   0.00
      2 y          0.000000      0.000000     0.000000    Fractional   0.00
      2 z          0.000000      0.000000     0.000000    Fractional   0.00
      3 x          0.500000      0.500000     0.000000    Fractional   0.00
      3 y          0.000000      0.000000     0.000000    Fractional   0.00
      3 z          0.000000      0.000000     0.000000    Fractional   0.00
      4 x          0.500000      0.500000     0.000000    Fractional   0.00
      4 y          0.500000      0.500000     0.000000    Fractional   0.00
      4 z          0.500000      0.500000     0.000000    Fractional   0.00
      5 x          0.000000      0.000000     0.000000    Fractional   0.00
      5 y          0.000000      0.000000     0.000000    Fractional   0.00
      5 z          0.000000      0.000000     0.000000    Fractional   0.00
--------------------------------------------------------------------------------


  Born effective charge tensors : 

-------------------------------------------------------------------------------
  Atom             x           y             z
-------------------------------------------------------------------------------
    1 Cl    x      -0.9489      0.0000     -0.0000
            y       0.0000     -0.9489     -0.0000
            z      -0.0000     -0.0000     -0.9489
-------------------------------------------------------------------------------
    2 O     x      -2.4688      0.0000     -0.0000
            y       0.0000     -2.4688     -0.0000
            z      -0.0000     -0.0000     -2.4688
-------------------------------------------------------------------------------
    3 Li    x       0.7919     -0.0000      0.0000
            y      -0.0000      1.3129      0.0000
            z      -0.0000      0.0000      1.3129
-------------------------------------------------------------------------------




  Elastic Constant Matrix: (Units=GPa)

-------------------------------------------------------------------------------
  Indices      1         2         3         4         5         6    
-------------------------------------------------------------------------------
       1     94.3368   44.9178   44.9178   -0.0000   -0.0000    0.0000
       2     44.9178   94.3368   44.9178    0.0000   -0.0000    0.0000
       3     44.9178   44.9178   94.3368    0.0000    0.0000   -0.0000
       4     -0.0000    0.0000    0.0000   44.9178   -0.0000    0.0000
       5     -0.0000   -0.0000    0.0000   -0.0000   44.9178    0.0000
       6      0.0000    0.0000   -0.0000    0.0000    0.0000   44.9178
-------------------------------------------------------------------------------


  Elastic Compliance Matrix: (Units=1/GPa)

-------------------------------------------------------------------------------
  Indices      1         2         3         4         5         6    
-------------------------------------------------------------------------------
       1    0.015300 -0.004935 -0.004935  0.000000  0.000000 -0.000000
       2   -0.004935  0.015300 -0.004935  0.000000 -0.000000 -0.000000
       3   -0.004935 -0.004935  0.015300 -0.000000 -0.000000  0.000000
       4    0.000000  0.000000 -0.000000  0.022263  0.000000 -0.000000
       5    0.000000 -0.000000 -0.000000  0.000000  0.022263 -0.000000
       6   -0.000000 -0.000000  0.000000 -0.000000 -0.000000  0.022263
-------------------------------------------------------------------------------

  Mechanical properties :

-------------------------------------------------------------------------------
  Convention :                    Reuss         Voigt         Hill
-------------------------------------------------------------------------------
  Bulk  Modulus (GPa)     =      61.39080      61.39080      61.39080
  Shear Modulus (GPa)     =      33.84570      36.83448      35.34009
-------------------------------------------------------------------------------
  Velocity S-wave (km/s)  =       4.12274       4.30092       4.21277
  Velocity P-wave (km/s)  =       7.31386       7.44942       7.38195
-------------------------------------------------------------------------------
  Compressibility (1/GPa) =    0.01628909
-------------------------------------------------------------------------------
  Stress axis :                     x             y             z
-------------------------------------------------------------------------------
  Youngs Moduli (GPa)     =      65.35947      65.35947      65.35947
-------------------------------------------------------------------------------
  Poissons Ratio (x)      =                     0.32256       0.32256
  Poissons Ratio (y)      =       0.32256                     0.32256
  Poissons Ratio (z)      =       0.32256       0.32256
-------------------------------------------------------------------------------


  Piezoelectric Strain Matrix: (Units=C/m**2)

-------------------------------------------------------------------------------
  Indices      1         2         3         4         5         6    
-------------------------------------------------------------------------------
       x     0.00000  -0.00000  -0.00000   0.00000   0.00000  -0.00000
       y    -0.00000   0.00000   0.00000  -0.00000   0.00000  -0.00000
       z    -0.00000   0.00000   0.00000   0.00000  -0.00000   0.00000
-------------------------------------------------------------------------------


  Piezoelectric Stress Matrix: (Units=10**-11 C/N)

-------------------------------------------------------------------------------
  Indices      1         2         3         4         5         6    
-------------------------------------------------------------------------------
       x     0.00000  -0.00000  -0.00000   0.00000   0.00000  -0.00000
       y    -0.00000   0.00000   0.00000  -0.00000   0.00000  -0.00000
       z    -0.00000  -0.00000   0.00000   0.00000  -0.00000   0.00000
-------------------------------------------------------------------------------


  Static dielectric constant tensor : 

-------------------------------------------------------------------------------
              x         y         z
-------------------------------------------------------------------------------
       x    12.11703  -0.00000   0.00000
       y    -0.00000  12.11703   0.00000
       z     0.00000   0.00000  12.11703
--------------------------------------------------------------------------------

  High frequency dielectric constant tensor : 

-------------------------------------------------------------------------------
              x         y         z
-------------------------------------------------------------------------------
       x     1.74104  -0.00000   0.00000
       y    -0.00000   1.74104   0.00000
       z     0.00000   0.00000   1.74104
-------------------------------------------------------------------------------

  Static refractive indices : 

-------------------------------------------------------------------------------
    1 =    3.48095      2 =    3.48095      3 =    3.48095
-------------------------------------------------------------------------------

  High frequency refractive indices : 

-------------------------------------------------------------------------------
    1 =    1.31948      2 =    1.31948      3 =    1.31948
-------------------------------------------------------------------------------


  Time to end of optimisation =       0.0139 seconds

********************************************************************************
*  Defect calculation for configuration   1 :                                  *
********************************************************************************

  Total number of defects =      3

  Total charge on defect  =   2.00

  Defect centre is at   0.5878   0.5878   0.0000  Angs

  Region 1 radius =  20.0000      Number of ions =   3884

  Number of symmetry inequivalent region 1 ions  =   1126

  Region 2 radius =  24.0000      Number of ions =   2838

  Number of symmetry inequivalent region 2a ions =    779

  Region 2a mode = 4 : screened electrostatics due to region 1 
                       neglect correction to region 1 forces from 2a
                       region 2a displacements based on defects only

  Region 2a ions will only interact with defects in region 1

  Vacancies:

--------------------------------------------------------------------------------
    Specification type     Symbol/Number         x          y          z
--------------------------------------------------------------------------------
    Cartesian                                0.000000   0.000000   0.000000
    Cartesian                                3.918873   3.918873   0.000000
--------------------------------------------------------------------------------

  Interstitials:

--------------------------------------------------------------------------------
    Specification type     Symbol/Number         x          y          z
--------------------------------------------------------------------------------
    Atom/Cartesian          O                0.587831   0.587831   0.000000
--------------------------------------------------------------------------------


  Symmetry reduced region 1 (Relative to defect centre) :

--------------------------------------------------------------------------------
   No.   Atomic       x            y             z       Radius  Multiplicity   
         Label      (Angs)       (Angs)        (Angs)    (Angs)     
--------------------------------------------------------------------------------
     1  O     c      0.0000       0.0000       0.0000    0.0000     1    Defect
     2  Li    c      1.3725 *    -0.5878 *     0.0000    0.0000     2          
     3  Li    c     -0.5878 *    -0.5878      -1.9603 *  0.0000     2          
     4  Li    c     -2.5482 *    -0.5878 *     0.0000    0.0000     2          
     5  Cl    c      1.3725 *     1.3725      -1.9603 *  0.0000     2          
     6  O     c     -0.5878 *     3.3328 *     0.0000    0.0000     2          
     7  Cl    c      1.3725 *    -2.5482 *    -1.9603 *  0.0000     4          
     8  Li    c      1.3725 *     3.3328 *     0.0000    0.0000     2          
     9  Li    c     -0.5878 *     3.3328 *    -1.9603 *  0.0000     4          
    10  O     c     -0.5878 *    -0.5878       3.9207 *  0.0000     2          
    11  Cl    c     -2.5482 *    -2.5482      -1.9603 *  0.0000     2          
    12  Li    c     -2.5482 *     3.3328 *     0.0000    0.0000     2          
    13  Li    c      1.3725 *    -0.5878 *     3.9207 *  0.0000     4          
    14  O     c     -0.5878 *    -4.5085 *     0.0000    0.0000     2          
    15  Li    c     -2.5482 *    -0.5878 *     3.9207 *  0.0000     4          
    16  Li    c      1.3725 *    -4.5085 *     0.0000    0.0000     2          
    17  Li    c     -0.5878 *    -4.5085 *    -1.9603 *  0.0000     4          
    18  Li    c      3.3328 *     3.3328      -1.9603 *  0.0000     2          
    19  Li    c     -2.5482 *    -4.5085 *     0.0000    0.0000     2          
    20  O     c     -0.5878 *     3.3328 *     3.9207 *  0.0000     4          
    21  Li    c      1.3725 *     3.3328 *     3.9207 *  0.0000     4          
    22  Li    c      5.2932 *    -0.5878 *     0.0000    0.0000     2          
    23  O     c      3.3328 *    -4.5085 *     0.0000    0.0000     2          
    24  Li    c     -2.5482 *     3.3328 *     3.9207 *  0.0000     4          
    25  Cl    c      1.3725 *     5.2932 *    -1.9603 *  0.0000     4          
    26  Li    c      3.3328 *    -4.5085 *    -1.9603 *  0.0000     4          
    27  Li    c     -0.5878 *    -0.5878       5.8810 *  0.0000     2          
    28  O     c     -0.5878 *    -4.5085 *     3.9207 *  0.0000     4          
    29  Li    c      1.3725 *    -4.5085 *     3.9207 *  0.0000     4          
    30  O     c      3.3328 *     3.3328       3.9207 *  0.0000     2          
    31  Cl    c      1.3725 *     1.3725       5.8810 *  0.0000     2          
    32  Cl    c      5.2932 *    -2.5482 *    -1.9603 *  0.0000     4          
    33  Li    c      5.2932 *     3.3328 *     0.0000    0.0000     2          
    34  O     c     -4.5085 *    -4.5085       0.0000    0.0000     1          
    35  Li    c     -2.5482 *    -4.5085 *     3.9207 *  0.0000     4          
    36  Li    c     -6.4688 *    -0.5878 *     0.0000    0.0000     2          
    37  Cl    c      1.3725 *    -2.5482 *     5.8810 *  0.0000     4          
    38  Li    c      5.2932 *    -0.5878 *     3.9207 *  0.0000     4          
    39  Li    c     -4.5085 *    -4.5085      -1.9603 *  0.0000     2          
    40  Li    c     -0.5878 *     3.3328 *     5.8810 *  0.0000     4          
    41  O     c      3.3328 *    -4.5085 *     3.9207 *  0.0000     4          
    42  Cl    c      1.3725 *    -6.4688 *    -1.9603 *  0.0000     4          
    43  Cl    c     -2.5482 *    -2.5482       5.8810 *  0.0000     2          
    44  Li    c      5.2932 *    -4.5085 *     0.0000    0.0000     2          
    45  Cl    c     -2.5482 *    -6.4688 *    -1.9603 *  0.0000     4          
    46  Li    c     -6.4688 *     3.3328 *     0.0000    0.0000     2          
    47  O     c     -0.5878 *     7.2535 *     0.0000    0.0000     2          
    48  Li    c      1.3725 *     7.2535 *     0.0000    0.0000     2          
    49  Li    c      5.2932 *     3.3328 *     3.9207 *  0.0000     4          
    50  Li    c     -0.5878 *    -4.5085 *     5.8810 *  0.0000     4          
    51  O     c     -4.5085 *    -4.5085       3.9207 *  0.0000     2          
    52  Li    c     -0.5878 *     7.2535 *    -1.9603 *  0.0000     4          
    53  Li    c      3.3328 *     3.3328       5.8810 *  0.0000     2          
    54  Li    c     -6.4688 *    -0.5878 *     3.9207 *  0.0000     4          
    55  Li    c     -2.5482 *     7.2535 *     0.0000    0.0000     2          
    56  Cl    c      5.2932 *     5.2932      -1.9603 *  0.0000     2          
    57  Li    c     -6.4688 *    -4.5085 *     0.0000    0.0000     2          
    58  O     c     -0.5878 *    -0.5878       7.8414 *  0.0000     2          
    59  Li    c      1.3725 *    -0.5878 *     7.8414 *  0.0000     4          
    60  Li    c      5.2932 *    -4.5085 *     3.9207 *  0.0000     4          
    61  O     c      3.3328 *     7.2535 *     0.0000    0.0000     2          
    62  Cl    c      1.3725 *     5.2932 *     5.8810 *  0.0000     4          
    63  Li    c      3.3328 *    -4.5085 *     5.8810 *  0.0000     4          
    64  Li    c      3.3328 *     7.2535 *    -1.9603 *  0.0000     4          
    65  Li    c     -6.4688 *     3.3328 *     3.9207 *  0.0000     4          
    66  Li    c     -2.5482 *    -0.5878 *     7.8414 *  0.0000     4          
    67  O     c     -0.5878 *     7.2535 *     3.9207 *  0.0000     4          
    68  Cl    c      5.2932 *    -2.5482 *     5.8810 *  0.0000     4          
    69  Li    c      1.3725 *     7.2535 *     3.9207 *  0.0000     4          
    70  O     c     -0.5878 *    -8.4292 *     0.0000    0.0000     2          
    71  Li    c      1.3725 *    -8.4292 *     0.0000    0.0000     2          
    72  O     c      7.2535 *    -4.5085 *     0.0000    0.0000     2          
    73  O     c     -0.5878 *     3.3328 *     7.8414 *  0.0000     4          
    74  Cl    c      5.2932 *    -6.4688 *    -1.9603 *  0.0000     4          
    75  Li    c     -2.5482 *     7.2535 *     3.9207 *  0.0000     4          
    76  Li    c      1.3725 *     3.3328 *     7.8414 *  0.0000     4          
    77  Li    c     -0.5878 *    -8.4292 *    -1.9603 *  0.0000     4          
    78  Li    c     -4.5085 *    -4.5085       5.8810 *  0.0000     2          
    79  Li    c      7.2535 *    -4.5085 *    -1.9603 *  0.0000     4          
    80  Li    c     -2.5482 *    -8.4292 *     0.0000    0.0000     2          
    81  Li    c     -6.4688 *    -4.5085 *     3.9207 *  0.0000     4          
    82  Cl    c      1.3725 *    -6.4688 *     5.8810 *  0.0000     4          
    83  Li    c     -2.5482 *     3.3328 *     7.8414 *  0.0000     4          
    84  O     c      3.3328 *     7.2535 *     3.9207 *  0.0000     4          
    85  Li    c      5.2932 *     7.2535 *     0.0000    0.0000     2          
    86  O     c     -0.5878 *    -4.5085 *     7.8414 *  0.0000     4          
    87  O     c      3.3328 *    -8.4292 *     0.0000    0.0000     2          
    88  Cl    c     -2.5482 *    -6.4688 *     5.8810 *  0.0000     4          
    89  Li    c      1.3725 *    -4.5085 *     7.8414 *  0.0000     4          
    90  O     c      3.3328 *     3.3328       7.8414 *  0.0000     2          
    91  Li    c      9.2139 *    -0.5878 *     0.0000    0.0000     2          
    92  Li    c      3.3328 *    -8.4292 *    -1.9603 *  0.0000     4          
    93  O     c     -0.5878 *    -8.4292 *     3.9207 *  0.0000     4          
    94  Cl    c     -6.4688 *    -6.4688      -1.9603 *  0.0000     2          
    95  Li    c     -0.5878 *     7.2535 *     5.8810 *  0.0000     4          
    96  Li    c     -2.5482 *    -4.5085 *     7.8414 *  0.0000     4          
    97  Li    c      1.3725 *    -8.4292 *     3.9207 *  0.0000     4          
    98  O     c      7.2535 *    -4.5085 *     3.9207 *  0.0000     4          
    99  Li    c      5.2932 *    -0.5878 *     7.8414 *  0.0000     4          
   100  Cl    c      1.3725 *     9.2139 *    -1.9603 *  0.0000     4          
   101  Cl    c      5.2932 *     5.2932       5.8810 *  0.0000     2          
   102  O     c     -4.5085 *    -8.4292 *     0.0000    0.0000     2          
   103  Li    c     -2.5482 *    -8.4292 *     3.9207 *  0.0000     4          
   104  O     c      3.3328 *    -4.5085 *     7.8414 *  0.0000     4          
   105  Li    c     -6.4688 *     7.2535 *     0.0000    0.0000     2          
   106  Li    c     -4.5085 *    -8.4292 *    -1.9603 *  0.0000     4          
   107  Cl    c      9.2139 *    -2.5482 *    -1.9603 *  0.0000     4          
   108  Li    c      9.2139 *     3.3328 *     0.0000    0.0000     2          
   109  Li    c      5.2932 *     7.2535 *     3.9207 *  0.0000     4          
   110  Li    c     -0.5878 *    -0.5878       9.8017 *  0.0000     2          
   111  O     c      3.3328 *    -8.4292 *     3.9207 *  0.0000     4          
   112  Li    c      3.3328 *     7.2535 *     5.8810 *  0.0000     4          
   113  Li    c      5.2932 *    -8.4292 *     0.0000    0.0000     2          
   114  Cl    c      1.3725 *     1.3725       9.8017 *  0.0000     2          
   115  Li    c      9.2139 *    -0.5878 *     3.9207 *  0.0000     4          
   116  Li    c      5.2932 *     3.3328 *     7.8414 *  0.0000     4          
   117  O     c     -4.5085 *    -4.5085       7.8414 *  0.0000     2          
   118  Li    c     -6.4688 *    -0.5878 *     7.8414 *  0.0000     4          
   119  Cl    c      1.3725 *    -2.5482 *     9.8017 *  0.0000     4          
   120  Cl    c      5.2932 *    -6.4688 *     5.8810 *  0.0000     4          
   121  Li    c      9.2139 *    -4.5085 *     0.0000    0.0000     2          
   122  O     c      7.2535 *     7.2535       0.0000    0.0000     1          
   123  Li    c     -0.5878 *    -8.4292 *     5.8810 *  0.0000     4          
   124  O     c     -4.5085 *    -8.4292 *     3.9207 *  0.0000     4          
   125  Li    c     -0.5878 *     3.3328 *     9.8017 *  0.0000     4          
   126  Li    c      7.2535 *    -4.5085 *     5.8810 *  0.0000     4          
   127  Li    c    -10.3895 *    -0.5878 *     0.0000    0.0000     2          
   128  Cl    c     -2.5482 *    -2.5482       9.8017 *  0.0000     2          
   129  Li    c      7.2535 *     7.2535      -1.9603 *  0.0000     2          
   130  Li    c      5.2932 *    -4.5085 *     7.8414 *  0.0000     4          
   131  Li    c     -6.4688 *     7.2535 *     3.9207 *  0.0000     4          
   132  Li    c      9.2139 *     3.3328 *     3.9207 *  0.0000     4          
   133  Li    c     -6.4688 *    -8.4292 *     0.0000    0.0000     2          
   134  Cl    c      1.3725 *   -10.3895 *    -1.9603 *  0.0000     4          
   135  Li    c      5.2932 *    -8.4292 *     3.9207 *  0.0000     4          
   136  Li    c     -6.4688 *     3.3328 *     7.8414 *  0.0000     4          
   137  O     c     -0.5878 *     7.2535 *     7.8414 *  0.0000     4          
   138  Li    c      1.3725 *     7.2535 *     7.8414 *  0.0000     4          
   139  Li    c     -0.5878 *    -4.5085 *     9.8017 *  0.0000     4          
   140  Li    c      3.3328 *    -8.4292 *     5.8810 *  0.0000     4          
   141  Cl    c      5.2932 *     9.2139 *    -1.9603 *  0.0000     4          
   142  Cl    c     -2.5482 *   -10.3895 *    -1.9603 *  0.0000     4          
   143  Cl    c     -6.4688 *    -6.4688       5.8810 *  0.0000     2          
   144  Li    c      3.3328 *     3.3328       9.8017 *  0.0000     2          
   145  Li    c    -10.3895 *     3.3328 *     0.0000    0.0000     2          
   146  Li    c      9.2139 *    -4.5085 *     3.9207 *  0.0000     4          
   147  Li    c     -2.5482 *     7.2535 *     7.8414 *  0.0000     4          
   148  O     c      7.2535 *     7.2535       3.9207 *  0.0000     2          
   149  Cl    c      1.3725 *     9.2139 *     5.8810 *  0.0000     4          
   150  Li    c    -10.3895 *    -0.5878 *     3.9207 *  0.0000     4          
   151  Li    c     -6.4688 *    -4.5085 *     7.8414 *  0.0000     4          
   152  O     c      7.2535 *    -8.4292 *     0.0000    0.0000     2          
   153  O     c      3.3328 *     7.2535 *     7.8414 *  0.0000     4          
   154  O     c     -0.5878 *    11.1742 *     0.0000    0.0000     2          
   155  Li    c     -4.5085 *    -8.4292 *     5.8810 *  0.0000     4          
   156  Cl    c      1.3725 *     5.2932 *     9.8017 *  0.0000     4          
   157  Cl    c      9.2139 *    -2.5482 *     5.8810 *  0.0000     4          
   158  Li    c      1.3725 *    11.1742 *     0.0000    0.0000     2          
   159  Li    c      3.3328 *    -4.5085 *     9.8017 *  0.0000     4          
   160  Li    c      7.2535 *    -8.4292 *    -1.9603 *  0.0000     4          
   161  Li    c     -6.4688 *    -8.4292 *     3.9207 *  0.0000     4          
   162  Li    c    -10.3895 *    -4.5085 *     0.0000    0.0000     2          
   163  Li    c     -0.5878 *    11.1742 *    -1.9603 *  0.0000     4          
   164  Cl    c      5.2932 *    -2.5482 *     9.8017 *  0.0000     4          
   165  Cl    c      9.2139 *    -6.4688 *    -1.9603 *  0.0000     4          
   166  Li    c     -2.5482 *    11.1742 *     0.0000    0.0000     2          
   167  O     c     -0.5878 *    -8.4292 *     7.8414 *  0.0000     4          
   168  Li    c      1.3725 *    -8.4292 *     7.8414 *  0.0000     4          
   169  Li    c    -10.3895 *     3.3328 *     3.9207 *  0.0000     4          
   170  O     c      7.2535 *    -4.5085 *     7.8414 *  0.0000     4          
   171  O     c      3.3328 *    11.1742 *     0.0000    0.0000     2          
   172  Li    c     -4.5085 *    -4.5085       9.8017 *  0.0000     2          
   173  Li    c      9.2139 *     7.2535 *     0.0000    0.0000     2          
   174  Li    c     -2.5482 *    -8.4292 *     7.8414 *  0.0000     4          
   175  O     c     -0.5878 *    -0.5878      11.7620 *  0.0000     2          
   176  O     c      7.2535 *    -8.4292 *     3.9207 *  0.0000     4          
   177  Cl    c      1.3725 *    -6.4688 *     9.8017 *  0.0000     4          
   178  Cl    c      5.2932 *   -10.3895 *    -1.9603 *  0.0000     4          
   179  Li    c      3.3328 *    11.1742 *    -1.9603 *  0.0000     4          
   180  Li    c      7.2535 *     7.2535       5.8810 *  0.0000     2          
   181  Li    c      1.3725 *    -0.5878 *    11.7620 *  0.0000     4          
   182  O     c     -0.5878 *    11.1742 *     3.9207 *  0.0000     4          
   183  O     c     -8.4292 *    -8.4292       0.0000    0.0000     1          
   184  Li    c      1.3725 *    11.1742 *     3.9207 *  0.0000     4          
   185  Li    c      5.2932 *     7.2535 *     7.8414 *  0.0000     4          
   186  Li    c    -10.3895 *    -4.5085 *     3.9207 *  0.0000     4          
   187  O     c      3.3328 *    -8.4292 *     7.8414 *  0.0000     4          
   188  Cl    c     -2.5482 *    -6.4688 *     9.8017 *  0.0000     4          
   189  Cl    c      1.3725 *   -10.3895 *     5.8810 *  0.0000     4          
   190  Li    c     -2.5482 *    -0.5878 *    11.7620 *  0.0000     4          
   191  O     c     11.1742 *    -4.5085 *     0.0000    0.0000     2          
   192  Li    c     -8.4292 *    -8.4292      -1.9603 *  0.0000     2          
   193  Li    c      9.2139 *    -0.5878 *     7.8414 *  0.0000     4          
   194  Li    c     -2.5482 *    11.1742 *     3.9207 *  0.0000     4          
   195  Cl    c      5.2932 *     9.2139 *     5.8810 *  0.0000     4          
   196  Cl    c     -2.5482 *   -10.3895 *     5.8810 *  0.0000     4          
   197  Li    c     -0.5878 *     7.2535 *     9.8017 *  0.0000     4          
   198  Li    c     11.1742 *    -4.5085 *    -1.9603 *  0.0000     4          
   199  O     c     -0.5878 *     3.3328 *    11.7620 *  0.0000     4          
   200  Li    c      1.3725 *     3.3328 *    11.7620 *  0.0000     4          
   201  O     c      3.3328 *    11.1742 *     3.9207 *  0.0000     4          
   202  Cl    c      5.2932 *     5.2932       9.8017 *  0.0000     2          
   203  O     c     -0.5878 *   -12.3499 *     0.0000    0.0000     2          
   204  O     c     -4.5085 *    -8.4292 *     7.8414 *  0.0000     4          
   205  Li    c      9.2139 *     7.2535 *     3.9207 *  0.0000     4          
   206  Li    c      5.2932 *    11.1742 *     0.0000    0.0000     2          
   207  Cl    c     -6.4688 *   -10.3895 *    -1.9603 *  0.0000     4          
   208  Li    c      1.3725 *   -12.3499 *     0.0000    0.0000     2          
   209  Li    c     -2.5482 *     3.3328 *    11.7620 *  0.0000     4          
   210  Li    c      9.2139 *    -8.4292 *     0.0000    0.0000     2          
   211  Li    c     -6.4688 *     7.2535 *     7.8414 *  0.0000     4          
   212  Li    c     -0.5878 *   -12.3499 *    -1.9603 *  0.0000     4          
   213  O     c     -8.4292 *    -8.4292       3.9207 *  0.0000     2          
   214  Li    c      9.2139 *     3.3328 *     7.8414 *  0.0000     4          
   215  Li    c      7.2535 *    -8.4292 *     5.8810 *  0.0000     4          
   216  Li    c     -2.5482 *   -12.3499 *     0.0000    0.0000     2          
   217  O     c     -0.5878 *    -4.5085 *    11.7620 *  0.0000     4          
   218  Li    c      3.3328 *     7.2535 *     9.8017 *  0.0000     4          
   219  Li    c     -0.5878 *    11.1742 *     5.8810 *  0.0000     4          
   220  Li    c      1.3725 *    -4.5085 *    11.7620 *  0.0000     4          
   221  Li    c    -10.3895 *     7.2535 *     0.0000    0.0000     2          
   222  Li    c      5.2932 *    -8.4292 *     7.8414 *  0.0000     4          
   223  O     c      3.3328 *     3.3328      11.7620 *  0.0000     2          
   224  O     c     11.1742 *    -4.5085 *     3.9207 *  0.0000     4          
   225  Cl    c      9.2139 *    -6.4688 *     5.8810 *  0.0000     4          
   226  O     c      3.3328 *   -12.3499 *     0.0000    0.0000     2          
   227  Li    c     -2.5482 *    -4.5085 *    11.7620 *  0.0000     4          
   228  Cl    c      5.2932 *    -6.4688 *     9.8017 *  0.0000     4          
   229  Li    c      5.2932 *    -0.5878 *    11.7620 *  0.0000     4          
   230  Li    c      9.2139 *    -4.5085 *     7.8414 *  0.0000     4          
   231  Li    c     -6.4688 *    11.1742 *     0.0000    0.0000     2          
   232  O     c      7.2535 *     7.2535       7.8414 *  0.0000     2          
   233  Li    c     -0.5878 *    -8.4292 *     9.8017 *  0.0000     4          
   234  Li    c      3.3328 *   -12.3499 *    -1.9603 *  0.0000     4          
   235  O     c     -0.5878 *   -12.3499 *     3.9207 *  0.0000     4          
   236  Li    c      5.2932 *    11.1742 *     3.9207 *  0.0000     4          
   237  Li    c      7.2535 *    -4.5085 *     9.8017 *  0.0000     4          
   238  Li    c      1.3725 *   -12.3499 *     3.9207 *  0.0000     4          
   239  Li    c    -10.3895 *    -0.5878 *     7.8414 *  0.0000     4          
   240  O     c      3.3328 *    -4.5085 *    11.7620 *  0.0000     4          
   241  Cl    c      5.2932 *   -10.3895 *     5.8810 *  0.0000     4          
   242  Li    c      3.3328 *    11.1742 *     5.8810 *  0.0000     4          
   243  Li    c      9.2139 *    -8.4292 *     3.9207 *  0.0000     4          
   244  O     c     -4.5085 *   -12.3499 *     0.0000    0.0000     2          
   245  Li    c     13.1345 *    -0.5878 *     0.0000    0.0000     2          
   246  Cl    c      9.2139 *     9.2139      -1.9603 *  0.0000     2          
   247  Li    c     -2.5482 *   -12.3499 *     3.9207 *  0.0000     4          
   248  Li    c     -6.4688 *    -8.4292 *     7.8414 *  0.0000     4          
   249  Li    c    -10.3895 *     7.2535 *     3.9207 *  0.0000     4          
   250  Li    c     -4.5085 *   -12.3499 *    -1.9603 *  0.0000     4          
   251  Li    c     -8.4292 *    -8.4292       5.8810 *  0.0000     2          
   252  Li    c      5.2932 *     3.3328 *    11.7620 *  0.0000     4          
   253  O     c      7.2535 *    11.1742 *     0.0000    0.0000     2          
   254  Li    c      3.3328 *    -8.4292 *     9.8017 *  0.0000     4          
   255  Cl    c      1.3725 *    13.1345 *    -1.9603 *  0.0000     4          
   256  Li    c    -10.3895 *    -8.4292 *     0.0000    0.0000     2          
   257  O     c     -4.5085 *    -4.5085      11.7620 *  0.0000     2          
   258  O     c      3.3328 *   -12.3499 *     3.9207 *  0.0000     4          
   259  Cl    c     -6.4688 *    -6.4688       9.8017 *  0.0000     2          
   260  Li    c     11.1742 *    -4.5085 *     5.8810 *  0.0000     4          
   261  Li    c     -6.4688 *    -0.5878 *    11.7620 *  0.0000     4          
   262  Li    c    -10.3895 *     3.3328 *     7.8414 *  0.0000     4          
   263  Li    c      5.2932 *   -12.3499 *     0.0000    0.0000     2          
   264  Li    c      7.2535 *    11.1742 *    -1.9603 *  0.0000     4          
   265  Li    c     -6.4688 *    11.1742 *     3.9207 *  0.0000     4          
   266  Cl    c      1.3725 *     9.2139 *     9.8017 *  0.0000     4          
   267  Cl    c     13.1345 *    -2.5482 *    -1.9603 *  0.0000     4          
   268  Li    c     13.1345 *     3.3328 *     0.0000    0.0000     2          
   269  Cl    c     -6.4688 *   -10.3895 *     5.8810 *  0.0000     4          
   270  O     c      7.2535 *    -8.4292 *     7.8414 *  0.0000     4          
   271  Li    c      5.2932 *    -4.5085 *    11.7620 *  0.0000     4          
   272  O     c     -0.5878 *    11.1742 *     7.8414 *  0.0000     4          
   273  Li    c     -0.5878 *   -12.3499 *     5.8810 *  0.0000     4          
   274  Li    c     -4.5085 *    -8.4292 *     9.8017 *  0.0000     4          
   275  Cl    c      9.2139 *    -2.5482 *     9.8017 *  0.0000     4          
   276  O     c     -4.5085 *   -12.3499 *     3.9207 *  0.0000     4          
   277  Li    c     13.1345 *    -0.5878 *     3.9207 *  0.0000     4          
   278  Li    c      1.3725 *    11.1742 *     7.8414 *  0.0000     4          
   279  Li    c     -0.5878 *    -0.5878      13.7224 *  0.0000     2          
   280  Li    c    -10.3895 *    -4.5085 *     7.8414 *  0.0000     4          
   281  Li    c     -6.4688 *     3.3328 *    11.7620 *  0.0000     4          
   282  O     c     -0.5878 *     7.2535 *    11.7620 *  0.0000     4          
   283  Cl    c      1.3725 *     1.3725      13.7224 *  0.0000     2          
   284  Li    c      1.3725 *     7.2535 *    11.7620 *  0.0000     4          
   285  Li    c     13.1345 *    -4.5085 *     0.0000    0.0000     2          
   286  Li    c     -2.5482 *    11.1742 *     7.8414 *  0.0000     4          
   287  O     c      7.2535 *    11.1742 *     3.9207 *  0.0000     4          
   288  Li    c     -6.4688 *   -12.3499 *     0.0000    0.0000     2          
   289  Li    c    -10.3895 *    -8.4292 *     3.9207 *  0.0000     4          
   290  Li    c      5.2932 *   -12.3499 *     3.9207 *  0.0000     4          
   291  O     c     11.1742 *    -8.4292 *     0.0000    0.0000     2          
   292  Cl    c      1.3725 *    -2.5482 *    13.7224 *  0.0000     4          
   293  Cl    c      9.2139 *   -10.3895 *    -1.9603 *  0.0000     4          
   294  Li    c     -2.5482 *     7.2535 *    11.7620 *  0.0000     4          
   295  O     c      3.3328 *    11.1742 *     7.8414 *  0.0000     4          
   296  Li    c      3.3328 *   -12.3499 *     5.8810 *  0.0000     4          
   297  Li    c      9.2139 *     7.2535 *     7.8414 *  0.0000     4          
   298  Li    c     13.1345 *     3.3328 *     3.9207 *  0.0000     4          
   299  Li    c     -0.5878 *     3.3328 *    13.7224 *  0.0000     4          
   300  Li    c     11.1742 *    -8.4292 *    -1.9603 *  0.0000     4          
   301  Li    c     -6.4688 *    -4.5085 *    11.7620 *  0.0000     4          
   302  Cl    c     -2.5482 *    -2.5482      13.7224 *  0.0000     2          
   303  Li    c      7.2535 *     7.2535       9.8017 *  0.0000     2          
   304  O     c      3.3328 *     7.2535 *    11.7620 *  0.0000     4          
   305  O     c     -8.4292 *    -8.4292       7.8414 *  0.0000     2          
   306  Cl    c      9.2139 *     9.2139       5.8810 *  0.0000     2          
   307  Cl    c      5.2932 *    13.1345 *    -1.9603 *  0.0000     4          
   308  Li    c    -14.3102 *    -0.5878 *     0.0000    0.0000     2          
   309  O     c      7.2535 *   -12.3499 *     0.0000    0.0000     2          
   310  Cl    c      1.3725 *   -10.3895 *     9.8017 *  0.0000     4          
   311  O     c     11.1742 *    -4.5085 *     7.8414 *  0.0000     4          
   312  Li    c     -4.5085 *   -12.3499 *     5.8810 *  0.0000     4          
   313  Li    c     13.1345 *    -4.5085 *     3.9207 *  0.0000     4          
   314  Li    c     -0.5878 *    -4.5085 *    13.7224 *  0.0000     4          
   315  Li    c      7.2535 *   -12.3499 *    -1.9603 *  0.0000     4          
   316  Cl    c      1.3725 *    13.1345 *     5.8810 *  0.0000     4          
   317  Cl    c      5.2932 *     9.2139 *     9.8017 *  0.0000     4          
   318  Li    c     -6.4688 *   -12.3499 *     3.9207 *  0.0000     4          
   319  O     c     -0.5878 *    -8.4292 *    11.7620 *  0.0000     4          
   320  Li    c      9.2139 *    11.1742 *     0.0000    0.0000     2          
   321  Cl    c      1.3725 *   -14.3102 *    -1.9603 *  0.0000     4          
   322  Cl    c     -2.5482 *   -10.3895 *     9.8017 *  0.0000     4          
   323  Li    c      3.3328 *     3.3328      13.7224 *  0.0000     2          
   324  Li    c      1.3725 *    -8.4292 *    11.7620 *  0.0000     4          
   325  O     c      7.2535 *    -4.5085 *    11.7620 *  0.0000     4          
   326  O     c     11.1742 *    -8.4292 *     3.9207 *  0.0000     4          
   327  Li    c      7.2535 *    11.1742 *     5.8810 *  0.0000     4          
   328  Cl    c     13.1345 *    -2.5482 *     5.8810 *  0.0000     4          
   329  O     c     -0.5878 *   -12.3499 *     7.8414 *  0.0000     4          
   330  Li    c      5.2932 *    11.1742 *     7.8414 *  0.0000     4          
   331  Cl    c     -2.5482 *   -14.3102 *    -1.9603 *  0.0000     4          
   332  Li    c     -2.5482 *    -8.4292 *    11.7620 *  0.0000     4          
   333  Li    c      1.3725 *   -12.3499 *     7.8414 *  0.0000     4          
   334  Li    c    -14.3102 *     3.3328 *     0.0000    0.0000     2          
   335  Li    c      9.2139 *    -8.4292 *     7.8414 *  0.0000     4          
   336  Cl    c      1.3725 *     5.2932 *    13.7224 *  0.0000     4          
   337  Cl    c     13.1345 *    -6.4688 *    -1.9603 *  0.0000     4          
   338  Li    c      5.2932 *     7.2535 *    11.7620 *  0.0000     4          
   339  Cl    c    -10.3895 *   -10.3895      -1.9603 *  0.0000     2          
   340  Li    c      3.3328 *    -4.5085 *    13.7224 *  0.0000     4          
   341  Li    c      7.2535 *    -8.4292 *     9.8017 *  0.0000     4          
   342  Li    c    -14.3102 *    -0.5878 *     3.9207 *  0.0000     4          
   343  Li    c     -2.5482 *   -12.3499 *     7.8414 *  0.0000     4          
   344  O     c      3.3328 *    -8.4292 *    11.7620 *  0.0000     4          
   345  O     c      7.2535 *   -12.3499 *     3.9207 *  0.0000     4          
   346  Li    c     -0.5878 *    11.1742 *     9.8017 *  0.0000     4          
   347  Li    c    -10.3895 *     7.2535 *     7.8414 *  0.0000     4          
   348  Cl    c      5.2932 *    -2.5482 *    13.7224 *  0.0000     4          
   349  Cl    c      9.2139 *    -6.4688 *     9.8017 *  0.0000     4          
   350  O     c     -8.4292 *   -12.3499 *     0.0000    0.0000     2          
   351  Li    c      9.2139 *    -0.5878 *    11.7620 *  0.0000     4          
   352  Li    c    -14.3102 *    -4.5085 *     0.0000    0.0000     2          
   353  O     c      3.3328 *   -12.3499 *     7.8414 *  0.0000     4          
   354  Li    c      9.2139 *    11.1742 *     3.9207 *  0.0000     4          
   355  Li    c     13.1345 *     7.2535 *     0.0000    0.0000     2          
   356  Li    c     -8.4292 *   -12.3499 *    -1.9603 *  0.0000     4          
   357  Cl    c      9.2139 *   -10.3895 *     5.8810 *  0.0000     4          
   358  Li    c     -6.4688 *    11.1742 *     7.8414 *  0.0000     4          
   359  O     c     -0.5878 *    15.0949 *     0.0000    0.0000     2          
   360  Li    c     -4.5085 *    -4.5085      13.7224 *  0.0000     2          
   361  O     c     -4.5085 *    -8.4292 *    11.7620 *  0.0000     4          
   362  Li    c      1.3725 *    15.0949 *     0.0000    0.0000     2          
   363  Li    c     11.1742 *    -8.4292 *     5.8810 *  0.0000     4          
   364  Li    c    -14.3102 *     3.3328 *     3.9207 *  0.0000     4          
   365  Cl    c      1.3725 *    -6.4688 *    13.7224 *  0.0000     4          
   366  Cl    c      5.2932 *   -10.3895 *     9.8017 *  0.0000     4          
   367  Li    c      3.3328 *    11.1742 *     9.8017 *  0.0000     4          
   368  Li    c     -0.5878 *    15.0949 *    -1.9603 *  0.0000     4          
   369  Li    c     -6.4688 *     7.2535 *    11.7620 *  0.0000     4          
   370  Li    c    -10.3895 *    11.1742 *     0.0000    0.0000     2          
   371  O     c     -4.5085 *   -12.3499 *     7.8414 *  0.0000     4          
   372  Li    c      9.2139 *     3.3328 *    11.7620 *  0.0000     4          
   373  Li    c     13.1345 *    -0.5878 *     7.8414 *  0.0000     4          
   374  Li    c     -2.5482 *    15.0949 *     0.0000    0.0000     2          
   375  Cl    c      5.2932 *    13.1345 *     5.8810 *  0.0000     4          
   376  Cl    c     -2.5482 *    -6.4688 *    13.7224 *  0.0000     4          
   377  Cl    c      5.2932 *   -14.3102 *    -1.9603 *  0.0000     4          
   378  Li    c      5.2932 *    -8.4292 *    11.7620 *  0.0000     4          
   379  Li    c      9.2139 *   -12.3499 *     0.0000    0.0000     2          
   380  Li    c     -8.4292 *    -8.4292       9.8017 *  0.0000     2          
   381  O     c     -8.4292 *   -12.3499 *     3.9207 *  0.0000     4          
   382  O     c      7.2535 *    11.1742 *     7.8414 *  0.0000     4          
   383  O     c      3.3328 *    15.0949 *     0.0000    0.0000     2          
   384  Li    c      7.2535 *   -12.3499 *     5.8810 *  0.0000     4          
   385  Li    c    -14.3102 *    -4.5085 *     3.9207 *  0.0000     4          
   386  Li    c    -10.3895 *    -8.4292 *     7.8414 *  0.0000     4          
   387  Li    c     13.1345 *     7.2535 *     3.9207 *  0.0000     4          
   388  Cl    c      1.3725 *   -14.3102 *     5.8810 *  0.0000     4          
   389  Li    c     -0.5878 *     7.2535 *    13.7224 *  0.0000     4          
   390  Li    c     11.1742 *    -4.5085 *     9.8017 *  0.0000     4          
   391  Li    c      5.2932 *   -12.3499 *     7.8414 *  0.0000     4          
   392  Li    c      3.3328 *    15.0949 *    -1.9603 *  0.0000     4          
   393  Li    c      9.2139 *    -4.5085 *    11.7620 *  0.0000     4          
   394  Li    c     13.1345 *    -8.4292 *     0.0000    0.0000     2          
   395  O     c      7.2535 *     7.2535      11.7620 *  0.0000     2          
   396  O     c     -0.5878 *    15.0949 *     3.9207 *  0.0000     4          
   397  Cl    c      5.2932 *     5.2932      13.7224 *  0.0000     2          
   398  Li    c      1.3725 *    15.0949 *     3.9207 *  0.0000     4          
   399  Li    c     13.1345 *     3.3328 *     7.8414 *  0.0000     4          
   400  Cl    c     -2.5482 *   -14.3102 *     5.8810 *  0.0000     4          
   401  Cl    c     -6.4688 *   -10.3895 *     9.8017 *  0.0000     4          
   402  Li    c    -10.3895 *    -0.5878 *    11.7620 *  0.0000     4          
   403  O     c     -0.5878 *    -0.5878      15.6827 *  0.0000     2          
   404  Li    c    -10.3895 *    11.1742 *     3.9207 *  0.0000     4          
   405  Li    c      1.3725 *    -0.5878 *    15.6827 *  0.0000     4          
   406  O     c     15.0949 *    -4.5085 *     0.0000    0.0000     2          
   407  Li    c     -0.5878 *   -12.3499 *     9.8017 *  0.0000     4          
   408  Cl    c     13.1345 *    -6.4688 *     5.8810 *  0.0000     4          
   409  Li    c     -2.5482 *    15.0949 *     3.9207 *  0.0000     4          
   410  O     c     11.1742 *    11.1742       0.0000    0.0000     1          
   411  Cl    c     -6.4688 *   -14.3102 *    -1.9603 *  0.0000     4          
   412  Cl    c    -10.3895 *   -10.3895       5.8810 *  0.0000     2          
   413  Li    c     -6.4688 *    -8.4292 *    11.7620 *  0.0000     4          
   414  Li    c      3.3328 *     7.2535 *    13.7224 *  0.0000     4          
   415  Li    c     15.0949 *    -4.5085 *    -1.9603 *  0.0000     4          
   416  Li    c     -2.5482 *    -0.5878 *    15.6827 *  0.0000     4          
   417  Li    c      9.2139 *   -12.3499 *     3.9207 *  0.0000     4          
   418  Li    c     11.1742 *    11.1742      -1.9603 *  0.0000     2          
   419  Li    c     13.1345 *    -4.5085 *     7.8414 *  0.0000     4          
   420  O     c      3.3328 *    15.0949 *     3.9207 *  0.0000     4          
   421  Li    c     -6.4688 *   -12.3499 *     7.8414 *  0.0000     4          
   422  Li    c      5.2932 *    15.0949 *     0.0000    0.0000     2          
   423  Li    c    -10.3895 *     3.3328 *    11.7620 *  0.0000     4          
   424  Li    c    -14.3102 *     7.2535 *     0.0000    0.0000     2          
   425  O     c     -0.5878 *     3.3328 *    15.6827 *  0.0000     4          
   426  O     c     11.1742 *    -8.4292 *     7.8414 *  0.0000     4          
   427  Li    c     -8.4292 *   -12.3499 *     5.8810 *  0.0000     4          
   428  Cl    c      5.2932 *    -6.4688 *    13.7224 *  0.0000     4          
   429  Li    c      1.3725 *     3.3328 *    15.6827 *  0.0000     4          
   430  Li    c     13.1345 *    -8.4292 *     3.9207 *  0.0000     4          
   431  Li    c     -0.5878 *    -8.4292 *    13.7224 *  0.0000     4          
   432  Li    c      3.3328 *   -12.3499 *     9.8017 *  0.0000     4          
   433  Li    c    -10.3895 *   -12.3499 *     0.0000    0.0000     2          
   434  Li    c      7.2535 *    -4.5085 *    13.7224 *  0.0000     4          
   435  Cl    c      9.2139 *    13.1345 *    -1.9603 *  0.0000     4          
   436  O     c      7.2535 *    -8.4292 *    11.7620 *  0.0000     4          
   437  Li    c     -0.5878 *    15.0949 *     5.8810 *  0.0000     4          
   438  Li    c     -2.5482 *     3.3328 *    15.6827 *  0.0000     4          
   439  O     c     -0.5878 *    11.1742 *    11.7620 *  0.0000     4          
   440  O     c     15.0949 *    -4.5085 *     3.9207 *  0.0000     4          
   441  O     c     -0.5878 *   -16.2705 *     0.0000    0.0000     2          
   442  Li    c      1.3725 *    11.1742 *    11.7620 *  0.0000     4          
   443  O     c     11.1742 *    11.1742       3.9207 *  0.0000     2          
   444  Cl    c      9.2139 *     9.2139       9.8017 *  0.0000     2          
   445  Li    c      1.3725 *   -16.2705 *     0.0000    0.0000     2          
   446  Li    c    -10.3895 *    -4.5085 *    11.7620 *  0.0000     4          
   447  Li    c    -14.3102 *    -0.5878 *     7.8414 *  0.0000     4          
   448  O     c     -0.5878 *    -4.5085 *    15.6827 *  0.0000     4          
   449  O     c      7.2535 *   -12.3499 *     7.8414 *  0.0000     4          
   450  Cl    c      5.2932 *   -14.3102 *     5.8810 *  0.0000     4          
   451  Li    c      1.3725 *    -4.5085 *    15.6827 *  0.0000     4          
   452  O     c      3.3328 *     3.3328      15.6827 *  0.0000     2          
   453  Li    c     -4.5085 *   -12.3499 *     9.8017 *  0.0000     4          
   454  Li    c     -0.5878 *   -16.2705 *    -1.9603 *  0.0000     4          
   455  Li    c     -2.5482 *    11.1742 *    11.7620 *  0.0000     4          
   456  Li    c     -6.4688 *    15.0949 *     0.0000    0.0000     2          
   457  Li    c      3.3328 *    -8.4292 *    13.7224 *  0.0000     4          
   458  Cl    c      1.3725 *    13.1345 *     9.8017 *  0.0000     4          
   459  Li    c     -2.5482 *   -16.2705 *     0.0000    0.0000     2          
   460  Li    c      5.2932 *    15.0949 *     3.9207 *  0.0000     4          
   461  Li    c      9.2139 *    11.1742 *     7.8414 *  0.0000     4          
   462  Cl    c     -6.4688 *    -6.4688      13.7224 *  0.0000     2          
   463  Li    c     -2.5482 *    -4.5085 *    15.6827 *  0.0000     4          
   464  Li    c    -14.3102 *     7.2535 *     3.9207 *  0.0000     4          
   465  Li    c      7.2535 *    11.1742 *     9.8017 *  0.0000     4          
   466  Li    c      3.3328 *    15.0949 *     5.8810 *  0.0000     4          
   467  Li    c      5.2932 *    -0.5878 *    15.6827 *  0.0000     4          
   468  O     c      3.3328 *    11.1742 *    11.7620 *  0.0000     4          
   469  Cl    c      1.3725 *     9.2139 *    13.7224 *  0.0000     4          
   470  Cl    c     13.1345 *    -2.5482 *     9.8017 *  0.0000     4          
   471  Li    c    -10.3895 *   -12.3499 *     3.9207 *  0.0000     4          
   472  Li    c    -14.3102 *    -8.4292 *     0.0000    0.0000     2          
   473  O     c      3.3328 *   -16.2705 *     0.0000    0.0000     2          
   474  Li    c      9.2139 *     7.2535 *    11.7620 *  0.0000     4          
   475  Li    c    -14.3102 *     3.3328 *     7.8414 *  0.0000     4          
   476  O     c      3.3328 *    -4.5085 *    15.6827 *  0.0000     4          
   477  O     c     11.1742 *   -12.3499 *     0.0000    0.0000     2          
   478  Li    c     -4.5085 *    -8.4292 *    13.7224 *  0.0000     4          
   479  Li    c      3.3328 *   -16.2705 *    -1.9603 *  0.0000     4          
   480  Cl    c      9.2139 *    -2.5482 *    13.7224 *  0.0000     4          
   481  O     c     -0.5878 *   -16.2705 *     3.9207 *  0.0000     4          
   482  O     c     -8.4292 *    -8.4292      11.7620 *  0.0000     2          
   483  O     c      7.2535 *    15.0949 *     0.0000    0.0000     2          
   484  Cl    c     -6.4688 *   -14.3102 *     5.8810 *  0.0000     4          
   485  Li    c     11.1742 *   -12.3499 *    -1.9603 *  0.0000     4          
   486  Li    c      1.3725 *   -16.2705 *     3.9207 *  0.0000     4          
   487  Li    c     15.0949 *    -4.5085 *     5.8810 *  0.0000     4          
   488  O     c     11.1742 *    -4.5085 *    11.7620 *  0.0000     4          
   489  Cl    c     13.1345 *   -10.3895 *    -1.9603 *  0.0000     4          
   490  Li    c      7.2535 *    15.0949 *    -1.9603 *  0.0000     4          
   491  Li    c     11.1742 *    11.1742       5.8810 *  0.0000     2          
   492  O     c     -4.5085 *   -16.2705 *     0.0000    0.0000     2          
   493  O     c     -8.4292 *   -12.3499 *     7.8414 *  0.0000     4          
   494  Li    c      5.2932 *     3.3328 *    15.6827 *  0.0000     4          
   495  Li    c     -6.4688 *    15.0949 *     3.9207 *  0.0000     4          
   496  Li    c     -2.5482 *   -16.2705 *     3.9207 *  0.0000     4          
   497  Li    c    -14.3102 *    -4.5085 *     7.8414 *  0.0000     4          
   498  O     c     -4.5085 *    -4.5085      15.6827 *  0.0000     2          
   499  Li    c     13.1345 *     7.2535 *     7.8414 *  0.0000     4          
   500  Li    c     -6.4688 *    -0.5878 *    15.6827 *  0.0000     4          
   501  Li    c     -4.5085 *   -16.2705 *    -1.9603 *  0.0000     4          
   502  Cl    c      9.2139 *   -10.3895 *     9.8017 *  0.0000     4          
   503  O     c     -0.5878 *    15.0949 *     7.8414 *  0.0000     4          
   504  Li    c    -14.3102 *    -8.4292 *     3.9207 *  0.0000     4          
   505  O     c     -0.5878 *   -12.3499 *    11.7620 *  0.0000     4          
   506  O     c      3.3328 *   -16.2705 *     3.9207 *  0.0000     4          
   507  Li    c      1.3725 *    15.0949 *     7.8414 *  0.0000     4          
   508  Li    c      5.2932 *    11.1742 *    11.7620 *  0.0000     4          
   509  Li    c     17.0552 *    -0.5878 *     0.0000    0.0000     2          
   510  Li    c     11.1742 *    -8.4292 *     9.8017 *  0.0000     4          
   511  Cl    c      9.2139 *    13.1345 *     5.8810 *  0.0000     4          
   512  Li    c      1.3725 *   -12.3499 *    11.7620 *  0.0000     4          
   513  Li    c      5.2932 *   -16.2705 *     0.0000    0.0000     2          
   514  O     c     11.1742 *   -12.3499 *     3.9207 *  0.0000     4          
   515  Cl    c      9.2139 *   -14.3102 *    -1.9603 *  0.0000     4          
   516  Li    c      7.2535 *     7.2535      13.7224 *  0.0000     2          
   517  Li    c      9.2139 *    -8.4292 *    11.7620 *  0.0000     4          
   518  Li    c    -10.3895 *    11.1742 *     7.8414 *  0.0000     4          
   519  Li    c      5.2932 *    -4.5085 *    15.6827 *  0.0000     4          
   520  Li    c     -2.5482 *    15.0949 *     7.8414 *  0.0000     4          
   521  O     c      7.2535 *    15.0949 *     3.9207 *  0.0000     4          
   522  Cl    c      5.2932 *    13.1345 *     9.8017 *  0.0000     4          
   523  Cl    c      1.3725 *    17.0552 *    -1.9603 *  0.0000     4          
   524  Li    c     -2.5482 *   -12.3499 *    11.7620 *  0.0000     4          
   525  Li    c     13.1345 *    11.1742 *     0.0000    0.0000     2          
   526  Cl    c      1.3725 *   -10.3895 *    13.7224 *  0.0000     4          
   527  Li    c      9.2139 *   -12.3499 *     7.8414 *  0.0000     4          
   528  Li    c     -6.4688 *     3.3328 *    15.6827 *  0.0000     4          
   529  Li    c    -10.3895 *     7.2535 *    11.7620 *  0.0000     4          
   530  O     c     -0.5878 *     7.2535 *    15.6827 *  0.0000     4          
   531  O     c     15.0949 *    -8.4292 *     0.0000    0.0000     2          
   532  Li    c     -0.5878 *   -16.2705 *     5.8810 *  0.0000     4          
   533  O     c     -4.5085 *   -16.2705 *     3.9207 *  0.0000     4          
   534  Li    c      1.3725 *     7.2535 *    15.6827 *  0.0000     4          
   535  O     c      3.3328 *    15.0949 *     7.8414 *  0.0000     4          
   536  Li    c      7.2535 *   -12.3499 *     9.8017 *  0.0000     4          
   537  Cl    c      5.2932 *     9.2139 *    13.7224 *  0.0000     4          
   538  Cl    c     17.0552 *    -2.5482 *    -1.9603 *  0.0000     4          
   539  O     c      3.3328 *   -12.3499 *    11.7620 *  0.0000     4          
   540  Li    c     17.0552 *     3.3328 *     0.0000    0.0000     2          
   541  Cl    c      1.3725 *   -14.3102 *     9.8017 *  0.0000     4          
   542  Cl    c     -2.5482 *   -10.3895 *    13.7224 *  0.0000     4          
   543  Li    c     15.0949 *    -8.4292 *    -1.9603 *  0.0000     4          
   544  O     c    -12.3499 *   -12.3499       0.0000    0.0000     1          
   545  Li    c     -2.5482 *     7.2535 *    15.6827 *  0.0000     4          
   546  Li    c     13.1345 *    -8.4292 *     7.8414 *  0.0000     4          
   547  Li    c     -6.4688 *    11.1742 *    11.7620 *  0.0000     4          
   548  Li    c     -6.4688 *   -16.2705 *     0.0000    0.0000     2          
   549  Li    c     17.0552 *    -0.5878 *     3.9207 *  0.0000     4          
   550  Cl    c     -2.5482 *   -14.3102 *     9.8017 *  0.0000     4          
   551  Li    c      5.2932 *   -16.2705 *     3.9207 *  0.0000     4          
   552  Li    c     -6.4688 *    -4.5085 *    15.6827 *  0.0000     4          
   553  Li    c    -12.3499 *   -12.3499      -1.9603 *  0.0000     2          
   554  O     c      3.3328 *     7.2535 *    15.6827 *  0.0000     4          
   555  O     c     15.0949 *    -4.5085 *     7.8414 *  0.0000     4          
   556  Li    c      3.3328 *   -16.2705 *     5.8810 *  0.0000     4          
   557  Cl    c     13.1345 *    -6.4688 *     9.8017 *  0.0000     4          
   558  O     c     -4.5085 *   -12.3499 *    11.7620 *  0.0000     4          
   559  Li    c     13.1345 *    -0.5878 *    11.7620 *  0.0000     4          
   560  Li    c     17.0552 *    -4.5085 *     0.0000    0.0000     2          
   561  O     c     11.1742 *    11.1742       7.8414 *  0.0000     2          
   562  Cl    c    -10.3895 *   -10.3895       9.8017 *  0.0000     2          
   563  Li    c     -0.5878 *    -0.5878      17.6430 *  0.0000     2          
   564  Li    c      7.2535 *    -8.4292 *    13.7224 *  0.0000     4          
   565  Li    c     11.1742 *   -12.3499 *     5.8810 *  0.0000     4          
   566  Li    c      9.2139 *    15.0949 *     0.0000    0.0000     2          
   567  Li    c     13.1345 *    11.1742 *     3.9207 *  0.0000     4          
   568  Li    c     -0.5878 *    11.1742 *    13.7224 *  0.0000     4          
   569  O     c     15.0949 *    -8.4292 *     3.9207 *  0.0000     4          
   570  Cl    c      1.3725 *     1.3725      17.6430 *  0.0000     2          
   571  Cl    c      9.2139 *    -6.4688 *    13.7224 *  0.0000     4          
   572  Cl    c     13.1345 *   -10.3895 *     5.8810 *  0.0000     4          
   573  Li    c      7.2535 *    15.0949 *     5.8810 *  0.0000     4          
   574  O     c      7.2535 *    11.1742 *    11.7620 *  0.0000     4          
   575  Cl    c    -10.3895 *   -14.3102 *    -1.9603 *  0.0000     4          
   576  Li    c    -10.3895 *    -8.4292 *    11.7620 *  0.0000     4          
   577  O     c      7.2535 *   -16.2705 *     0.0000    0.0000     2          
   578  O     c     -0.5878 *    -8.4292 *    15.6827 *  0.0000     4          
   579  Li    c      5.2932 *    15.0949 *     7.8414 *  0.0000     4          
   580  Li    c     17.0552 *     3.3328 *     3.9207 *  0.0000     4          
   581  Li    c      5.2932 *   -12.3499 *    11.7620 *  0.0000     4          
   582  Li    c    -14.3102 *     7.2535 *     7.8414 *  0.0000     4          
   583  Li    c      1.3725 *    -8.4292 *    15.6827 *  0.0000     4          
   584  O     c      7.2535 *    -4.5085 *    15.6827 *  0.0000     4          
   585  Li    c     -4.5085 *   -16.2705 *     5.8810 *  0.0000     4          
   586  Li    c     -8.4292 *   -12.3499 *     9.8017 *  0.0000     4          
   587  Cl    c      1.3725 *    -2.5482 *    17.6430 *  0.0000     4          
   588  O     c    -12.3499 *   -12.3499       3.9207 *  0.0000     2          
   589  Li    c      7.2535 *   -16.2705 *    -1.9603 *  0.0000     4          
   590  Li    c     -6.4688 *   -16.2705 *     3.9207 *  0.0000     4          
   591  Li    c    -10.3895 *   -12.3499 *     7.8414 *  0.0000     4          
   592  Li    c     13.1345 *     3.3328 *    11.7620 *  0.0000     4          
   593  Li    c     -0.5878 *     3.3328 *    17.6430 *  0.0000     4          
   594  Cl    c      5.2932 *    17.0552 *    -1.9603 *  0.0000     4          
   595  Li    c     -2.5482 *    -8.4292 *    15.6827 *  0.0000     4          
   596  Cl    c      5.2932 *   -10.3895 *    13.7224 *  0.0000     4          
   597  Cl    c      9.2139 *   -14.3102 *     5.8810 *  0.0000     4          
   598  Cl    c     -2.5482 *    -2.5482      17.6430 *  0.0000     2          
   599  Li    c     -0.5878 *    15.0949 *     9.8017 *  0.0000     4          
   600  Li    c      3.3328 *    11.1742 *    13.7224 *  0.0000     4          
   601  Li    c     13.1345 *   -12.3499 *     0.0000    0.0000     2          
   602  O     c     -0.5878 *   -16.2705 *     7.8414 *  0.0000     4          
   603  Li    c      5.2932 *     7.2535 *    15.6827 *  0.0000     4          
   604  Li    c     17.0552 *    -4.5085 *     3.9207 *  0.0000     4          
   605  Cl    c      1.3725 *    17.0552 *     5.8810 *  0.0000     4          
   606  Li    c      1.3725 *   -16.2705 *     7.8414 *  0.0000     4          
   607  O     c      3.3328 *    -8.4292 *    15.6827 *  0.0000     4          
   608  Li    c      9.2139 *    15.0949 *     3.9207 *  0.0000     4          
   609  Cl    c      5.2932 *   -14.3102 *     9.8017 *  0.0000     4          
   610  Li    c    -14.3102 *    11.1742 *     0.0000    0.0000     2          
   611  Li    c     -8.4292 *    -8.4292      13.7224 *  0.0000     2          
   612  Li    c      9.2139 *    -0.5878 *    15.6827 *  0.0000     4          
   613  Li    c     13.1345 *    -4.5085 *    11.7620 *  0.0000     4          
   614  Li    c     -6.4688 *    15.0949 *     7.8414 *  0.0000     4          
   615  Li    c     -0.5878 *    -4.5085 *    17.6430 *  0.0000     4          
   616  Cl    c     17.0552 *    -2.5482 *     5.8810 *  0.0000     4          
   617  Li    c     -2.5482 *   -16.2705 *     7.8414 *  0.0000     4          
   618  Li    c     -6.4688 *   -12.3499 *    11.7620 *  0.0000     4          
   619  Li    c    -18.2309 *    -0.5878 *     0.0000    0.0000     2          
   620  O     c      7.2535 *   -16.2705 *     3.9207 *  0.0000     4          
   621  Li    c      3.3328 *     3.3328      17.6430 *  0.0000     2          
   622  Li    c     11.1742 *    -4.5085 *    13.7224 *  0.0000     4          
   623  Li    c     15.0949 *    -8.4292 *     5.8810 *  0.0000     4          
   624  O     c     11.1742 *    -8.4292 *    11.7620 *  0.0000     4          
   625  Li    c      3.3328 *    15.0949 *     9.8017 *  0.0000     4          
   626  O     c     -8.4292 *   -16.2705 *     0.0000    0.0000     2          
   627  Li    c    -10.3895 *    15.0949 *     0.0000    0.0000     2          
   628  Cl    c     17.0552 *    -6.4688 *    -1.9603 *  0.0000     4          
   629  Li    c    -14.3102 *    -8.4292 *     7.8414 *  0.0000     4          
   630  O     c      3.3328 *   -16.2705 *     7.8414 *  0.0000     4          
   631  O     c     -4.5085 *    -8.4292 *    15.6827 *  0.0000     4          
   632  Cl    c     -6.4688 *   -10.3895 *    13.7224 *  0.0000     4          
   633  Cl    c      1.3725 *   -18.2309 *    -1.9603 *  0.0000     4          
   634  O     c     11.1742 *   -12.3499 *     7.8414 *  0.0000     4          
   635  Li    c     -8.4292 *   -16.2705 *    -1.9603 *  0.0000     4          
   636  Li    c    -12.3499 *   -12.3499       5.8810 *  0.0000     2          
   637  Li    c     13.1345 *   -12.3499 *     3.9207 *  0.0000     4          
   638  Li    c     -6.4688 *     7.2535 *    15.6827 *  0.0000     4          
   639  Li    c     -0.5878 *   -12.3499 *    13.7224 *  0.0000     4          
   640  Cl    c      1.3725 *     5.2932 *    17.6430 *  0.0000     4          
   641  Li    c      9.2139 *     3.3328 *    15.6827 *  0.0000     4          
   642  O     c      7.2535 *    15.0949 *     7.8414 *  0.0000     4          
   643  Cl    c     -6.4688 *   -14.3102 *     9.8017 *  0.0000     4          
   644  Cl    c     -2.5482 *   -18.2309 *    -1.9603 *  0.0000     4          
   645  Li    c      3.3328 *    -4.5085 *    17.6430 *  0.0000     4          
   646  Li    c    -14.3102 *    -0.5878 *    11.7620 *  0.0000     4          
   647  Li    c    -18.2309 *     3.3328 *     0.0000    0.0000     2          
   648  O     c      7.2535 *   -12.3499 *    11.7620 *  0.0000     4          
   649  Li    c     17.0552 *     7.2535 *     0.0000    0.0000     2          
   650  Li    c     15.0949 *    -4.5085 *     9.8017 *  0.0000     4          
   651  Li    c      5.2932 *    -8.4292 *    15.6827 *  0.0000     4          
   652  Li    c    -14.3102 *    11.1742 *     3.9207 *  0.0000     4          
   653  Cl    c      5.2932 *    -2.5482 *    17.6430 *  0.0000     4          
   654  Li    c     11.1742 *    11.1742       9.8017 *  0.0000     2          
   655  O     c     -4.5085 *   -16.2705 *     7.8414 *  0.0000     4          
   656  Cl    c    -10.3895 *   -14.3102 *     5.8810 *  0.0000     4          
   657  Li    c    -18.2309 *    -0.5878 *     3.9207 *  0.0000     4          
   658  Li    c      9.2139 *    11.1742 *    11.7620 *  0.0000     4          
   659  Cl    c     13.1345 *    13.1345      -1.9603 *  0.0000     2          
   660  Li    c      9.2139 *   -16.2705 *     0.0000    0.0000     2          
   661  O     c     -8.4292 *   -16.2705 *     3.9207 *  0.0000     4          
   662  Li    c      9.2139 *    -4.5085 *    15.6827 *  0.0000     4          
   663  Li    c    -10.3895 *    15.0949 *     3.9207 *  0.0000     4          
   664  O     c      7.2535 *     7.2535      15.6827 *  0.0000     2          
   665  Li    c      7.2535 *   -16.2705 *     5.8810 *  0.0000     4          
   666  Li    c     -4.5085 *    -4.5085      17.6430 *  0.0000     2          
   667  Li    c      3.3328 *   -12.3499 *    13.7224 *  0.0000     4          
   668  Li    c    -18.2309 *    -4.5085 *     0.0000    0.0000     2          
   669  Li    c     17.0552 *    -0.5878 *     7.8414 *  0.0000     4          
   670  O     c     11.1742 *    15.0949 *     0.0000    0.0000     2          
   671  Cl    c      9.2139 *    13.1345 *     9.8017 *  0.0000     4          
   672  Cl    c      5.2932 *    17.0552 *     5.8810 *  0.0000     4          
   673  Li    c      5.2932 *   -16.2705 *     7.8414 *  0.0000     4          
   674  Li    c    -10.3895 *    -0.5878 *    15.6827 *  0.0000     4          
   675  Li    c    -14.3102 *     3.3328 *    11.7620 *  0.0000     4          
   676  Cl    c      1.3725 *    -6.4688 *    17.6430 *  0.0000     4          
   677  Li    c     11.1742 *    15.0949 *    -1.9603 *  0.0000     4          
   678  Li    c    -14.3102 *   -12.3499 *     0.0000    0.0000     2          
   679  Cl    c      9.2139 *     9.2139      13.7224 *  0.0000     2          
   680  Li    c     -6.4688 *    -8.4292 *    15.6827 *  0.0000     4          
   681  Li    c    -18.2309 *     3.3328 *     3.9207 *  0.0000     4          
   682  Li    c     13.1345 *    11.1742 *     7.8414 *  0.0000     4          
   683  Li    c     17.0552 *     7.2535 *     3.9207 *  0.0000     4          
   684  Cl    c     -2.5482 *    -6.4688 *    17.6430 *  0.0000     4          
   685  O     c     15.0949 *    -8.4292 *     7.8414 *  0.0000     4          
   686  Li    c     -4.5085 *   -12.3499 *    13.7224 *  0.0000     4          
   687  Li    c     -0.5878 *   -16.2705 *     9.8017 *  0.0000     4          
   688  O     c     -8.4292 *   -12.3499 *    11.7620 *  0.0000     4          
   689  Li    c     17.0552 *    -8.4292 *     0.0000    0.0000     2          
   690  O     c     -0.5878 *    19.0155 *     0.0000    0.0000     2          
   691  Cl    c      1.3725 *    13.1345 *    13.7224 *  0.0000     4          
   692  Li    c    -14.3102 *    -4.5085 *    11.7620 *  0.0000     4          
   693  Li    c     13.1345 *     7.2535 *    11.7620 *  0.0000     4          
   694  Li    c     17.0552 *     3.3328 *     7.8414 *  0.0000     4          
   695  Li    c      1.3725 *    19.0155 *     0.0000    0.0000     2          
   696  Cl    c      5.2932 *   -18.2309 *    -1.9603 *  0.0000     4          
   697  Li    c     -0.5878 *     7.2535 *    17.6430 *  0.0000     4          
   698  Li    c      9.2139 *   -16.2705 *     3.9207 *  0.0000     4          
   699  Li    c    -10.3895 *     3.3328 *    15.6827 *  0.0000     4          
[...]
   1046 y        -15.682702    -15.681013     0.001689    Cartesian   -0.01
   1046 z          7.841351      7.842248     0.000898    Cartesian    0.01
   1047 x          1.960338      1.963632     0.003295    Cartesian    0.17
   1047 y         17.643040     17.639626    -0.003413    Cartesian   -0.02
   1047 z          5.881013      5.881191     0.000178    Cartesian    0.00
   1048 x          3.920675      3.920173    -0.000502    Cartesian   -0.01
   1048 y         -7.841351     -7.841317     0.000034    Cartesian   -0.00
   1048 z         15.682702     15.682305    -0.000397    Cartesian   -0.00
   1049 x          5.881013      5.880208    -0.000805    Cartesian   -0.01
   1049 y        -13.722364    -13.716200     0.006164    Cartesian   -0.04
   1049 z          9.801689      9.799961    -0.001728    Cartesian   -0.02
   1050 x         17.643040     17.640244    -0.002796    Cartesian   -0.02
   1050 y         -1.960338     -1.957272     0.003065    Cartesian   -0.16
   1050 z          5.881013      5.881065     0.000051    Cartesian    0.00
   1051 x          7.841351      7.842756     0.001405    Cartesian    0.02
   1051 y        -15.682702    -15.681203     0.001499    Cartesian   -0.01
   1051 z          3.920675      3.920350    -0.000326    Cartesian   -0.01
   1052 x         11.762026     11.763748     0.001721    Cartesian    0.01
   1052 y         -7.841351     -7.841527    -0.000176    Cartesian    0.00
   1052 z         11.762026     11.763359     0.001332    Cartesian    0.01
   1053 x         -7.841351     -7.840401     0.000949    Cartesian   -0.01
   1053 y        -15.682702    -15.678879     0.003823    Cartesian   -0.02
   1053 z          0.000000      0.000000     0.000000    Cartesian    0.00
   1054 x         17.643040     17.640079    -0.002960    Cartesian   -0.02
   1054 y         -5.881013     -5.878408     0.002606    Cartesian   -0.04
   1054 z         -1.960338     -1.959476     0.000862    Cartesian   -0.04
   1055 x          3.920675      3.920338    -0.000338    Cartesian   -0.01
   1055 y        -15.682702    -15.680655     0.002047    Cartesian   -0.01
   1055 z          7.841351      7.842104     0.000753    Cartesian    0.01
   1056 x         -3.920675     -3.918348     0.002328    Cartesian   -0.06
   1056 y         -7.841351     -7.839268     0.002083    Cartesian   -0.03
   1056 z         15.682702     15.679048    -0.003654    Cartesian   -0.02
   1057 x         -5.881013     -5.875731     0.005282    Cartesian   -0.09
   1057 y         -9.801689     -9.794910     0.006778    Cartesian   -0.07
   1057 z         13.722364     13.714792    -0.007572    Cartesian   -0.06
   1058 x          1.960338      1.961175     0.000837    Cartesian    0.04
   1058 y        -17.643040    -17.635629     0.007411    Cartesian   -0.04
   1058 z         -1.960338     -1.959444     0.000893    Cartesian   -0.05
   1059 x         11.762026     11.764211     0.002184    Cartesian    0.02
   1059 y        -11.762026    -11.763273    -0.001246    Cartesian    0.01
   1059 z          7.841351      7.842433     0.001082    Cartesian    0.01
   1060 x          1.960338      1.962539     0.002201    Cartesian    0.11
   1060 y          5.881013      5.882934     0.001920    Cartesian    0.03
   1060 z         17.643040     17.636265    -0.006775    Cartesian   -0.04
   1061 x          7.841351      7.843701     0.002350    Cartesian    0.03
   1061 y         15.682702     15.685823     0.003121    Cartesian    0.02
   1061 z          7.841351      7.843567     0.002216    Cartesian    0.03
   1062 x         -5.881013     -5.876123     0.004890    Cartesian   -0.08
   1062 y        -13.722364    -13.713559     0.008805    Cartesian   -0.06
   1062 z          9.801689      9.797841    -0.003847    Cartesian   -0.04
   1063 x         -1.960338     -1.957874     0.002463    Cartesian   -0.13
   1063 y        -17.643040    -17.634915     0.008125    Cartesian   -0.05
   1063 z         -1.960338     -1.959554     0.000784    Cartesian   -0.04
   1064 x          7.841351      7.841097    -0.000254    Cartesian   -0.00
   1064 y        -11.762026    -11.762435    -0.000409    Cartesian    0.00
   1064 z         11.762026     11.763401     0.001375    Cartesian    0.01
   1065 x          5.881013      5.881093     0.000080    Cartesian    0.00
   1065 y         -1.960338     -1.957946     0.002392    Cartesian   -0.12
   1065 z         17.643040     17.636532    -0.006508    Cartesian   -0.04
   1066 x         -3.920675     -3.919442     0.001234    Cartesian   -0.03
   1066 y        -15.682702    -15.679613     0.003089    Cartesian   -0.02
   1066 z          7.841351      7.840271    -0.001080    Cartesian   -0.01
   1067 x         -9.801689     -9.795999     0.005690    Cartesian   -0.06
   1067 y        -13.722364    -13.713325     0.009040    Cartesian   -0.07
   1067 z          5.881013      5.877083    -0.003931    Cartesian   -0.07
   1068 x         13.722364     13.719861    -0.002503    Cartesian   -0.02
   1068 y         13.722364     13.719861    -0.002503    Cartesian   -0.02
   1068 z         -1.960338     -1.959597     0.000741    Cartesian   -0.04
   1069 x         -7.841351     -7.839647     0.001704    Cartesian   -0.02
   1069 y        -15.682702    -15.679022     0.003680    Cartesian   -0.02
   1069 z          3.920675      3.919650    -0.001026    Cartesian   -0.03
   1070 x          7.841351      7.843140     0.001789    Cartesian    0.02
   1070 y          7.841351      7.843140     0.001789    Cartesian    0.02
   1070 z         15.682702     15.684438     0.001736    Cartesian    0.01
   1071 x         11.762026     11.763310     0.001283    Cartesian    0.01
   1071 y         15.682702     15.682956     0.000254    Cartesian    0.00
   1071 z          0.000000      0.000000     0.000000    Cartesian    0.00
   1072 x          9.801689      9.802792     0.001103    Cartesian    0.01
   1072 y         13.722364     13.721629    -0.000735    Cartesian   -0.01
   1072 z          9.801689      9.798409    -0.003279    Cartesian   -0.03
   1073 x          5.881013      5.882984     0.001970    Cartesian    0.03
   1073 y         17.643040     17.637602    -0.005437    Cartesian   -0.03
   1073 z          5.881013      5.879958    -0.001055    Cartesian   -0.02
   1074 x          1.960338      1.961036     0.000698    Cartesian    0.04
   1074 y         -5.881013     -5.876696     0.004317    Cartesian   -0.07
   1074 z         17.643040     17.635311    -0.007729    Cartesian   -0.04
   1075 x          9.801689      9.802467     0.000779    Cartesian    0.01
   1075 y          9.801689      9.802467     0.000779    Cartesian    0.01
   1075 z         13.722364     13.719147    -0.003218    Cartesian   -0.02
   1076 x         -1.960338     -1.957845     0.002493    Cartesian   -0.13
   1076 y         -5.881013     -5.876517     0.004496    Cartesian   -0.08
   1076 z         17.643040     17.634389    -0.008650    Cartesian   -0.05
   1077 x         15.682702     15.683834     0.001132    Cartesian    0.01
   1077 y         -7.841351     -7.841665    -0.000314    Cartesian    0.00
   1077 z          7.841351      7.842055     0.000704    Cartesian    0.01
   1078 x         -7.841351     -7.838650     0.002701    Cartesian   -0.03
   1078 y        -11.762026    -11.757498     0.004528    Cartesian   -0.04
   1078 z         11.762026     11.758221    -0.003805    Cartesian   -0.03
   1079 x          0.000000      0.000569     0.000569    Cartesian    0.00
   1079 y         19.603377     19.603856     0.000479    Cartesian    0.00
   1079 z          0.000000      0.000000     0.000000    Cartesian    0.00
   1080 x          1.960338      1.962013     0.001675    Cartesian    0.09
   1080 y         13.722364     13.720720    -0.001644    Cartesian   -0.01
   1080 z         13.722364     13.717636    -0.004728    Cartesian   -0.03
   1081 x          5.881013      5.880106    -0.000907    Cartesian   -0.02
   1081 y        -17.643040    -17.634051     0.008989    Cartesian   -0.05
   1081 z         -1.960338     -1.959756     0.000581    Cartesian   -0.03
   1082 x        -11.762026    -11.756787     0.005239    Cartesian   -0.04
   1082 y        -11.762026    -11.756787     0.005239    Cartesian   -0.04
   1082 z          7.841351      7.837910    -0.003441    Cartesian   -0.04
   1083 x          0.000000      0.000863     0.000863    Cartesian    0.00
   1083 y         15.682702     15.681819    -0.000883    Cartesian   -0.01
   1083 z         11.762026     11.761081    -0.000946    Cartesian   -0.01
   1084 x          5.881013      5.881104     0.000091    Cartesian    0.00
   1084 y          5.881013      5.881104     0.000091    Cartesian    0.00
   1084 z         17.643040     17.634856    -0.008184    Cartesian   -0.05
   1085 x         13.722364     13.719776    -0.002588    Cartesian   -0.02
   1085 y         -1.960338     -1.956855     0.003483    Cartesian   -0.18
   1085 z         13.722364     13.716497    -0.005867    Cartesian   -0.04
   1086 x         17.643040     17.638198    -0.004842    Cartesian   -0.03
   1086 y         -5.881013     -5.877158     0.003855    Cartesian   -0.07
   1086 z          5.881013      5.879375    -0.001638    Cartesian   -0.03
   1087 x         11.762026     11.762012    -0.000014    Cartesian   -0.00
   1087 y         15.682702     15.682600    -0.000102    Cartesian   -0.00
   1087 z          3.920675      3.921328     0.000652    Cartesian    0.02
   1088 x          1.960338      1.961044     0.000706    Cartesian    0.04
   1088 y        -17.643040    -17.633753     0.009287    Cartesian   -0.05
   1088 z          5.881013      5.878462    -0.002551    Cartesian   -0.04
   1089 x          7.841351      7.839574    -0.001777    Cartesian   -0.02
   1089 y         -7.841351     -7.838811     0.002540    Cartesian   -0.03
   1089 z         15.682702     15.679394    -0.003308    Cartesian   -0.02
   1090 x          0.000000      0.000353     0.000353    Cartesian    0.00
   1090 y         11.762026     11.761162    -0.000865    Cartesian   -0.01
   1090 z         15.682702     15.680718    -0.001984    Cartesian   -0.01
   1091 x          3.920675      3.921581     0.000905    Cartesian    0.02
   1091 y         19.603377     19.604256     0.000879    Cartesian    0.00
   1091 z          0.000000      0.000000     0.000000    Cartesian    0.00
   1092 x         -1.960338     -1.958116     0.002222    Cartesian   -0.11
   1092 y        -17.643040    -17.633044     0.009996    Cartesian   -0.06
   1092 z          5.881013      5.878236    -0.002777    Cartesian   -0.05
   1093 x         13.722364     13.719954    -0.002410    Cartesian   -0.02
   1093 y         -9.801689     -9.797104     0.004585    Cartesian   -0.05
   1093 z          9.801689      9.799388    -0.002301    Cartesian   -0.02
   1094 x          0.000000      0.000536     0.000536    Cartesian    0.00
   1094 y         19.603377     19.603592     0.000215    Cartesian    0.00
   1094 z          3.920675      3.921129     0.000453    Cartesian    0.01
   1095 x          3.920675      3.921407     0.000731    Cartesian    0.02
   1095 y         15.682702     15.682249    -0.000452    Cartesian   -0.00
   1095 z         11.762026     11.761780    -0.000246    Cartesian   -0.00
   1096 x         -5.881013     -5.876611     0.004403    Cartesian   -0.07
   1096 y        -17.643040    -17.632106     0.010934    Cartesian   -0.06
   1096 z         -1.960338     -1.958999     0.001338    Cartesian   -0.07
   1097 x          7.841351      7.839965    -0.001386    Cartesian   -0.02
   1097 y        -15.682702    -15.678464     0.004237    Cartesian   -0.03
   1097 z          7.841351      7.839853    -0.001498    Cartesian   -0.02
   1098 x         13.722364     13.718117    -0.004247    Cartesian   -0.03
   1098 y         13.722364     13.718117    -0.004247    Cartesian   -0.03
   1098 z          5.881013      5.878291    -0.002722    Cartesian   -0.05
   1099 x          9.801689      9.800623    -0.001065    Cartesian   -0.01
   1099 y         17.643040     17.634632    -0.008408    Cartesian   -0.05
   1099 z         -1.960338     -1.959383     0.000954    Cartesian   -0.05
   1100 x         15.682702     15.680867    -0.001835    Cartesian   -0.01
   1100 y        -11.762026    -11.760326     0.001700    Cartesian   -0.01
   1100 z          0.000000      0.000000     0.000000    Cartesian    0.00
   1101 x          5.881013      5.879631    -0.001382    Cartesian   -0.02
   1101 y         -5.881013     -5.876646     0.004367    Cartesian   -0.07
   1101 z         17.643040     17.633874    -0.009165    Cartesian   -0.05
   1102 x          9.801689      9.798883    -0.002805    Cartesian   -0.03
   1102 y         -9.801689     -9.795934     0.005754    Cartesian   -0.06
   1102 z         13.722364     13.716054    -0.006310    Cartesian   -0.05
   1103 x         13.722364     13.718852    -0.003512    Cartesian   -0.03
   1103 y        -13.722364    -13.715907     0.006457    Cartesian   -0.05
   1103 z         -1.960338     -1.959275     0.001063    Cartesian   -0.05
   1104 x          3.920675      3.921443     0.000768    Cartesian    0.02
   1104 y         11.762026     11.761676    -0.000350    Cartesian   -0.00
   1104 z         15.682702     15.681367    -0.001335    Cartesian   -0.01
   1105 x         19.603377     19.601492    -0.001886    Cartesian   -0.01
   1105 y         -3.920675     -3.918831     0.001844    Cartesian   -0.05
   1105 z          0.000000      0.000000     0.000000    Cartesian    0.00
   1106 x          0.000000      0.000262     0.000262    Cartesian    0.00
   1106 y          0.000000      0.000262     0.000262    Cartesian *******
   1106 z         19.603377     19.601661    -0.001717    Cartesian   -0.01
   1107 x          9.801689      9.799196    -0.002493    Cartesian   -0.03
   1107 y        -13.722364    -13.714538     0.007827    Cartesian   -0.06
   1107 z          9.801689      9.798457    -0.003232    Cartesian   -0.03
   1108 x         15.682702     15.679846    -0.002856    Cartesian   -0.02
   1108 y         -3.920675     -3.918462     0.002214    Cartesian   -0.06
   1108 z         11.762026     11.759405    -0.002621    Cartesian   -0.02
   1109 x         -7.841351     -7.837364     0.003987    Cartesian   -0.05
   1109 y         -7.841351     -7.837364     0.003987    Cartesian   -0.05
   1109 z         15.682702     15.677007    -0.005695    Cartesian   -0.04
   1110 x          3.920675      3.920023    -0.000652    Cartesian   -0.02
   1110 y         19.603377     19.599887    -0.003490    Cartesian   -0.02
   1110 z          3.920675      3.919305    -0.001371    Cartesian   -0.03
   1111 x         11.762026     11.760495    -0.001532    Cartesian   -0.01
   1111 y         11.762026     11.760495    -0.001532    Cartesian   -0.01
   1111 z         11.762026     11.759900    -0.002126    Cartesian   -0.02
   1112 x          5.881013      5.880716    -0.000297    Cartesian   -0.01
   1112 y         13.722364     13.719731    -0.002633    Cartesian   -0.02
   1112 z         13.722364     13.716686    -0.005679    Cartesian   -0.04
   1113 x          1.960338      1.961675     0.001338    Cartesian    0.07
   1113 y         17.643040     17.635667    -0.007373    Cartesian   -0.04
   1113 z          9.801689      9.797667    -0.004022    Cartesian   -0.04
   1114 x         11.762026     11.760918    -0.001109    Cartesian   -0.01
   1114 y        -15.682702    -15.680501     0.002201    Cartesian   -0.01
   1114 z          0.000000      0.000000     0.000000    Cartesian    0.00
   1115 x         11.762026     11.759493    -0.002533    Cartesian   -0.02
   1115 y         -3.920675     -3.918167     0.002508    Cartesian   -0.06
   1115 z         15.682702     15.678613    -0.004089    Cartesian   -0.03
   1116 x         17.643040     17.635503    -0.007537    Cartesian   -0.04
   1116 y         -1.960338     -1.957039     0.003299    Cartesian   -0.17
   1116 z          9.801689      9.797160    -0.004529    Cartesian   -0.05
   1117 x          1.960338      1.960023    -0.000314    Cartesian   -0.02
   1117 y        -13.722364    -13.712316     0.010048    Cartesian   -0.07
   1117 z         13.722364     13.713561    -0.008803    Cartesian   -0.06
   1118 x          5.881013      5.878808    -0.002205    Cartesian   -0.04
   1118 y        -17.643040    -17.631287     0.011752    Cartesian   -0.07
   1118 z          5.881013      5.878008    -0.003005    Cartesian   -0.05
   1119 x         -5.881013     -5.875562     0.005452    Cartesian   -0.09
   1119 y         -5.881013     -5.875562     0.005452    Cartesian   -0.09
   1119 z         17.643040     17.631547    -0.011493    Cartesian   -0.07
   1120 x          0.000000      0.001612     0.001612    Cartesian    0.00
   1120 y          3.920675      3.919783    -0.000893    Cartesian   -0.02
   1120 z         19.603377     19.598881    -0.004496    Cartesian   -0.02
   1121 x         15.682702     15.679216    -0.003485    Cartesian   -0.02
   1121 y        -11.762026    -11.759062     0.002964    Cartesian   -0.03
   1121 z          3.920675      3.919245    -0.001431    Cartesian   -0.04
   1122 x         -7.841351     -7.837525     0.003826    Cartesian   -0.05
   1122 y        -15.682702    -15.676365     0.006337    Cartesian   -0.04
   1122 z          7.841351      7.837909    -0.003442    Cartesian   -0.04
   1123 x         19.603377     19.599606    -0.003771    Cartesian   -0.02
   1123 y         -3.920675     -3.918318     0.002357    Cartesian   -0.06
   1123 z          3.920675      3.919158    -0.001517    Cartesian   -0.04
   1124 x          1.960338      1.961016     0.000678    Cartesian    0.03
   1124 y          9.801689      9.799036    -0.002653    Cartesian   -0.03
   1124 z         17.643040     17.632387    -0.010653    Cartesian   -0.06
   1125 x          0.000000      0.000429     0.000429    Cartesian    0.00
   1125 y        -11.762026    -11.757085     0.004941    Cartesian   -0.04
   1125 z         15.682702     15.676915    -0.005787    Cartesian   -0.04
   1126 x         -1.960338     -1.957838     0.002500    Cartesian   -0.13
   1126 y        -13.722364    -13.711511     0.010854    Cartesian   -0.08
   1126 z         13.722364     13.712926    -0.009438    Cartesian   -0.07
--------------------------------------------------------------------------------


  Time to end of optimisation  =      520.9200 seconds


  Peak dynamic memory used =    1236.56 MB 


  Timing analysis for GULP :

--------------------------------------------------------------------------------
  Task / Subroutine                                          Time (Seconds)
--------------------------------------------------------------------------------
  Calculation of reciprocal space energy and derivatives          0.0002
  Calculation of reciprocal space energy using symmetry           0.0003
  Calculation of real space energy and derivatives                0.0017
  Calculation of real space energy using symmetry                 0.0037
  Calculation for region 1 energy and derivatives (2-b)         180.2436
  Calculation for region 2a energy                               65.2434
  Calculation for region 2b energy                                0.0060
  Calculation and manipulation of Hessian matrix                244.4668
  Calculation of matrix inversion                                29.5436
  Symmetry generation of equivalent positions                     0.0020
--------------------------------------------------------------------------------
  Total CPU time                                                520.9200
--------------------------------------------------------------------------------


  Dump file written as Li3OCl.grs


  Job Finished at 13:02.33 28th October    2020                               

