********************************************************************************
*                       GENERAL UTILITY LATTICE PROGRAM                        *
*                                 Julian Gale                                  *
*                       Curtin Institute for Computation                       *
*                    School of Molecular and Life Sciences                     *
*                    Curtin University, Western Australia                      *
********************************************************************************
* Version = 5.2.0 * Last modified =  10th September 2020                       *
********************************************************************************
*  optimise     - perform optimisation run                                     *
*  conp         - constant pressure calculation                                *
*  property     - calculate properties for final geometry                      *
*  defect       - perform defect calculation after bulk run                    *
*  compare      - compare initial and final structures                         *
********************************************************************************

  Job Started  at 12:45.32 28th October    2020                               

  Number of CPUs =     1


  Total number of configurations input =      1

********************************************************************************
*  Input for Configuration =   1                                               *
********************************************************************************

  Formula = ClOLi3                                                      

  Number of irreducible atoms/shells =       5


  Total number atoms/shells =       7

  Dimensionality = 3               :  Bulk   


  Symmetry :

  Crystal family                   :  Cubic       
  Crystal class  (Groth - 1921)    :  Cubic Hexakisoctahedral              

  Space group (centrosymmetric)    :  P M 3 M         

  Patterson group                  :  P m -3 m 

  Cartesian lattice vectors (Angstroms) :

        3.918873    0.000000    0.000000
        0.000000    3.918873    0.000000
        0.000000    0.000000    3.918873

  Cell parameters (Angstroms/Degrees):

  a =       3.9189    alpha =  90.0000
  b =       3.9189    beta  =  90.0000
  c =       3.9189    gamma =  90.0000

  Initial cell volume =          60.184349 Angs**3

  Temperature of configuration =   0.00     K 

  Pressure of configuration =         0.000 GPa 

  Fractional coordinates of asymmetric unit :

--------------------------------------------------------------------------------
   No.  Atomic       x           y          z         Charge      Occupancy
        Label      (Frac)      (Frac)     (Frac)        (e)         (Frac)  
--------------------------------------------------------------------------------
      1 Cl    c    0.500000    0.500000    0.500000     1.48500    1.000000    
      2 O     c    0.000000    0.000000    0.000000     0.18300    1.000000    
      3 Li    c    0.500000    0.000000    0.000000     1.00000    1.000000    
      4 Cl    s    0.500000    0.500000    0.500000    -2.48500    1.000000    
      5 O     s    0.000000    0.000000    0.000000    -2.18300    1.000000    
--------------------------------------------------------------------------------


  Constraints : 

--------------------------------------------------------------------------------
  Constraint no.      Unconstrained     Constrained    Coefficient    Offset
                         Variable         Variable
--------------------------------------------------------------------------------
           1              Strain 1        Strain 2       1.00000      0.0000
           2              Strain 1        Strain 3       1.00000      0.0000
--------------------------------------------------------------------------------


********************************************************************************
*  General input information                                                   *
********************************************************************************

  Species output for all configurations : 

--------------------------------------------------------------------------------
  Species    Type    Atomic    Atomic    Charge       Radii (Angs)     Library
                     Number     Mass       (e)     Cova   Ionic  VDW   Symbol
--------------------------------------------------------------------------------
    Li       Core        3       6.94   1.000000   0.680  0.000  1.800          
    O        Core        8      16.00   0.183000   0.730  0.000  1.360          
    O        Shell       8       0.00  -2.183000   0.730  0.000  1.360          
    Cl       Core       17      35.45   1.485000   0.990  0.000  1.650          
    Cl       Shell      17       0.00  -2.485000   0.990  0.000  1.650          
--------------------------------------------------------------------------------


  Lattice summation method               =    Ewald          (3-D)
                                         =    Parry          (2-D)
                                         =    Saunders et al (1-D)
  Accuracy factor for lattice sums       =   12.000


  Analytic derivatives to be used

  Time limit = Infinity

  Maximum range for interatomic potentials =    100000.000000 Angstroms

  General interatomic potentials :

--------------------------------------------------------------------------------
Atom  Types   Potential      Parameter       Value         Units   Cutoffs(Ang)
  1     2                                                            Min /  Max 
--------------------------------------------------------------------------------
O    c O    s Spring (c-s)  Spring k 2       593.72000    eV*Ang^-2 0.000  0.800
                            Spring k 4       0.0000000    eV*Ang^-4 
--------------------------------------------------------------------------------
Cl   c Cl   s Spring (c-s)  Spring k 2       29.380000    eV*Ang^-2 0.000  0.800
                            Spring k 4       0.0000000    eV*Ang^-4 
--------------------------------------------------------------------------------
Li   c Li   c Buckingham    Buckingham A     360.53000    eV        0.000 12.000
                            Buckingham rho  0.16100000    Ang       
                            Buckingham C     0.0000000    eV*Ang^6  
--------------------------------------------------------------------------------
Li   c O    s Buckingham    Buckingham A     292.30000    eV        0.000 12.000
                            Buckingham rho  0.34720000    Ang       
                            Buckingham C     0.0000000    eV*Ang^6  
--------------------------------------------------------------------------------
Li   c Cl   s Buckingham    Buckingham A     421.04000    eV        0.000 12.000
                            Buckingham rho  0.33400000    Ang       
                            Buckingham C     0.0000000    eV*Ang^6  
--------------------------------------------------------------------------------
O    s O    s Buckingham    Buckingham A     22764.300    eV        0.000 12.000
                            Buckingham rho  0.14900000    Ang       
                            Buckingham C     13.190000    eV*Ang^6  
--------------------------------------------------------------------------------
O    s Cl   s Buckingham    Buckingham A     8286.9100    eV        0.000 12.000
                            Buckingham rho  0.25900000    Ang       
                            Buckingham C     62.200000    eV*Ang^6  
--------------------------------------------------------------------------------
Cl   s Cl   s Buckingham    Buckingham A     1227.2000    eV        0.000 12.000
                            Buckingham rho  0.32100000    Ang       
                            Buckingham C     14.530000    eV*Ang^6  
--------------------------------------------------------------------------------

********************************************************************************
*  Output for configuration   1                                                *
********************************************************************************


  Components of energy : 

--------------------------------------------------------------------------------
  Interatomic potentials     =           7.26836263 eV    
  Monopole - monopole (real) =         -11.53475722 eV    
  Monopole - monopole (recip)=         -33.94580548 eV    
  Monopole - monopole (total)=         -45.48056271 eV    
--------------------------------------------------------------------------------
  Total lattice energy       =         -38.21220008 eV    
--------------------------------------------------------------------------------
  Total lattice energy       =           -3686.8932 kJ/(mole unit cells)
--------------------------------------------------------------------------------


  Number of variables =        1

  Maximum number of calculations  =          1000
  Maximum Hessian update interval =            10
  Maximum step size               =   1.000000000
  Maximum parameter tolerance     =   0.000010000
  Maximum function  tolerance     =   0.000010000
  Maximum gradient  tolerance     =   0.001000000
  Maximum gradient  component     =   0.010000000

  Symmetry constrained optimisation

  Symmetry used for second derivatives

  Cell parameters to be optimised using strains

  Newton-Raphson optimiser to be used

  BFGS hessian update to be used

  Lower half triangular hessian to be used

  Start of bulk optimisation :

  Cycle:      0 Energy:       -38.212200  Gnorm:      0.095699  CPU:    0.006
  ** Hessian calculated **
  Cycle:      1 Energy:       -38.212222  Gnorm:      0.000105  CPU:    0.007


  **** Optimisation achieved ****


  Final energy =     -38.21222207 eV
  Final Gnorm  =       0.00000001

  Components of energy : 

--------------------------------------------------------------------------------
  Interatomic potentials     =           7.24743137 eV    
  Monopole - monopole (real) =         -11.52945422 eV    
  Monopole - monopole (recip)=         -33.93019921 eV    
  Monopole - monopole (total)=         -45.45965344 eV    
--------------------------------------------------------------------------------
  Total lattice energy       =         -38.21222207 eV    
--------------------------------------------------------------------------------
  Total lattice energy       =           -3686.8953 kJ/(mole unit cells)
--------------------------------------------------------------------------------

  Final asymmetric unit coordinates :

--------------------------------------------------------------------------------
   No.  Atomic        x           y           z         Radius
        Label       (Frac)      (Frac)      (Frac)       (Angs) 
--------------------------------------------------------------------------------
     1  Cl    c     0.500000    0.500000    0.500000    0.000000
     2  O     c     0.000000    0.000000    0.000000    0.000000
     3  Li    c     0.500000    0.000000    0.000000    0.000000
     4  Cl    s     0.500000    0.500000    0.500000    0.000000
     5  O     s     0.000000    0.000000    0.000000    0.000000
--------------------------------------------------------------------------------

  Final Cartesian lattice vectors (Angstroms) :

        3.920675    0.000000    0.000000
        0.000000    3.920675    0.000000
        0.000000    0.000000    3.920675


  Final cell parameters and derivatives :

--------------------------------------------------------------------------------
       a            3.920675 Angstrom     dE/de1(xx)     0.000000 eV/strain
       b            3.920675 Angstrom     dE/de2(yy)     0.000000 eV/strain
       c            3.920675 Angstrom     dE/de3(zz)     0.000000 eV/strain
       alpha       90.000000 Degrees      dE/de4(yz)     0.000000 eV/strain
       beta        90.000000 Degrees      dE/de5(xz)     0.000000 eV/strain
       gamma       90.000000 Degrees      dE/de6(xy)     0.000000 eV/strain
--------------------------------------------------------------------------------

  Primitive cell volume =            60.267433 Angs**3

  Density of cell =      1.991276 g/cm**3

  Non-primitive cell volume =            60.267433 Angs**3


  Final internal derivatives :

--------------------------------------------------------------------------------
   No.  Atomic          a             b             c           Radius
        Label          (eV)          (eV)          (eV)        (eV/Angs)
--------------------------------------------------------------------------------
      1 Cl    c       0.000000      0.000000      0.000000      0.000000
      2 O     c       0.000000      0.000000      0.000000      0.000000
      3 Li    c       0.000000      0.000000      0.000000      0.000000
      4 Cl    s       0.000000      0.000000      0.000000      0.000000
      5 O     s       0.000000      0.000000      0.000000      0.000000
--------------------------------------------------------------------------------
  Maximum abs         0.000000      0.000000      0.000000      0.000000
--------------------------------------------------------------------------------

  Comparison of initial and final structures : 

--------------------------------------------------------------------------------
  Parameter   Initial value   Final value   Difference    Units      Percent
--------------------------------------------------------------------------------
    Volume        60.184349     60.267433     0.083084    Angs**3      0.14
    a              3.918873      3.920675     0.001802    Angstroms    0.05
    b              3.918873      3.920675     0.001802    Angstroms    0.05
    c              3.918873      3.920675     0.001802    Angstroms    0.05
    alpha         90.000000     90.000000     0.000000    Degrees      0.00
    beta          90.000000     90.000000     0.000000    Degrees      0.00
    gamma         90.000000     90.000000     0.000000    Degrees      0.00
      1 x          0.500000      0.500000     0.000000    Fractional   0.00
      1 y          0.500000      0.500000     0.000000    Fractional   0.00
      1 z          0.500000      0.500000     0.000000    Fractional   0.00
      2 x          0.000000      0.000000     0.000000    Fractional   0.00
      2 y          0.000000      0.000000     0.000000    Fractional   0.00
      2 z          0.000000      0.000000     0.000000    Fractional   0.00
      3 x          0.500000      0.500000     0.000000    Fractional   0.00
      3 y          0.000000      0.000000     0.000000    Fractional   0.00
      3 z          0.000000      0.000000     0.000000    Fractional   0.00
      4 x          0.500000      0.500000     0.000000    Fractional   0.00
      4 y          0.500000      0.500000     0.000000    Fractional   0.00
      4 z          0.500000      0.500000     0.000000    Fractional   0.00
      5 x          0.000000      0.000000     0.000000    Fractional   0.00
      5 y          0.000000      0.000000     0.000000    Fractional   0.00
      5 z          0.000000      0.000000     0.000000    Fractional   0.00
--------------------------------------------------------------------------------


  Born effective charge tensors : 

-------------------------------------------------------------------------------
  Atom             x           y             z
-------------------------------------------------------------------------------
    1 Cl    x      -0.9489      0.0000     -0.0000
            y       0.0000     -0.9489     -0.0000
            z      -0.0000     -0.0000     -0.9489
-------------------------------------------------------------------------------
    2 O     x      -2.4688      0.0000     -0.0000
            y       0.0000     -2.4688     -0.0000
            z      -0.0000     -0.0000     -2.4688
-------------------------------------------------------------------------------
    3 Li    x       0.7919     -0.0000      0.0000
            y      -0.0000      1.3129      0.0000
            z      -0.0000      0.0000      1.3129
-------------------------------------------------------------------------------




  Elastic Constant Matrix: (Units=GPa)

-------------------------------------------------------------------------------
  Indices      1         2         3         4         5         6    
-------------------------------------------------------------------------------
       1     94.3368   44.9178   44.9178   -0.0000   -0.0000    0.0000
       2     44.9178   94.3368   44.9178    0.0000   -0.0000    0.0000
       3     44.9178   44.9178   94.3368    0.0000    0.0000   -0.0000
       4     -0.0000    0.0000    0.0000   44.9178   -0.0000    0.0000
       5     -0.0000   -0.0000    0.0000   -0.0000   44.9178    0.0000
       6      0.0000    0.0000   -0.0000    0.0000    0.0000   44.9178
-------------------------------------------------------------------------------


  Elastic Compliance Matrix: (Units=1/GPa)

-------------------------------------------------------------------------------
  Indices      1         2         3         4         5         6    
-------------------------------------------------------------------------------
       1    0.015300 -0.004935 -0.004935  0.000000  0.000000 -0.000000
       2   -0.004935  0.015300 -0.004935  0.000000 -0.000000 -0.000000
       3   -0.004935 -0.004935  0.015300 -0.000000 -0.000000  0.000000
       4    0.000000  0.000000 -0.000000  0.022263  0.000000 -0.000000
       5    0.000000 -0.000000 -0.000000  0.000000  0.022263 -0.000000
       6   -0.000000 -0.000000  0.000000 -0.000000 -0.000000  0.022263
-------------------------------------------------------------------------------

  Mechanical properties :

-------------------------------------------------------------------------------
  Convention :                    Reuss         Voigt         Hill
-------------------------------------------------------------------------------
  Bulk  Modulus (GPa)     =      61.39080      61.39080      61.39080
  Shear Modulus (GPa)     =      33.84570      36.83448      35.34009
-------------------------------------------------------------------------------
  Velocity S-wave (km/s)  =       4.12274       4.30092       4.21277
  Velocity P-wave (km/s)  =       7.31386       7.44942       7.38195
-------------------------------------------------------------------------------
  Compressibility (1/GPa) =    0.01628909
-------------------------------------------------------------------------------
  Stress axis :                     x             y             z
-------------------------------------------------------------------------------
  Youngs Moduli (GPa)     =      65.35947      65.35947      65.35947
-------------------------------------------------------------------------------
  Poissons Ratio (x)      =                     0.32256       0.32256
  Poissons Ratio (y)      =       0.32256                     0.32256
  Poissons Ratio (z)      =       0.32256       0.32256
-------------------------------------------------------------------------------


  Piezoelectric Strain Matrix: (Units=C/m**2)

-------------------------------------------------------------------------------
  Indices      1         2         3         4         5         6    
-------------------------------------------------------------------------------
       x     0.00000  -0.00000  -0.00000   0.00000   0.00000  -0.00000
       y    -0.00000   0.00000   0.00000  -0.00000   0.00000  -0.00000
       z    -0.00000   0.00000   0.00000   0.00000  -0.00000   0.00000
-------------------------------------------------------------------------------


  Piezoelectric Stress Matrix: (Units=10**-11 C/N)

-------------------------------------------------------------------------------
  Indices      1         2         3         4         5         6    
-------------------------------------------------------------------------------
       x     0.00000  -0.00000  -0.00000   0.00000   0.00000  -0.00000
       y    -0.00000   0.00000   0.00000  -0.00000   0.00000  -0.00000
       z    -0.00000  -0.00000   0.00000   0.00000  -0.00000   0.00000
-------------------------------------------------------------------------------


  Static dielectric constant tensor : 

-------------------------------------------------------------------------------
              x         y         z
-------------------------------------------------------------------------------
       x    12.11703  -0.00000   0.00000
       y    -0.00000  12.11703   0.00000
       z     0.00000   0.00000  12.11703
--------------------------------------------------------------------------------

  High frequency dielectric constant tensor : 

-------------------------------------------------------------------------------
              x         y         z
-------------------------------------------------------------------------------
       x     1.74104  -0.00000   0.00000
       y    -0.00000   1.74104   0.00000
       z     0.00000   0.00000   1.74104
-------------------------------------------------------------------------------

  Static refractive indices : 

-------------------------------------------------------------------------------
    1 =    3.48095      2 =    3.48095      3 =    3.48095
-------------------------------------------------------------------------------

  High frequency refractive indices : 

-------------------------------------------------------------------------------
    1 =    1.31948      2 =    1.31948      3 =    1.31948
-------------------------------------------------------------------------------


  Time to end of optimisation =       0.0112 seconds

********************************************************************************
*  Defect calculation for configuration   1 :                                  *
********************************************************************************

  Total number of defects =      3

  Total charge on defect  =   2.00

  Defect centre is at   0.3919   0.3919   0.0000  Angs

  Region 1 radius =  20.0000      Number of ions =   3916

  Number of symmetry inequivalent region 1 ions  =   1137

  Region 2 radius =  24.0000      Number of ions =   2830

  Number of symmetry inequivalent region 2a ions =    774

  Region 2a mode = 4 : screened electrostatics due to region 1 
                       neglect correction to region 1 forces from 2a
                       region 2a displacements based on defects only

  Region 2a ions will only interact with defects in region 1

  Vacancies:

--------------------------------------------------------------------------------
    Specification type     Symbol/Number         x          y          z
--------------------------------------------------------------------------------
    Cartesian                                0.000000   0.000000   0.000000
    Cartesian                                3.918873   3.918873   0.000000
--------------------------------------------------------------------------------

  Interstitials:

--------------------------------------------------------------------------------
    Specification type     Symbol/Number         x          y          z
--------------------------------------------------------------------------------
    Atom/Cartesian          O                0.391887   0.391887   0.000000
--------------------------------------------------------------------------------


  Symmetry reduced region 1 (Relative to defect centre) :

--------------------------------------------------------------------------------
   No.   Atomic       x            y             z       Radius  Multiplicity   
         Label      (Angs)       (Angs)        (Angs)    (Angs)     
--------------------------------------------------------------------------------
     1  O     c      0.0000       0.0000       0.0000    0.0000     1    Defect
     2  Li    c      1.5685 *    -0.3919 *     0.0000    0.0000     2          
     3  Li    c     -0.3919 *    -0.3919      -1.9603 *  0.0000     2          
     4  Li    c     -2.3522 *    -0.3919 *     0.0000    0.0000     2          
     5  Cl    c      1.5685 *     1.5685      -1.9603 *  0.0000     2          
     6  Cl    c      1.5685 *    -2.3522 *    -1.9603 *  0.0000     4          
     7  O     c     -0.3919 *     3.5288 *     0.0000    0.0000     2          
     8  Cl    c     -2.3522 *    -2.3522      -1.9603 *  0.0000     2          
     9  Li    c      1.5685 *     3.5288 *     0.0000    0.0000     2          
    10  O     c     -0.3919 *    -0.3919       3.9207 *  0.0000     2          
    11  Li    c     -0.3919 *     3.5288 *    -1.9603 *  0.0000     4          
    12  Li    c     -2.3522 *     3.5288 *     0.0000    0.0000     2          
    13  Li    c      1.5685 *    -0.3919 *     3.9207 *  0.0000     4          
    14  O     c     -0.3919 *    -4.3126 *     0.0000    0.0000     2          
    15  Li    c     -2.3522 *    -0.3919 *     3.9207 *  0.0000     4          
    16  Li    c      1.5685 *    -4.3126 *     0.0000    0.0000     2          
    17  Li    c     -0.3919 *    -4.3126 *    -1.9603 *  0.0000     4          
    18  Li    c     -2.3522 *    -4.3126 *     0.0000    0.0000     2          
    19  O     c     -0.3919 *     3.5288 *     3.9207 *  0.0000     4          
    20  Li    c      3.5288 *     3.5288      -1.9603 *  0.0000     2          
    21  Li    c      1.5685 *     3.5288 *     3.9207 *  0.0000     4          
    22  Li    c      5.4891 *    -0.3919 *     0.0000    0.0000     2          
    23  O     c      3.5288 *    -4.3126 *     0.0000    0.0000     2          
    24  Li    c     -2.3522 *     3.5288 *     3.9207 *  0.0000     4          
    25  O     c     -0.3919 *    -4.3126 *     3.9207 *  0.0000     4          
    26  Li    c     -0.3919 *    -0.3919       5.8810 *  0.0000     2          
    27  Li    c      3.5288 *    -4.3126 *    -1.9603 *  0.0000     4          
    28  Li    c      1.5685 *    -4.3126 *     3.9207 *  0.0000     4          
    29  Cl    c      1.5685 *     5.4891 *    -1.9603 *  0.0000     4          
    30  O     c     -4.3126 *    -4.3126       0.0000    0.0000     1          
    31  Li    c     -6.2729 *    -0.3919 *     0.0000    0.0000     2          
    32  Li    c     -2.3522 *    -4.3126 *     3.9207 *  0.0000     4          
    33  Cl    c      1.5685 *     1.5685       5.8810 *  0.0000     2          
    34  Cl    c      5.4891 *    -2.3522 *    -1.9603 *  0.0000     4          
    35  O     c      3.5288 *     3.5288       3.9207 *  0.0000     2          
    36  Li    c     -4.3126 *    -4.3126      -1.9603 *  0.0000     2          
    37  Cl    c      1.5685 *    -2.3522 *     5.8810 *  0.0000     4          
    38  Li    c      5.4891 *     3.5288 *     0.0000    0.0000     2          
    39  Cl    c      1.5685 *    -6.2729 *    -1.9603 *  0.0000     4          
    40  Cl    c     -2.3522 *    -2.3522       5.8810 *  0.0000     2          
    41  Li    c      5.4891 *    -0.3919 *     3.9207 *  0.0000     4          
    42  O     c      3.5288 *    -4.3126 *     3.9207 *  0.0000     4          
    43  Li    c     -0.3919 *     3.5288 *     5.8810 *  0.0000     4          
    44  Cl    c     -2.3522 *    -6.2729 *    -1.9603 *  0.0000     4          
    45  Li    c      5.4891 *    -4.3126 *     0.0000    0.0000     2          
    46  Li    c     -6.2729 *     3.5288 *     0.0000    0.0000     2          
    47  O     c     -4.3126 *    -4.3126       3.9207 *  0.0000     2          
    48  Li    c     -0.3919 *    -4.3126 *     5.8810 *  0.0000     4          
    49  Li    c     -6.2729 *    -0.3919 *     3.9207 *  0.0000     4          
    50  O     c     -0.3919 *     7.4495 *     0.0000    0.0000     2          
    51  Li    c     -6.2729 *    -4.3126 *     0.0000    0.0000     2          
    52  Li    c      1.5685 *     7.4495 *     0.0000    0.0000     2          
    53  Li    c      5.4891 *     3.5288 *     3.9207 *  0.0000     4          
    54  Li    c     -0.3919 *     7.4495 *    -1.9603 *  0.0000     4          
    55  Li    c      3.5288 *     3.5288       5.8810 *  0.0000     2          
    56  Li    c     -2.3522 *     7.4495 *     0.0000    0.0000     2          
    57  O     c     -0.3919 *    -0.3919       7.8414 *  0.0000     2          
    58  Li    c      1.5685 *    -0.3919 *     7.8414 *  0.0000     4          
    59  Li    c      5.4891 *    -4.3126 *     3.9207 *  0.0000     4          
    60  Cl    c      5.4891 *     5.4891      -1.9603 *  0.0000     2          
    61  Li    c      3.5288 *    -4.3126 *     5.8810 *  0.0000     4          
    62  Li    c     -6.2729 *     3.5288 *     3.9207 *  0.0000     4          
    63  Li    c     -2.3522 *    -0.3919 *     7.8414 *  0.0000     4          
    64  Cl    c      1.5685 *     5.4891 *     5.8810 *  0.0000     4          
    65  O     c     -0.3919 *    -8.2332 *     0.0000    0.0000     2          
    66  O     c      3.5288 *     7.4495 *     0.0000    0.0000     2          
    67  Li    c      1.5685 *    -8.2332 *     0.0000    0.0000     2          
    68  Cl    c      5.4891 *    -2.3522 *     5.8810 *  0.0000     4          
    69  O     c     -0.3919 *     7.4495 *     3.9207 *  0.0000     4          
    70  Li    c     -0.3919 *    -8.2332 *    -1.9603 *  0.0000     4          
    71  Li    c     -4.3126 *    -4.3126       5.8810 *  0.0000     2          
    72  Li    c      3.5288 *     7.4495 *    -1.9603 *  0.0000     4          
    73  Li    c     -6.2729 *    -4.3126 *     3.9207 *  0.0000     4          
    74  Li    c     -2.3522 *    -8.2332 *     0.0000    0.0000     2          
    75  Cl    c      5.4891 *    -6.2729 *    -1.9603 *  0.0000     4          
    76  Li    c      1.5685 *     7.4495 *     3.9207 *  0.0000     4          
    77  O     c     -0.3919 *     3.5288 *     7.8414 *  0.0000     4          
    78  O     c      7.4495 *    -4.3126 *     0.0000    0.0000     2          
    79  Cl    c      1.5685 *    -6.2729 *     5.8810 *  0.0000     4          
    80  Li    c     -2.3522 *     7.4495 *     3.9207 *  0.0000     4          
    81  Li    c      1.5685 *     3.5288 *     7.8414 *  0.0000     4          
    82  Li    c      7.4495 *    -4.3126 *    -1.9603 *  0.0000     4          
    83  Cl    c     -2.3522 *    -6.2729 *     5.8810 *  0.0000     4          
    84  Li    c     -2.3522 *     3.5288 *     7.8414 *  0.0000     4          
    85  O     c     -0.3919 *    -4.3126 *     7.8414 *  0.0000     4          
    86  O     c      3.5288 *    -8.2332 *     0.0000    0.0000     2          
    87  Cl    c     -6.2729 *    -6.2729      -1.9603 *  0.0000     2          
    88  Li    c      1.5685 *    -4.3126 *     7.8414 *  0.0000     4          
    89  O     c     -0.3919 *    -8.2332 *     3.9207 *  0.0000     4          
    90  O     c      3.5288 *     7.4495 *     3.9207 *  0.0000     4          
    91  Li    c      3.5288 *    -8.2332 *    -1.9603 *  0.0000     4          
    92  Li    c     -2.3522 *    -4.3126 *     7.8414 *  0.0000     4          
    93  Li    c      1.5685 *    -8.2332 *     3.9207 *  0.0000     4          
    94  Li    c      5.4891 *     7.4495 *     0.0000    0.0000     2          
    95  O     c     -4.3126 *    -8.2332 *     0.0000    0.0000     2          
    96  O     c      3.5288 *     3.5288       7.8414 *  0.0000     2          
    97  Li    c     -2.3522 *    -8.2332 *     3.9207 *  0.0000     4          
    98  Li    c      9.4098 *    -0.3919 *     0.0000    0.0000     2          
    99  O     c      7.4495 *    -4.3126 *     3.9207 *  0.0000     4          
   100  Li    c     -4.3126 *    -8.2332 *    -1.9603 *  0.0000     4          
   101  Li    c     -0.3919 *     7.4495 *     5.8810 *  0.0000     4          
   102  Li    c      5.4891 *    -0.3919 *     7.8414 *  0.0000     4          
   103  O     c      3.5288 *    -4.3126 *     7.8414 *  0.0000     4          
   104  Li    c     -6.2729 *     7.4495 *     0.0000    0.0000     2          
   105  Cl    c      1.5685 *     9.4098 *    -1.9603 *  0.0000     4          
   106  Cl    c      5.4891 *     5.4891       5.8810 *  0.0000     2          
   107  O     c      3.5288 *    -8.2332 *     3.9207 *  0.0000     4          
   108  Li    c     -0.3919 *    -0.3919       9.8017 *  0.0000     2          
   109  Li    c      5.4891 *    -8.2332 *     0.0000    0.0000     2          
   110  Cl    c      9.4098 *    -2.3522 *    -1.9603 *  0.0000     4          
   111  O     c     -4.3126 *    -4.3126       7.8414 *  0.0000     2          
   112  Li    c     -6.2729 *    -0.3919 *     7.8414 *  0.0000     4          
   113  Cl    c      1.5685 *     1.5685       9.8017 *  0.0000     2          
   114  Li    c      5.4891 *     7.4495 *     3.9207 *  0.0000     4          
   115  Li    c      9.4098 *     3.5288 *     0.0000    0.0000     2          
   116  O     c     -4.3126 *    -8.2332 *     3.9207 *  0.0000     4          
   117  Li    c     -0.3919 *    -8.2332 *     5.8810 *  0.0000     4          
   118  Li    c      3.5288 *     7.4495 *     5.8810 *  0.0000     4          
   119  Li    c    -10.1936 *    -0.3919 *     0.0000    0.0000     2          
   120  Cl    c      1.5685 *    -2.3522 *     9.8017 *  0.0000     4          
   121  Cl    c      5.4891 *    -6.2729 *     5.8810 *  0.0000     4          
   122  Li    c      5.4891 *     3.5288 *     7.8414 *  0.0000     4          
   123  Li    c      9.4098 *    -0.3919 *     3.9207 *  0.0000     4          
   124  Li    c     -6.2729 *    -8.2332 *     0.0000    0.0000     2          
   125  Cl    c     -2.3522 *    -2.3522       9.8017 *  0.0000     2          
   126  Li    c      9.4098 *    -4.3126 *     0.0000    0.0000     2          
   127  Li    c     -0.3919 *     3.5288 *     9.8017 *  0.0000     4          
   128  Li    c      7.4495 *    -4.3126 *     5.8810 *  0.0000     4          
   129  Cl    c      1.5685 *   -10.1936 *    -1.9603 *  0.0000     4          
   130  Li    c     -6.2729 *     7.4495 *     3.9207 *  0.0000     4          
   131  Li    c      5.4891 *    -4.3126 *     7.8414 *  0.0000     4          
   132  O     c      7.4495 *     7.4495       0.0000    0.0000     1          
   133  Cl    c     -2.3522 *   -10.1936 *    -1.9603 *  0.0000     4          
   134  Cl    c     -6.2729 *    -6.2729       5.8810 *  0.0000     2          
   135  Li    c     -6.2729 *     3.5288 *     7.8414 *  0.0000     4          
   136  Li    c      5.4891 *    -8.2332 *     3.9207 *  0.0000     4          
   137  Li    c     -0.3919 *    -4.3126 *     9.8017 *  0.0000     4          
   138  Li    c      3.5288 *    -8.2332 *     5.8810 *  0.0000     4          
   139  Li    c      7.4495 *     7.4495      -1.9603 *  0.0000     2          
   140  Li    c    -10.1936 *     3.5288 *     0.0000    0.0000     2          
   141  Li    c      9.4098 *     3.5288 *     3.9207 *  0.0000     4          
   142  O     c     -0.3919 *     7.4495 *     7.8414 *  0.0000     4          
   143  Li    c     -6.2729 *    -4.3126 *     7.8414 *  0.0000     4          
   144  Li    c    -10.1936 *    -0.3919 *     3.9207 *  0.0000     4          
   145  Li    c      1.5685 *     7.4495 *     7.8414 *  0.0000     4          
   146  Li    c     -4.3126 *    -8.2332 *     5.8810 *  0.0000     4          
   147  Li    c      3.5288 *     3.5288       9.8017 *  0.0000     2          
   148  Li    c    -10.1936 *    -4.3126 *     0.0000    0.0000     2          
   149  Li    c     -6.2729 *    -8.2332 *     3.9207 *  0.0000     4          
   150  Li    c     -2.3522 *     7.4495 *     7.8414 *  0.0000     4          
   151  Li    c      9.4098 *    -4.3126 *     3.9207 *  0.0000     4          
   152  Cl    c      5.4891 *     9.4098 *    -1.9603 *  0.0000     4          
   153  O     c      7.4495 *    -8.2332 *     0.0000    0.0000     2          
   154  Cl    c      1.5685 *     9.4098 *     5.8810 *  0.0000     4          
   155  O     c      7.4495 *     7.4495       3.9207 *  0.0000     2          
   156  Li    c      3.5288 *    -4.3126 *     9.8017 *  0.0000     4          
   157  Li    c      7.4495 *    -8.2332 *    -1.9603 *  0.0000     4          
   158  Cl    c      1.5685 *     5.4891 *     9.8017 *  0.0000     4          
   159  Cl    c      9.4098 *    -2.3522 *     5.8810 *  0.0000     4          
   160  O     c     -0.3919 *    -8.2332 *     7.8414 *  0.0000     4          
   161  O     c     -0.3919 *    11.3701 *     0.0000    0.0000     2          
   162  O     c      3.5288 *     7.4495 *     7.8414 *  0.0000     4          
   163  Li    c    -10.1936 *     3.5288 *     3.9207 *  0.0000     4          
   164  Li    c      1.5685 *    -8.2332 *     7.8414 *  0.0000     4          
   165  Cl    c      5.4891 *    -2.3522 *     9.8017 *  0.0000     4          
   166  Cl    c      9.4098 *    -6.2729 *    -1.9603 *  0.0000     4          
   167  Li    c      1.5685 *    11.3701 *     0.0000    0.0000     2          
   168  Li    c     -4.3126 *    -4.3126       9.8017 *  0.0000     2          
   169  Li    c     -0.3919 *    11.3701 *    -1.9603 *  0.0000     4          
   170  Li    c     -2.3522 *    -8.2332 *     7.8414 *  0.0000     4          
   171  Li    c     -2.3522 *    11.3701 *     0.0000    0.0000     2          
   172  O     c     -8.2332 *    -8.2332       0.0000    0.0000     1          
   173  O     c      7.4495 *    -4.3126 *     7.8414 *  0.0000     4          
   174  Li    c    -10.1936 *    -4.3126 *     3.9207 *  0.0000     4          
   175  Cl    c      1.5685 *    -6.2729 *     9.8017 *  0.0000     4          
   176  Cl    c      5.4891 *   -10.1936 *    -1.9603 *  0.0000     4          
   177  O     c     -0.3919 *    -0.3919      11.7620 *  0.0000     2          
   178  O     c      7.4495 *    -8.2332 *     3.9207 *  0.0000     4          
   179  Li    c     -8.2332 *    -8.2332      -1.9603 *  0.0000     2          
   180  Cl    c      1.5685 *   -10.1936 *     5.8810 *  0.0000     4          
   181  Cl    c     -2.3522 *    -6.2729 *     9.8017 *  0.0000     4          
   182  Li    c      1.5685 *    -0.3919 *    11.7620 *  0.0000     4          
   183  O     c      3.5288 *    -8.2332 *     7.8414 *  0.0000     4          
   184  O     c      3.5288 *    11.3701 *     0.0000    0.0000     2          
   185  Cl    c     -2.3522 *   -10.1936 *     5.8810 *  0.0000     4          
   186  Li    c     -2.3522 *    -0.3919 *    11.7620 *  0.0000     4          
   187  Li    c      9.4098 *     7.4495 *     0.0000    0.0000     2          
   188  O     c     -0.3919 *    11.3701 *     3.9207 *  0.0000     4          
   189  Li    c      3.5288 *    11.3701 *    -1.9603 *  0.0000     4          
   190  Li    c      7.4495 *     7.4495       5.8810 *  0.0000     2          
   191  Cl    c     -6.2729 *   -10.1936 *    -1.9603 *  0.0000     4          
   192  Li    c      1.5685 *    11.3701 *     3.9207 *  0.0000     4          
   193  Li    c      5.4891 *     7.4495 *     7.8414 *  0.0000     4          
   194  O     c     -0.3919 *   -12.1539 *     0.0000    0.0000     2          
   195  O     c     -4.3126 *    -8.2332 *     7.8414 *  0.0000     4          
   196  O     c     11.3701 *    -4.3126 *     0.0000    0.0000     2          
   197  Li    c      1.5685 *   -12.1539 *     0.0000    0.0000     2          
   198  Li    c     -2.3522 *    11.3701 *     3.9207 *  0.0000     4          
   199  Li    c      9.4098 *    -0.3919 *     7.8414 *  0.0000     4          
   200  O     c     -8.2332 *    -8.2332       3.9207 *  0.0000     2          
   201  O     c     -0.3919 *     3.5288 *    11.7620 *  0.0000     4          
   202  Li    c     -0.3919 *   -12.1539 *    -1.9603 *  0.0000     4          
   203  Li    c     -0.3919 *     7.4495 *     9.8017 *  0.0000     4          
   204  Li    c     11.3701 *    -4.3126 *    -1.9603 *  0.0000     4          
   205  Li    c     -2.3522 *   -12.1539 *     0.0000    0.0000     2          
   206  Li    c      1.5685 *     3.5288 *    11.7620 *  0.0000     4          
   207  Cl    c      5.4891 *     9.4098 *     5.8810 *  0.0000     4          
   208  Li    c     -2.3522 *     3.5288 *    11.7620 *  0.0000     4          
   209  Li    c     -6.2729 *     7.4495 *     7.8414 *  0.0000     4          
   210  Li    c      9.4098 *    -8.2332 *     0.0000    0.0000     2          
   211  Cl    c      5.4891 *     5.4891       9.8017 *  0.0000     2          
   212  O     c     -0.3919 *    -4.3126 *    11.7620 *  0.0000     4          
   213  O     c      3.5288 *    11.3701 *     3.9207 *  0.0000     4          
   214  Li    c      7.4495 *    -8.2332 *     5.8810 *  0.0000     4          
   215  Li    c    -10.1936 *     7.4495 *     0.0000    0.0000     2          
   216  Li    c      1.5685 *    -4.3126 *    11.7620 *  0.0000     4          
   217  Li    c      5.4891 *    -8.2332 *     7.8414 *  0.0000     4          
   218  Li    c      5.4891 *    11.3701 *     0.0000    0.0000     2          
   219  Li    c      9.4098 *     7.4495 *     3.9207 *  0.0000     4          
   220  O     c      3.5288 *   -12.1539 *     0.0000    0.0000     2          
   221  Li    c     -2.3522 *    -4.3126 *    11.7620 *  0.0000     4          
   222  Cl    c      9.4098 *    -6.2729 *     5.8810 *  0.0000     4          
   223  Li    c      9.4098 *     3.5288 *     7.8414 *  0.0000     4          
   224  O     c     -0.3919 *   -12.1539 *     3.9207 *  0.0000     4          
   225  O     c     11.3701 *    -4.3126 *     3.9207 *  0.0000     4          
   226  O     c      3.5288 *     3.5288      11.7620 *  0.0000     2          
   227  Li    c     -0.3919 *    -8.2332 *     9.8017 *  0.0000     4          
   228  Li    c      3.5288 *   -12.1539 *    -1.9603 *  0.0000     4          
   229  Li    c     -0.3919 *    11.3701 *     5.8810 *  0.0000     4          
   230  Li    c      3.5288 *     7.4495 *     9.8017 *  0.0000     4          
   231  Li    c    -10.1936 *    -0.3919 *     7.8414 *  0.0000     4          
   232  Li    c      1.5685 *   -12.1539 *     3.9207 *  0.0000     4          
   233  Cl    c      5.4891 *    -6.2729 *     9.8017 *  0.0000     4          
   234  O     c     -4.3126 *   -12.1539 *     0.0000    0.0000     2          
   235  Li    c     -2.3522 *   -12.1539 *     3.9207 *  0.0000     4          
   236  Li    c     -6.2729 *    -8.2332 *     7.8414 *  0.0000     4          
   237  Cl    c      5.4891 *   -10.1936 *     5.8810 *  0.0000     4          
   238  Li    c     -6.2729 *    11.3701 *     0.0000    0.0000     2          
   239  Li    c      5.4891 *    -0.3919 *    11.7620 *  0.0000     4          
   240  Li    c      9.4098 *    -4.3126 *     7.8414 *  0.0000     4          
   241  O     c      3.5288 *    -4.3126 *    11.7620 *  0.0000     4          
   242  Li    c     -4.3126 *   -12.1539 *    -1.9603 *  0.0000     4          
   243  Li    c     -8.2332 *    -8.2332       5.8810 *  0.0000     2          
   244  Li    c      7.4495 *    -4.3126 *     9.8017 *  0.0000     4          
   245  Li    c    -10.1936 *    -8.2332 *     0.0000    0.0000     2          
   246  Li    c      9.4098 *    -8.2332 *     3.9207 *  0.0000     4          
   247  O     c      7.4495 *     7.4495       7.8414 *  0.0000     2          
   248  Cl    c     -6.2729 *    -6.2729       9.8017 *  0.0000     2          
   249  Li    c    -10.1936 *     7.4495 *     3.9207 *  0.0000     4          
   250  Li    c      5.4891 *    11.3701 *     3.9207 *  0.0000     4          
   251  O     c      3.5288 *   -12.1539 *     3.9207 *  0.0000     4          
   252  O     c     -4.3126 *    -4.3126      11.7620 *  0.0000     2          
   253  Li    c      3.5288 *    -8.2332 *     9.8017 *  0.0000     4          
   254  Li    c      3.5288 *    11.3701 *     5.8810 *  0.0000     4          
   255  Cl    c     -6.2729 *   -10.1936 *     5.8810 *  0.0000     4          
   256  Li    c      5.4891 *   -12.1539 *     0.0000    0.0000     2          
   257  Li    c     -6.2729 *    -0.3919 *    11.7620 *  0.0000     4          
   258  Li    c    -10.1936 *     3.5288 *     7.8414 *  0.0000     4          
   259  Li    c     13.3305 *    -0.3919 *     0.0000    0.0000     2          
   260  Li    c      5.4891 *     3.5288 *    11.7620 *  0.0000     4          
   261  Cl    c      9.4098 *     9.4098      -1.9603 *  0.0000     2          
   262  O     c     -4.3126 *   -12.1539 *     3.9207 *  0.0000     4          
   263  Li    c     -0.3919 *   -12.1539 *     5.8810 *  0.0000     4          
   264  Li    c     -4.3126 *    -8.2332 *     9.8017 *  0.0000     4          
   265  Li    c     11.3701 *    -4.3126 *     5.8810 *  0.0000     4          
   266  Li    c    -10.1936 *    -4.3126 *     7.8414 *  0.0000     4          
   267  Li    c     -6.2729 *    11.3701 *     3.9207 *  0.0000     4          
   268  Cl    c      1.5685 *    13.3305 *    -1.9603 *  0.0000     4          
   269  O     c      7.4495 *    -8.2332 *     7.8414 *  0.0000     4          
   270  O     c      7.4495 *    11.3701 *     0.0000    0.0000     2          
   271  Li    c     -6.2729 *   -12.1539 *     0.0000    0.0000     2          
   272  Li    c    -10.1936 *    -8.2332 *     3.9207 *  0.0000     4          
   273  Li    c      5.4891 *    -4.3126 *    11.7620 *  0.0000     4          
   274  Cl    c      1.5685 *     9.4098 *     9.8017 *  0.0000     4          
   275  Cl    c     13.3305 *    -2.3522 *    -1.9603 *  0.0000     4          
   276  Li    c     -0.3919 *    -0.3919      13.7224 *  0.0000     2          
   277  Li    c      7.4495 *    11.3701 *    -1.9603 *  0.0000     4          
   278  Li    c     -6.2729 *     3.5288 *    11.7620 *  0.0000     4          
   279  Cl    c      9.4098 *    -2.3522 *     9.8017 *  0.0000     4          
   280  Li    c     13.3305 *     3.5288 *     0.0000    0.0000     2          
   281  O     c     -0.3919 *    11.3701 *     7.8414 *  0.0000     4          
   282  Li    c      5.4891 *   -12.1539 *     3.9207 *  0.0000     4          
   283  Cl    c      1.5685 *     1.5685      13.7224 *  0.0000     2          
   284  Li    c      1.5685 *    11.3701 *     7.8414 *  0.0000     4          
   285  Li    c     13.3305 *    -0.3919 *     3.9207 *  0.0000     4          
   286  O     c     -0.3919 *     7.4495 *    11.7620 *  0.0000     4          
   287  Li    c      3.5288 *   -12.1539 *     5.8810 *  0.0000     4          
   288  Li    c     -6.2729 *    -4.3126 *    11.7620 *  0.0000     4          
   289  Cl    c      1.5685 *    -2.3522 *    13.7224 *  0.0000     4          
   290  Cl    c      9.4098 *   -10.1936 *    -1.9603 *  0.0000     4          
   291  Li    c     -2.3522 *    11.3701 *     7.8414 *  0.0000     4          
   292  Li    c      1.5685 *     7.4495 *    11.7620 *  0.0000     4          
   293  Li    c     13.3305 *    -4.3126 *     0.0000    0.0000     2          
   294  O     c     -8.2332 *    -8.2332       7.8414 *  0.0000     2          
   295  O     c     11.3701 *    -8.2332 *     0.0000    0.0000     2          
   296  Li    c    -14.1143 *    -0.3919 *     0.0000    0.0000     2          
   297  Cl    c     -2.3522 *    -2.3522      13.7224 *  0.0000     2          
   298  Li    c     -2.3522 *     7.4495 *    11.7620 *  0.0000     4          
   299  O     c      7.4495 *    11.3701 *     3.9207 *  0.0000     4          
   300  Li    c     -4.3126 *   -12.1539 *     5.8810 *  0.0000     4          
   301  Li    c     -0.3919 *     3.5288 *    13.7224 *  0.0000     4          
   302  Li    c     11.3701 *    -8.2332 *    -1.9603 *  0.0000     4          
   303  Li    c     -6.2729 *   -12.1539 *     3.9207 *  0.0000     4          
   304  Cl    c      1.5685 *   -10.1936 *     9.8017 *  0.0000     4          
   305  O     c      7.4495 *   -12.1539 *     0.0000    0.0000     2          
   306  O     c      3.5288 *    11.3701 *     7.8414 *  0.0000     4          
   307  Cl    c     -2.3522 *   -10.1936 *     9.8017 *  0.0000     4          
   308  Cl    c      1.5685 *   -14.1143 *    -1.9603 *  0.0000     4          
   309  Li    c      9.4098 *     7.4495 *     7.8414 *  0.0000     4          
   310  Li    c     13.3305 *     3.5288 *     3.9207 *  0.0000     4          
   311  O     c     -0.3919 *    -8.2332 *    11.7620 *  0.0000     4          
   312  O     c      3.5288 *     7.4495 *    11.7620 *  0.0000     4          
   313  Li    c     -0.3919 *    -4.3126 *    13.7224 *  0.0000     4          
   314  Li    c      7.4495 *   -12.1539 *    -1.9603 *  0.0000     4          
   315  Li    c      7.4495 *     7.4495       9.8017 *  0.0000     2          
   316  Cl    c     -2.3522 *   -14.1143 *    -1.9603 *  0.0000     4          
   317  Li    c      1.5685 *    -8.2332 *    11.7620 *  0.0000     4          
   318  O     c     -0.3919 *   -12.1539 *     7.8414 *  0.0000     4          
   319  O     c     11.3701 *    -4.3126 *     7.8414 *  0.0000     4          
   320  Cl    c    -10.1936 *   -10.1936      -1.9603 *  0.0000     2          
   321  Li    c    -14.1143 *     3.5288 *     0.0000    0.0000     2          
   322  Li    c     -2.3522 *    -8.2332 *    11.7620 *  0.0000     4          
   323  Li    c      1.5685 *   -12.1539 *     7.8414 *  0.0000     4          
   324  Li    c     13.3305 *    -4.3126 *     3.9207 *  0.0000     4          
   325  Cl    c      5.4891 *    13.3305 *    -1.9603 *  0.0000     4          
   326  Cl    c      9.4098 *     9.4098       5.8810 *  0.0000     2          
   327  O     c      7.4495 *    -4.3126 *    11.7620 *  0.0000     4          
   328  O     c     11.3701 *    -8.2332 *     3.9207 *  0.0000     4          
   329  Li    c      3.5288 *     3.5288      13.7224 *  0.0000     2          
   330  Li    c    -14.1143 *    -0.3919 *     3.9207 *  0.0000     4          
   331  Li    c     -2.3522 *   -12.1539 *     7.8414 *  0.0000     4          
   332  Cl    c      5.4891 *     9.4098 *     9.8017 *  0.0000     4          
   333  Cl    c      1.5685 *    13.3305 *     5.8810 *  0.0000     4          
   334  O     c     -8.2332 *   -12.1539 *     0.0000    0.0000     2          
   335  Li    c    -14.1143 *    -4.3126 *     0.0000    0.0000     2          
   336  Li    c      9.4098 *    -8.2332 *     7.8414 *  0.0000     4          
   337  Cl    c     13.3305 *    -2.3522 *     5.8810 *  0.0000     4          
   338  Li    c      9.4098 *    11.3701 *     0.0000    0.0000     2          
   339  O     c      7.4495 *   -12.1539 *     3.9207 *  0.0000     4          
   340  O     c      3.5288 *    -8.2332 *    11.7620 *  0.0000     4          
   341  Li    c     -8.2332 *   -12.1539 *    -1.9603 *  0.0000     4          
   342  Li    c      3.5288 *    -4.3126 *    13.7224 *  0.0000     4          
   343  Li    c      7.4495 *    -8.2332 *     9.8017 *  0.0000     4          
   344  Li    c      7.4495 *    11.3701 *     5.8810 *  0.0000     4          
   345  Li    c    -10.1936 *     7.4495 *     7.8414 *  0.0000     4          
   346  Cl    c      1.5685 *     5.4891 *    13.7224 *  0.0000     4          
   347  Cl    c     13.3305 *    -6.2729 *    -1.9603 *  0.0000     4          
   348  Li    c      5.4891 *    11.3701 *     7.8414 *  0.0000     4          
   349  O     c      3.5288 *   -12.1539 *     7.8414 *  0.0000     4          
   350  Cl    c      5.4891 *    -2.3522 *    13.7224 *  0.0000     4          
   351  Cl    c      9.4098 *    -6.2729 *     9.8017 *  0.0000     4          
   352  Li    c      5.4891 *     7.4495 *    11.7620 *  0.0000     4          
   353  O     c     -4.3126 *    -8.2332 *    11.7620 *  0.0000     4          
   354  Li    c     -4.3126 *    -4.3126      13.7224 *  0.0000     2          
   355  Li    c     -0.3919 *    11.3701 *     9.8017 *  0.0000     4          
   356  Li    c    -14.1143 *     3.5288 *     3.9207 *  0.0000     4          
   357  Cl    c      9.4098 *   -10.1936 *     5.8810 *  0.0000     4          
   358  Li    c      9.4098 *    -0.3919 *    11.7620 *  0.0000     4          
   359  O     c     -4.3126 *   -12.1539 *     7.8414 *  0.0000     4          
   360  Cl    c      1.5685 *    -6.2729 *    13.7224 *  0.0000     4          
   361  Cl    c      5.4891 *   -10.1936 *     9.8017 *  0.0000     4          
   362  Li    c     -6.2729 *    11.3701 *     7.8414 *  0.0000     4          
   363  O     c     -8.2332 *   -12.1539 *     3.9207 *  0.0000     4          
   364  Li    c     -8.2332 *    -8.2332       9.8017 *  0.0000     2          
   365  Li    c     11.3701 *    -8.2332 *     5.8810 *  0.0000     4          
   366  Li    c    -10.1936 *    -8.2332 *     7.8414 *  0.0000     4          
   367  Li    c    -14.1143 *    -4.3126 *     3.9207 *  0.0000     4          
   368  Cl    c      5.4891 *   -14.1143 *    -1.9603 *  0.0000     4          
   369  Cl    c     -2.3522 *    -6.2729 *    13.7224 *  0.0000     4          
   370  Li    c    -10.1936 *    11.3701 *     0.0000    0.0000     2          
   371  Li    c     -6.2729 *     7.4495 *    11.7620 *  0.0000     4          
   372  Li    c      9.4098 *    11.3701 *     3.9207 *  0.0000     4          
   373  Li    c     13.3305 *     7.4495 *     0.0000    0.0000     2          
   374  O     c     -0.3919 *    15.2908 *     0.0000    0.0000     2          
   375  Cl    c      1.5685 *   -14.1143 *     5.8810 *  0.0000     4          
   376  Li    c      9.4098 *   -12.1539 *     0.0000    0.0000     2          
   377  Li    c      5.4891 *    -8.2332 *    11.7620 *  0.0000     4          
   378  Li    c      1.5685 *    15.2908 *     0.0000    0.0000     2          
   379  Li    c      7.4495 *   -12.1539 *     5.8810 *  0.0000     4          
   380  Li    c     -0.3919 *    15.2908 *    -1.9603 *  0.0000     4          
   381  Li    c      3.5288 *    11.3701 *     9.8017 *  0.0000     4          
   382  Cl    c     -2.3522 *   -14.1143 *     5.8810 *  0.0000     4          
   383  Cl    c     -6.2729 *   -10.1936 *     9.8017 *  0.0000     4          
   384  Li    c      5.4891 *   -12.1539 *     7.8414 *  0.0000     4          
   385  Li    c     -2.3522 *    15.2908 *     0.0000    0.0000     2          
   386  Li    c      9.4098 *     3.5288 *    11.7620 *  0.0000     4          
   387  Li    c     13.3305 *    -0.3919 *     7.8414 *  0.0000     4          
   388  Cl    c     -6.2729 *   -14.1143 *    -1.9603 *  0.0000     4          
   389  Cl    c    -10.1936 *   -10.1936       5.8810 *  0.0000     2          
   390  Li    c    -10.1936 *    -0.3919 *    11.7620 *  0.0000     4          
   391  Cl    c      5.4891 *    13.3305 *     5.8810 *  0.0000     4          
   392  Li    c     -0.3919 *   -12.1539 *     9.8017 *  0.0000     4          
   393  Li    c     -0.3919 *     7.4495 *    13.7224 *  0.0000     4          
   394  Li    c     11.3701 *    -4.3126 *     9.8017 *  0.0000     4          
   395  Li    c     -6.2729 *    -8.2332 *    11.7620 *  0.0000     4          
   396  Li    c      9.4098 *    -4.3126 *    11.7620 *  0.0000     4          
   397  Li    c     13.3305 *    -8.2332 *     0.0000    0.0000     2          
   398  O     c     -0.3919 *    -0.3919      15.6827 *  0.0000     2          
   399  O     c      7.4495 *    11.3701 *     7.8414 *  0.0000     4          
   400  O     c      3.5288 *    15.2908 *     0.0000    0.0000     2          
   401  Li    c     -6.2729 *   -12.1539 *     7.8414 *  0.0000     4          
   402  Li    c    -10.1936 *    11.3701 *     3.9207 *  0.0000     4          
   403  Li    c      1.5685 *    -0.3919 *    15.6827 *  0.0000     4          
   404  Cl    c      5.4891 *     5.4891      13.7224 *  0.0000     2          
   405  Li    c     13.3305 *     7.4495 *     3.9207 *  0.0000     4          
   406  O     c     -0.3919 *    15.2908 *     3.9207 *  0.0000     4          
   407  O     c      7.4495 *     7.4495      11.7620 *  0.0000     2          
   408  Li    c     -8.2332 *   -12.1539 *     5.8810 *  0.0000     4          
   409  Li    c      3.5288 *    15.2908 *    -1.9603 *  0.0000     4          
   410  Li    c    -10.1936 *   -12.1539 *     0.0000    0.0000     2          
   411  Li    c      9.4098 *   -12.1539 *     3.9207 *  0.0000     4          
   412  Li    c     -2.3522 *    -0.3919 *    15.6827 *  0.0000     4          
   413  Cl    c     13.3305 *    -6.2729 *     5.8810 *  0.0000     4          
   414  Li    c      1.5685 *    15.2908 *     3.9207 *  0.0000     4          
   415  Li    c     13.3305 *     3.5288 *     7.8414 *  0.0000     4          
   416  O     c     15.2908 *    -4.3126 *     0.0000    0.0000     2          
   417  Li    c    -14.1143 *     7.4495 *     0.0000    0.0000     2          
   418  Li    c    -10.1936 *     3.5288 *    11.7620 *  0.0000     4          
   419  Li    c     -2.3522 *    15.2908 *     3.9207 *  0.0000     4          
   420  Li    c     -0.3919 *    -8.2332 *    13.7224 *  0.0000     4          
   421  Li    c      3.5288 *   -12.1539 *     9.8017 *  0.0000     4          
   422  Li    c      3.5288 *     7.4495 *    13.7224 *  0.0000     4          
   423  Li    c     15.2908 *    -4.3126 *    -1.9603 *  0.0000     4          
   424  Cl    c      5.4891 *    -6.2729 *    13.7224 *  0.0000     4          
   425  Li    c     13.3305 *    -4.3126 *     7.8414 *  0.0000     4          
   426  O     c     -0.3919 *   -16.0746 *     0.0000    0.0000     2          
   427  O     c     -0.3919 *     3.5288 *    15.6827 *  0.0000     4          
   428  O     c     11.3701 *    -8.2332 *     7.8414 *  0.0000     4          
   429  O     c     11.3701 *    11.3701       0.0000    0.0000     1          
   430  Li    c    -14.1143 *    -0.3919 *     7.8414 *  0.0000     4          
   431  Li    c      1.5685 *   -16.0746 *     0.0000    0.0000     2          
   432  Li    c    -10.1936 *    -4.3126 *    11.7620 *  0.0000     4          
   433  Li    c      1.5685 *     3.5288 *    15.6827 *  0.0000     4          
   434  Li    c     13.3305 *    -8.2332 *     3.9207 *  0.0000     4          
   435  O     c      7.4495 *    -8.2332 *    11.7620 *  0.0000     4          
   436  O     c      3.5288 *    15.2908 *     3.9207 *  0.0000     4          
   437  Li    c     -0.3919 *   -16.0746 *    -1.9603 *  0.0000     4          
   438  Li    c     -4.3126 *   -12.1539 *     9.8017 *  0.0000     4          
   439  Li    c      7.4495 *    -4.3126 *    13.7224 *  0.0000     4          
   440  Li    c     11.3701 *    11.3701      -1.9603 *  0.0000     2          
   441  Li    c     -2.3522 *   -16.0746 *     0.0000    0.0000     2          
   442  Cl    c      5.4891 *   -14.1143 *     5.8810 *  0.0000     4          
   443  Li    c     -2.3522 *     3.5288 *    15.6827 *  0.0000     4          
   444  Li    c      5.4891 *    15.2908 *     0.0000    0.0000     2          
   445  O     c      7.4495 *   -12.1539 *     7.8414 *  0.0000     4          
   446  O     c     -0.3919 *    -4.3126 *    15.6827 *  0.0000     4          
   447  Li    c    -10.1936 *   -12.1539 *     3.9207 *  0.0000     4          
   448  Li    c    -14.1143 *    -8.2332 *     0.0000    0.0000     2          
   449  Cl    c     -6.2729 *    -6.2729      13.7224 *  0.0000     2          
   450  Li    c      1.5685 *    -4.3126 *    15.6827 *  0.0000     4          
   451  O     c     -0.3919 *    11.3701 *    11.7620 *  0.0000     4          
   452  O     c     15.2908 *    -4.3126 *     3.9207 *  0.0000     4          
   453  Li    c      3.5288 *    -8.2332 *    13.7224 *  0.0000     4          
   454  Li    c     -0.3919 *    15.2908 *     5.8810 *  0.0000     4          
   455  Li    c    -14.1143 *     7.4495 *     3.9207 *  0.0000     4          
   456  Li    c     -2.3522 *    -4.3126 *    15.6827 *  0.0000     4          
   457  Li    c      1.5685 *    11.3701 *    11.7620 *  0.0000     4          
   458  Cl    c      9.4098 *    13.3305 *    -1.9603 *  0.0000     4          
   459  O     c      3.5288 *   -16.0746 *     0.0000    0.0000     2          
   460  O     c      3.5288 *     3.5288      15.6827 *  0.0000     2          
   461  Cl    c     -6.2729 *   -14.1143 *     5.8810 *  0.0000     4          
   462  Li    c    -14.1143 *     3.5288 *     7.8414 *  0.0000     4          
   463  Li    c     -2.3522 *    11.3701 *    11.7620 *  0.0000     4          
   464  Li    c     -6.2729 *    15.2908 *     0.0000    0.0000     2          
   465  Cl    c      9.4098 *     9.4098       9.8017 *  0.0000     2          
   466  O     c     -0.3919 *   -16.0746 *     3.9207 *  0.0000     4          
   467  O     c     -8.2332 *    -8.2332      11.7620 *  0.0000     2          
   468  O     c     11.3701 *    11.3701       3.9207 *  0.0000     2          
   469  Li    c      3.5288 *   -16.0746 *    -1.9603 *  0.0000     4          
   470  Li    c     -4.3126 *    -8.2332 *    13.7224 *  0.0000     4          
   471  Li    c      1.5685 *   -16.0746 *     3.9207 *  0.0000     4          
   472  Li    c      5.4891 *    -0.3919 *    15.6827 *  0.0000     4          
   473  Cl    c      1.5685 *    13.3305 *     9.8017 *  0.0000     4          
   474  O     c     -4.3126 *   -16.0746 *     0.0000    0.0000     2          
   475  O     c     -8.2332 *   -12.1539 *     7.8414 *  0.0000     4          
   476  O     c     11.3701 *   -12.1539 *     0.0000    0.0000     2          
   477  O     c      3.5288 *    -4.3126 *    15.6827 *  0.0000     4          
   478  Li    c     -2.3522 *   -16.0746 *     3.9207 *  0.0000     4          
   479  Li    c    -14.1143 *    -4.3126 *     7.8414 *  0.0000     4          
   480  Cl    c      1.5685 *     9.4098 *    13.7224 *  0.0000     4          
   481  Cl    c     13.3305 *    -2.3522 *     9.8017 *  0.0000     4          
   482  Li    c      5.4891 *    15.2908 *     3.9207 *  0.0000     4          
   483  Li    c      9.4098 *    11.3701 *     7.8414 *  0.0000     4          
   484  O     c      3.5288 *    11.3701 *    11.7620 *  0.0000     4          
   485  Li    c     -4.3126 *   -16.0746 *    -1.9603 *  0.0000     4          
   486  Li    c     11.3701 *   -12.1539 *    -1.9603 *  0.0000     4          
   487  Li    c      7.4495 *    11.3701 *     9.8017 *  0.0000     4          
   488  Li    c      3.5288 *    15.2908 *     5.8810 *  0.0000     4          
   489  Li    c    -14.1143 *    -8.2332 *     3.9207 *  0.0000     4          
   490  Cl    c      9.4098 *    -2.3522 *    13.7224 *  0.0000     4          
   491  Li    c      9.4098 *     7.4495 *    11.7620 *  0.0000     4          
   492  O     c     -4.3126 *    -4.3126      15.6827 *  0.0000     2          
   493  Li    c     -6.2729 *    -0.3919 *    15.6827 *  0.0000     4          
   494  Cl    c     13.3305 *   -10.1936 *    -1.9603 *  0.0000     4          
   495  O     c     -0.3919 *   -12.1539 *    11.7620 *  0.0000     4          
   496  O     c      3.5288 *   -16.0746 *     3.9207 *  0.0000     4          
   497  O     c     11.3701 *    -4.3126 *    11.7620 *  0.0000     4          
   498  Li    c     15.2908 *    -4.3126 *     5.8810 *  0.0000     4          
   499  Li    c      5.4891 *   -16.0746 *     0.0000    0.0000     2          
   500  Li    c      1.5685 *   -12.1539 *    11.7620 *  0.0000     4          
   501  Cl    c      9.4098 *   -10.1936 *     9.8017 *  0.0000     4          
   502  Li    c     -6.2729 *    15.2908 *     3.9207 *  0.0000     4          
   503  Li    c      5.4891 *     3.5288 *    15.6827 *  0.0000     4          
   504  O     c      7.4495 *    15.2908 *     0.0000    0.0000     2          
   505  Li    c     -2.3522 *   -12.1539 *    11.7620 *  0.0000     4          
   506  Cl    c      9.4098 *   -14.1143 *    -1.9603 *  0.0000     4          
   507  O     c     -4.3126 *   -16.0746 *     3.9207 *  0.0000     4          
   508  O     c     11.3701 *   -12.1539 *     3.9207 *  0.0000     4          
   509  Li    c     -0.3919 *   -16.0746 *     5.8810 *  0.0000     4          
   510  Li    c     11.3701 *    -8.2332 *     9.8017 *  0.0000     4          
   511  Li    c     11.3701 *    11.3701       5.8810 *  0.0000     2          
   512  Li    c      7.4495 *    15.2908 *    -1.9603 *  0.0000     4          
   513  Cl    c      1.5685 *   -10.1936 *    13.7224 *  0.0000     4          
   514  Li    c    -10.1936 *    11.3701 *     7.8414 *  0.0000     4          
   515  Li    c      5.4891 *    -4.3126 *    15.6827 *  0.0000     4          
   516  Li    c      9.4098 *    -8.2332 *    11.7620 *  0.0000     4          
   517  Li    c     13.3305 *     7.4495 *     7.8414 *  0.0000     4          
   518  O     c    -12.1539 *   -12.1539       0.0000    0.0000     1          
   519  O     c     -0.3919 *    15.2908 *     7.8414 *  0.0000     4          
   520  Li    c     -6.2729 *   -16.0746 *     0.0000    0.0000     2          
   521  Cl    c      1.5685 *   -14.1143 *     9.8017 *  0.0000     4          
   522  Cl    c     -2.3522 *   -10.1936 *    13.7224 *  0.0000     4          
   523  Li    c    -10.1936 *     7.4495 *    11.7620 *  0.0000     4          
   524  Li    c      9.4098 *   -12.1539 *     7.8414 *  0.0000     4          
   525  Li    c     -6.2729 *     3.5288 *    15.6827 *  0.0000     4          
   526  Li    c     17.2512 *    -0.3919 *     0.0000    0.0000     2          
   527  Li    c      1.5685 *    15.2908 *     7.8414 *  0.0000     4          
   528  Li    c      5.4891 *    11.3701 *    11.7620 *  0.0000     4          
   529  O     c      3.5288 *   -12.1539 *    11.7620 *  0.0000     4          
   530  Li    c    -12.1539 *   -12.1539      -1.9603 *  0.0000     2          
   531  Li    c      7.4495 *   -12.1539 *     9.8017 *  0.0000     4          
   532  Li    c      7.4495 *     7.4495      13.7224 *  0.0000     2          
   533  Cl    c     -2.3522 *   -14.1143 *     9.8017 *  0.0000     4          
   534  Li    c     -2.3522 *    15.2908 *     7.8414 *  0.0000     4          
   535  Cl    c      9.4098 *    13.3305 *     5.8810 *  0.0000     4          
   536  O     c     -0.3919 *     7.4495 *    15.6827 *  0.0000     4          
   537  O     c     15.2908 *    -8.2332 *     0.0000    0.0000     2          
   538  Cl    c    -10.1936 *   -10.1936       9.8017 *  0.0000     2          
   539  Li    c      5.4891 *   -16.0746 *     3.9207 *  0.0000     4          
   540  Li    c     -6.2729 *    -4.3126 *    15.6827 *  0.0000     4          
   541  Li    c      1.5685 *     7.4495 *    15.6827 *  0.0000     4          
   542  Cl    c      1.5685 *    17.2512 *    -1.9603 *  0.0000     4          
   543  Cl    c      5.4891 *    13.3305 *     9.8017 *  0.0000     4          
   544  O     c     -4.3126 *   -12.1539 *    11.7620 *  0.0000     4          
   545  O     c      7.4495 *    15.2908 *     3.9207 *  0.0000     4          
   546  Li    c      3.5288 *   -16.0746 *     5.8810 *  0.0000     4          
   547  Li    c     15.2908 *    -8.2332 *    -1.9603 *  0.0000     4          
   548  Cl    c    -10.1936 *   -14.1143 *    -1.9603 *  0.0000     4          
   549  Li    c     -6.2729 *    11.3701 *    11.7620 *  0.0000     4          
   550  Li    c     -2.3522 *     7.4495 *    15.6827 *  0.0000     4          
   551  Li    c     13.3305 *    -8.2332 *     7.8414 *  0.0000     4          
   552  Cl    c     17.2512 *    -2.3522 *    -1.9603 *  0.0000     4          
   553  Cl    c      5.4891 *     9.4098 *    13.7224 *  0.0000     4          
   554  Li    c     13.3305 *    11.3701 *     0.0000    0.0000     2          
   555  O     c      3.5288 *    15.2908 *     7.8414 *  0.0000     4          
   556  Li    c    -10.1936 *    -8.2332 *    11.7620 *  0.0000     4          
   557  Li    c     17.2512 *     3.5288 *     0.0000    0.0000     2          
   558  O     c    -12.1539 *   -12.1539       3.9207 *  0.0000     2          
   559  Li    c     -4.3126 *   -16.0746 *     5.8810 *  0.0000     4          
   560  Li    c     -8.2332 *   -12.1539 *     9.8017 *  0.0000     4          
   561  Li    c     -0.3919 *    -0.3919      17.6430 *  0.0000     2          
   562  Li    c     11.3701 *   -12.1539 *     5.8810 *  0.0000     4          
   563  Li    c      7.4495 *    -8.2332 *    13.7224 *  0.0000     4          
   564  Li    c     -6.2729 *   -16.0746 *     3.9207 *  0.0000     4          
   565  Li    c    -10.1936 *   -12.1539 *     7.8414 *  0.0000     4          
   566  Cl    c     13.3305 *    -6.2729 *     9.8017 *  0.0000     4          
   567  Li    c     17.2512 *    -0.3919 *     3.9207 *  0.0000     4          
   568  O     c      7.4495 *   -16.0746 *     0.0000    0.0000     2          
   569  O     c     -0.3919 *    -8.2332 *    15.6827 *  0.0000     4          
   570  O     c      3.5288 *     7.4495 *    15.6827 *  0.0000     4          
   571  O     c     15.2908 *    -4.3126 *     7.8414 *  0.0000     4          
   572  Li    c    -14.1143 *     7.4495 *     7.8414 *  0.0000     4          
   573  Li    c      1.5685 *    -8.2332 *    15.6827 *  0.0000     4          
   574  Li    c      5.4891 *   -12.1539 *    11.7620 *  0.0000     4          
   575  Cl    c      1.5685 *     1.5685      17.6430 *  0.0000     2          
   576  Cl    c      9.4098 *    -6.2729 *    13.7224 *  0.0000     4          
   577  Cl    c     13.3305 *   -10.1936 *     5.8810 *  0.0000     4          
   578  Li    c     17.2512 *    -4.3126 *     0.0000    0.0000     2          
   579  Li    c     13.3305 *    -0.3919 *    11.7620 *  0.0000     4          
   580  O     c     15.2908 *    -8.2332 *     3.9207 *  0.0000     4          
   581  Li    c      7.4495 *   -16.0746 *    -1.9603 *  0.0000     4          
   582  Li    c     -0.3919 *    11.3701 *    13.7224 *  0.0000     4          
   583  Li    c     -2.3522 *    -8.2332 *    15.6827 *  0.0000     4          
   584  Cl    c      1.5685 *    -2.3522 *    17.6430 *  0.0000     4          
   585  O     c     -0.3919 *   -16.0746 *     7.8414 *  0.0000     4          
   586  O     c      7.4495 *    -4.3126 *    15.6827 *  0.0000     4          
   587  O     c     11.3701 *    11.3701       7.8414 *  0.0000     2          
   588  Li    c      1.5685 *   -16.0746 *     7.8414 *  0.0000     4          
   589  Cl    c      5.4891 *   -10.1936 *    13.7224 *  0.0000     4          
   590  Cl    c      9.4098 *   -14.1143 *     5.8810 *  0.0000     4          
   591  Cl    c     -2.3522 *    -2.3522      17.6430 *  0.0000     2          
   592  Li    c      9.4098 *    15.2908 *     0.0000    0.0000     2          
   593  Li    c     13.3305 *    11.3701 *     3.9207 *  0.0000     4          
   594  O     c      7.4495 *    11.3701 *    11.7620 *  0.0000     4          
   595  Li    c     -8.2332 *    -8.2332      13.7224 *  0.0000     2          
   596  Li    c     -0.3919 *     3.5288 *    17.6430 *  0.0000     4          
   597  Li    c      7.4495 *    15.2908 *     5.8810 *  0.0000     4          
   598  Li    c     -6.2729 *   -12.1539 *    11.7620 *  0.0000     4          
   599  Li    c    -18.0349 *    -0.3919 *     0.0000    0.0000     2          
   600  Li    c     -2.3522 *   -16.0746 *     7.8414 *  0.0000     4          
   601  Cl    c      5.4891 *   -14.1143 *     9.8017 *  0.0000     4          
   602  Li    c     13.3305 *   -12.1539 *     0.0000    0.0000     2          
   603  Li    c     17.2512 *     3.5288 *     3.9207 *  0.0000     4          
   604  Li    c      5.4891 *    15.2908 *     7.8414 *  0.0000     4          
   605  O     c     -8.2332 *   -16.0746 *     0.0000    0.0000     2          
   606  O     c      3.5288 *    -8.2332 *    15.6827 *  0.0000     4          
   607  Li    c    -14.1143 *    -8.2332 *     7.8414 *  0.0000     4          
   608  Li    c    -14.1143 *    11.3701 *     0.0000    0.0000     2          
   609  Li    c     13.3305 *     3.5288 *    11.7620 *  0.0000     4          
   610  O     c      7.4495 *   -16.0746 *     3.9207 *  0.0000     4          
   611  Li    c     -8.2332 *   -16.0746 *    -1.9603 *  0.0000     4          
   612  Li    c    -12.1539 *   -12.1539       5.8810 *  0.0000     2          
   613  Li    c     -0.3919 *    -4.3126 *    17.6430 *  0.0000     4          
   614  Li    c     -0.3919 *    15.2908 *     9.8017 *  0.0000     4          
   615  Li    c      3.5288 *    11.3701 *    13.7224 *  0.0000     4          
   616  Cl    c      1.5685 *   -18.0349 *    -1.9603 *  0.0000     4          
   617  Cl    c     -6.2729 *   -10.1936 *    13.7224 *  0.0000     4          
   618  Li    c     17.2512 *    -4.3126 *     3.9207 *  0.0000     4          
   619  Li    c      5.4891 *     7.4495 *    15.6827 *  0.0000     4          
   620  Cl    c      5.4891 *    17.2512 *    -1.9603 *  0.0000     4          
   621  O     c      3.5288 *   -16.0746 *     7.8414 *  0.0000     4          
   622  O     c     -4.3126 *    -8.2332 *    15.6827 *  0.0000     4          
   623  Cl    c     -6.2729 *   -14.1143 *     9.8017 *  0.0000     4          
   624  Cl    c     -2.3522 *   -18.0349 *    -1.9603 *  0.0000     4          
   625  Li    c      9.4098 *    -0.3919 *    15.6827 *  0.0000     4          
   626  Li    c     13.3305 *    -4.3126 *    11.7620 *  0.0000     4          
   627  Li    c     -6.2729 *    15.2908 *     7.8414 *  0.0000     4          
   628  Cl    c      1.5685 *    17.2512 *     5.8810 *  0.0000     4          
   629  O     c     11.3701 *    -8.2332 *    11.7620 *  0.0000     4          
   630  Li    c     -0.3919 *   -12.1539 *    13.7224 *  0.0000     4          
   631  Li    c      3.5288 *     3.5288      17.6430 *  0.0000     2          
   632  Li    c     11.3701 *    -4.3126 *    13.7224 *  0.0000     4          
   633  Li    c     15.2908 *    -8.2332 *     5.8810 *  0.0000     4          
   634  Cl    c    -10.1936 *   -14.1143 *     5.8810 *  0.0000     4          
   635  Li    c    -14.1143 *    -0.3919 *    11.7620 *  0.0000     4          
   636  Li    c    -18.0349 *     3.5288 *     0.0000    0.0000     2          
   637  Li    c    -10.1936 *    15.2908 *     0.0000    0.0000     2          
   638  Cl    c     17.2512 *    -2.3522 *     5.8810 *  0.0000     4          
   639  Li    c      9.4098 *    15.2908 *     3.9207 *  0.0000     4          
   640  O     c     -4.3126 *   -16.0746 *     7.8414 *  0.0000     4          
   641  O     c     11.3701 *   -12.1539 *     7.8414 *  0.0000     4          
   642  Li    c    -18.0349 *    -0.3919 *     3.9207 *  0.0000     4          
   643  Li    c     13.3305 *   -12.1539 *     3.9207 *  0.0000     4          
   644  Li    c     -6.2729 *     7.4495 *    15.6827 *  0.0000     4          
   645  Cl    c     17.2512 *    -6.2729 *    -1.9603 *  0.0000     4          
   646  O     c     -8.2332 *   -16.0746 *     3.9207 *  0.0000     4          
   647  O     c      7.4495 *   -12.1539 *    11.7620 *  0.0000     4          
   648  Li    c      3.5288 *    -4.3126 *    17.6430 *  0.0000     4          
   649  Li    c      3.5288 *    15.2908 *     9.8017 *  0.0000     4          
   650  Li    c    -18.0349 *    -4.3126 *     0.0000    0.0000     2          
   651  Li    c    -14.1143 *    11.3701 *     3.9207 *  0.0000     4          
   652  Li    c      5.4891 *    -8.2332 *    15.6827 *  0.0000     4          
   653  Cl    c      1.5685 *     5.4891 *    17.6430 *  0.0000     4          
   654  Li    c    -14.1143 *   -12.1539 *     0.0000    0.0000     2          
   655  Li    c      9.4098 *   -16.0746 *     0.0000    0.0000     2          
   656  Cl    c      5.4891 *    -2.3522 *    17.6430 *  0.0000     4          
   657  Li    c      9.4098 *     3.5288 *    15.6827 *  0.0000     4          
   658  Li    c      7.4495 *   -16.0746 *     5.8810 *  0.0000     4          
   659  Li    c      3.5288 *   -12.1539 *    13.7224 *  0.0000     4          
   660  Li    c     -4.3126 *    -4.3126      17.6430 *  0.0000     2          
   661  Li    c     15.2908 *    -4.3126 *     9.8017 *  0.0000     4          
   662  Li    c      5.4891 *   -16.0746 *     7.8414 *  0.0000     4          
   663  Li    c    -10.1936 *    -0.3919 *    15.6827 *  0.0000     4          
   664  Li    c    -14.1143 *     3.5288 *    11.7620 *  0.0000     4          
   665  O     c      7.4495 *    15.2908 *     7.8414 *  0.0000     4          
   666  Li    c    -18.0349 *     3.5288 *     3.9207 *  0.0000     4          
   667  Li    c     -6.2729 *    -8.2332 *    15.6827 *  0.0000     4          
   668  Cl    c      1.5685 *    -6.2729 *    17.6430 *  0.0000     4          
   669  Li    c      9.4098 *    -4.3126 *    15.6827 *  0.0000     4          
   670  Li    c    -10.1936 *    15.2908 *     3.9207 *  0.0000     4          
   671  Li    c     17.2512 *     7.4495 *     0.0000    0.0000     2          
   672  O     c     -8.2332 *   -12.1539 *    11.7620 *  0.0000     4          
   673  Li    c     -0.3919 *   -16.0746 *     9.8017 *  0.0000     4          
   674  Li    c     -4.3126 *   -12.1539 *    13.7224 *  0.0000     4          
   675  Li    c     11.3701 *    11.3701       9.8017 *  0.0000     2          
   676  Li    c    -14.1143 *    -4.3126 *    11.7620 *  0.0000     4          
   677  Cl    c     -2.3522 *    -6.2729 *    17.6430 *  0.0000     4          
   678  Li    c      9.4098 *    11.3701 *    11.7620 *  0.0000     4          
   679  O     c    -12.1539 *   -12.1539       7.8414 *  0.0000     2          
   680  O     c      7.4495 *     7.4495      15.6827 *  0.0000     2          
   681  Li    c    -18.0349 *    -4.3126 *     3.9207 *  0.0000     4          
   682  Li    c     -6.2729 *   -16.0746 *     7.8414 *  0.0000     4          
   683  Cl    c      5.4891 *   -18.0349 *    -1.9603 *  0.0000     4          
   684  Li    c     17.2512 *    -0.3919 *     7.8414 *  0.0000     4          
   685  Cl    c     13.3305 *    13.3305      -1.9603 *  0.0000     2          
   686  Li    c     -8.2332 *   -16.0746 *     5.8810 *  0.0000     4          
   687  Li    c    -10.1936 *   -16.0746 *     0.0000    0.0000     2          
   688  Li    c    -14.1143 *   -12.1539 *     3.9207 *  0.0000     4          
   689  Cl    c      1.5685 *   -18.0349 *     5.8810 *  0.0000     4          
   690  Li    c      9.4098 *   -16.0746 *     3.9207 *  0.0000     4          
   691  Li    c    -10.1936 *     3.5288 *    15.6827 *  0.0000     4          
   692  Cl    c      5.4891 *    17.2512 *     5.8810 *  0.0000     4          
   693  Cl    c      9.4098 *    13.3305 *     9.8017 *  0.0000     4          
   694  O     c     15.2908 *    -8.2332 *     7.8414 *  0.0000     4          
   695  O     c     11.3701 *    15.2908 *     0.0000    0.0000     2          
   696  Cl    c     -2.3522 *   -18.0349 *     5.8810 *  0.0000     4          
   697  Li    c     17.2512 *    -8.2332 *     0.0000    0.0000     2          
   698  Cl    c      9.4098 *     9.4098      13.7224 *  0.0000     2          
   699  Li    c      3.5288 *   -16.0746 *     9.8017 *  0.0000     4          
[...]
   1057 y        -15.682702    -15.682682     0.000020    Cartesian   -0.00
   1057 z          3.920675      3.920684     0.000008    Cartesian    0.00
   1058 x          1.960338      1.962900     0.002562    Cartesian    0.13
   1058 y        -17.643040    -17.635197     0.007843    Cartesian   -0.04
   1058 z         -1.960338     -1.961070    -0.000732    Cartesian    0.04
   1059 x         -5.881013     -5.875544     0.005469    Cartesian   -0.09
   1059 y         -9.801689     -9.795548     0.006140    Cartesian   -0.06
   1059 z         13.722364     13.716445    -0.005919    Cartesian   -0.04
   1060 x          5.881013      5.885122     0.004108    Cartesian    0.07
   1060 y         17.643040     17.637475    -0.005564    Cartesian   -0.03
   1060 z         -1.960338     -1.960555    -0.000217    Cartesian    0.01
   1061 x          3.920675      3.920558    -0.000118    Cartesian   -0.00
   1061 y        -15.682702    -15.682167     0.000535    Cartesian   -0.00
   1061 z          7.841351      7.842547     0.001196    Cartesian    0.02
   1062 x         -3.920675     -3.919084     0.001592    Cartesian   -0.04
   1062 y         -7.841351     -7.840529     0.000822    Cartesian   -0.01
   1062 z         15.682702     15.680994    -0.001708    Cartesian   -0.01
   1063 x         -5.881013     -5.876090     0.004923    Cartesian   -0.08
   1063 y        -13.722364    -13.714695     0.007670    Cartesian   -0.06
   1063 z          9.801689      9.798334    -0.003355    Cartesian   -0.03
   1064 x         -1.960338     -1.958976     0.001362    Cartesian   -0.07
   1064 y        -17.643040    -17.635141     0.007899    Cartesian   -0.04
   1064 z         -1.960338     -1.960744    -0.000406    Cartesian    0.02
   1065 x          1.960338      1.962662     0.002325    Cartesian    0.12
   1065 y         17.643040     17.638736    -0.004303    Cartesian   -0.02
   1065 z          5.881013      5.880374    -0.000639    Cartesian   -0.01
   1066 x         11.762026     11.763626     0.001600    Cartesian    0.01
   1066 y         -7.841351     -7.841530    -0.000179    Cartesian    0.00
   1066 z         11.762026     11.763106     0.001080    Cartesian    0.01
   1067 x         -9.801689     -9.796553     0.005135    Cartesian   -0.05
   1067 y        -13.722364    -13.714472     0.007892    Cartesian   -0.06
   1067 z          5.881013      5.877555    -0.003458    Cartesian   -0.06
   1068 x         17.643040     17.639839    -0.003201    Cartesian   -0.02
   1068 y         -1.960338     -1.957160     0.003178    Cartesian   -0.16
   1068 z          5.881013      5.879348    -0.001666    Cartesian   -0.03
   1069 x         -3.920675     -3.919011     0.001664    Cartesian   -0.04
   1069 y        -15.682702    -15.679505     0.003197    Cartesian   -0.02
   1069 z          7.841351      7.841003    -0.000348    Cartesian   -0.00
   1070 x         11.762026     11.763943     0.001916    Cartesian    0.02
   1070 y        -11.762026    -11.763174    -0.001147    Cartesian    0.01
   1070 z          7.841351      7.842113     0.000762    Cartesian    0.01
   1071 x         17.643040     17.640022    -0.003018    Cartesian   -0.02
   1071 y         -5.881013     -5.877416     0.003597    Cartesian   -0.06
   1071 z         -1.960338     -1.959716     0.000621    Cartesian   -0.03
   1072 x         -7.841351     -7.840499     0.000852    Cartesian   -0.01
   1072 y        -15.682702    -15.679251     0.003451    Cartesian   -0.02
   1072 z          3.920675      3.919238    -0.001438    Cartesian   -0.04
   1073 x          7.841351      7.841107    -0.000244    Cartesian   -0.00
   1073 y        -11.762026    -11.762822    -0.000795    Cartesian    0.01
   1073 z         11.762026     11.763509     0.001482    Cartesian    0.01
   1074 x          1.960338      1.962713     0.002375    Cartesian    0.12
   1074 y          5.881013      5.882870     0.001857    Cartesian    0.03
   1074 z         17.643040     17.635849    -0.007191    Cartesian   -0.04
   1075 x          5.881013      5.881275     0.000261    Cartesian    0.00
   1075 y         -1.960338     -1.957897     0.002441    Cartesian   -0.12
   1075 z         17.643040     17.636449    -0.006591    Cartesian   -0.04
   1076 x          7.841351      7.843141     0.001790    Cartesian    0.02
   1076 y         15.682702     15.684970     0.002268    Cartesian    0.01
   1076 z          7.841351      7.843046     0.001695    Cartesian    0.02
   1077 x          1.960338      1.961327     0.000989    Cartesian    0.05
   1077 y         -5.881013     -5.876964     0.004049    Cartesian   -0.07
   1077 z         17.643040     17.635960    -0.007080    Cartesian   -0.04
   1078 x         -7.841351     -7.838183     0.003168    Cartesian   -0.04
   1078 y        -11.762026    -11.758210     0.003816    Cartesian   -0.03
   1078 z         11.762026     11.759196    -0.002830    Cartesian   -0.02
   1079 x         -1.960338     -1.957571     0.002767    Cartesian   -0.14
   1079 y         -5.881013     -5.876758     0.004255    Cartesian   -0.07
   1079 z         17.643040     17.635650    -0.007390    Cartesian   -0.04
   1080 x        -11.762026    -11.758503     0.003524    Cartesian   -0.03
   1080 y        -11.762026    -11.758503     0.003524    Cartesian   -0.03
   1080 z          7.841351      7.838738    -0.002613    Cartesian   -0.03
   1081 x          7.841351      7.843036     0.001685    Cartesian    0.02
   1081 y          7.841351      7.843036     0.001685    Cartesian    0.02
   1081 z         15.682702     15.684422     0.001720    Cartesian    0.01
   1082 x          5.881013      5.880458    -0.000555    Cartesian   -0.01
   1082 y        -17.643040    -17.635127     0.007913    Cartesian   -0.04
   1082 z         -1.960338     -1.959546     0.000792    Cartesian   -0.04
   1083 x         13.722364     13.718809    -0.003555    Cartesian   -0.03
   1083 y         13.722364     13.718809    -0.003555    Cartesian   -0.03
   1083 z         -1.960338     -1.959447     0.000891    Cartesian   -0.05
   1084 x          1.960338      1.960910     0.000572    Cartesian    0.03
   1084 y        -17.643040    -17.634873     0.008166    Cartesian   -0.05
   1084 z          5.881013      5.878864    -0.002149    Cartesian   -0.04
   1085 x          5.881013      5.882494     0.001480    Cartesian    0.03
   1085 y         17.643040     17.636630    -0.006409    Cartesian   -0.04
   1085 z          5.881013      5.879459    -0.001555    Cartesian   -0.03
   1086 x          9.801689      9.801868     0.000180    Cartesian    0.00
   1086 y         13.722364     13.720622    -0.001742    Cartesian   -0.01
   1086 z          9.801689      9.797287    -0.004402    Cartesian   -0.04
   1087 x         15.682702     15.683392     0.000690    Cartesian    0.00
   1087 y         -7.841351     -7.841439    -0.000088    Cartesian    0.00
   1087 z          7.841351      7.841712     0.000361    Cartesian    0.00
   1088 x         11.762026     11.762683     0.000656    Cartesian    0.01
   1088 y         15.682702     15.682106    -0.000596    Cartesian   -0.00
   1088 z          0.000000      0.000000     0.000000    Cartesian    0.00
   1089 x         -1.960338     -1.958090     0.002248    Cartesian   -0.11
   1089 y        -17.643040    -17.634108     0.008932    Cartesian   -0.05
   1089 z          5.881013      5.878749    -0.002264    Cartesian   -0.04
   1090 x          9.801689      9.802203     0.000514    Cartesian    0.01
   1090 y          9.801689      9.802203     0.000514    Cartesian    0.01
   1090 z         13.722364     13.718029    -0.004336    Cartesian   -0.03
   1091 x         -5.881013     -5.877190     0.003823    Cartesian   -0.07
   1091 y        -17.643040    -17.633842     0.009198    Cartesian   -0.05
   1091 z         -1.960338     -1.959504     0.000833    Cartesian   -0.04
   1092 x          1.960338      1.961573     0.001235    Cartesian    0.06
   1092 y         13.722364     13.720150    -0.002214    Cartesian   -0.02
   1092 z         13.722364     13.716712    -0.005652    Cartesian   -0.04
   1093 x          7.841351      7.839734    -0.001617    Cartesian   -0.02
   1093 y         -7.841351     -7.839009     0.002342    Cartesian   -0.03
   1093 z         15.682702     15.679561    -0.003141    Cartesian   -0.02
   1094 x          0.000000      0.000246     0.000246    Cartesian    0.00
   1094 y         19.603377     19.603080    -0.000297    Cartesian   -0.00
   1094 z          0.000000      0.000000     0.000000    Cartesian    0.00
   1095 x         17.643040     17.636994    -0.006045    Cartesian   -0.03
   1095 y         -5.881013     -5.876621     0.004392    Cartesian   -0.07
   1095 z          5.881013      5.879048    -0.001965    Cartesian   -0.03
   1096 x          5.881013      5.881192     0.000179    Cartesian    0.00
   1096 y          5.881013      5.881192     0.000179    Cartesian    0.00
   1096 z         17.643040     17.633915    -0.009125    Cartesian   -0.05
   1097 x         13.722364     13.719437    -0.002928    Cartesian   -0.02
   1097 y         -1.960338     -1.956503     0.003834    Cartesian   -0.20
   1097 z         13.722364     13.716083    -0.006282    Cartesian   -0.05
   1098 x          0.000000      0.000785     0.000785    Cartesian    0.00
   1098 y         15.682702     15.681227    -0.001475    Cartesian   -0.01
   1098 z         11.762026     11.760662    -0.001365    Cartesian   -0.01
   1099 x          7.841351      7.840038    -0.001313    Cartesian   -0.02
   1099 y        -15.682702    -15.678933     0.003769    Cartesian   -0.02
   1099 z          7.841351      7.839924    -0.001427    Cartesian   -0.02
   1100 x          0.000000      0.000606     0.000606    Cartesian    0.00
   1100 y         11.762026     11.760713    -0.001314    Cartesian   -0.01
   1100 z         15.682702     15.680459    -0.002243    Cartesian   -0.01
   1101 x         13.722364     13.719921    -0.002444    Cartesian   -0.02
   1101 y         -9.801689     -9.796734     0.004954    Cartesian   -0.05
   1101 z          9.801689      9.799025    -0.002664    Cartesian   -0.03
   1102 x         11.762026     11.761439    -0.000587    Cartesian   -0.00
   1102 y         15.682702     15.681881    -0.000821    Cartesian   -0.01
   1102 z          3.920675      3.921151     0.000476    Cartesian    0.01
   1103 x          5.881013      5.879929    -0.001084    Cartesian   -0.02
   1103 y         -5.881013     -5.876765     0.004249    Cartesian   -0.07
   1103 z         17.643040     17.634183    -0.008857    Cartesian   -0.05
   1104 x          9.801689      9.799252    -0.002437    Cartesian   -0.02
   1104 y         -9.801689     -9.795948     0.005741    Cartesian   -0.06
   1104 z         13.722364     13.716103    -0.006261    Cartesian   -0.05
   1105 x         13.722364     13.718760    -0.003604    Cartesian   -0.03
   1105 y        -13.722364    -13.715570     0.006795    Cartesian   -0.05
   1105 z         -1.960338     -1.959212     0.001126    Cartesian   -0.06
   1106 x         -7.841351     -7.838155     0.003196    Cartesian   -0.04
   1106 y         -7.841351     -7.838155     0.003196    Cartesian   -0.04
   1106 z         15.682702     15.678349    -0.004353    Cartesian   -0.03
   1107 x         15.682702     15.680547    -0.002155    Cartesian   -0.01
   1107 y        -11.762026    -11.760112     0.001915    Cartesian   -0.02
   1107 z          0.000000      0.000000     0.000000    Cartesian    0.00
   1108 x          3.920675      3.921495     0.000819    Cartesian    0.02
   1108 y         19.603377     19.603599     0.000221    Cartesian    0.00
   1108 z          0.000000      0.000000     0.000000    Cartesian    0.00
   1109 x          9.801689      9.799464    -0.002225    Cartesian   -0.02
   1109 y        -13.722364    -13.714603     0.007761    Cartesian   -0.06
   1109 z          9.801689      9.798391    -0.003298    Cartesian   -0.03
   1110 x          0.000000      0.000254     0.000254    Cartesian    0.00
   1110 y          0.000000      0.000254     0.000254    Cartesian *******
   1110 z         19.603377     19.601903    -0.001475    Cartesian   -0.01
   1111 x          0.000000      0.000487     0.000487    Cartesian    0.00
   1111 y         19.603377     19.601497    -0.001880    Cartesian   -0.01
   1111 z          3.920675      3.919417    -0.001258    Cartesian   -0.03
   1112 x          3.920675      3.919927    -0.000749    Cartesian   -0.02
   1112 y         15.682702     15.680340    -0.002362    Cartesian   -0.02
   1112 z         11.762026     11.760055    -0.001972    Cartesian   -0.02
   1113 x         -7.841351     -7.838527     0.002824    Cartesian   -0.04
   1113 y        -15.682702    -15.677507     0.005195    Cartesian   -0.03
   1113 z          7.841351      7.838826    -0.002525    Cartesian   -0.03
   1114 x         11.762026     11.760742    -0.001284    Cartesian   -0.01
   1114 y        -15.682702    -15.680463     0.002239    Cartesian   -0.01
   1114 z          0.000000      0.000000     0.000000    Cartesian    0.00
   1115 x         19.603377     19.601779    -0.001598    Cartesian   -0.01
   1115 y         -3.920675     -3.919113     0.001562    Cartesian   -0.04
   1115 z          0.000000      0.000000     0.000000    Cartesian    0.00
   1116 x          3.920675      3.919758    -0.000917    Cartesian   -0.02
   1116 y         11.762026     11.760378    -0.001648    Cartesian   -0.01
   1116 z         15.682702     15.679465    -0.003237    Cartesian   -0.02
   1117 x          5.881013      5.879863    -0.001150    Cartesian   -0.02
   1117 y        -17.643040    -17.633254     0.009786    Cartesian   -0.06
   1117 z          5.881013      5.878687    -0.002326    Cartesian   -0.04
   1118 x          1.960338      1.960446     0.000108    Cartesian    0.01
   1118 y        -13.722364    -13.714332     0.008032    Cartesian   -0.06
   1118 z         13.722364     13.716325    -0.006039    Cartesian   -0.04
   1119 x         -5.881013     -5.876603     0.004410    Cartesian   -0.07
   1119 y         -5.881013     -5.876603     0.004410    Cartesian   -0.07
   1119 z         17.643040     17.633681    -0.009358    Cartesian   -0.05
   1120 x          9.801689      9.800042    -0.001647    Cartesian   -0.02
   1120 y         17.643040     17.633750    -0.009290    Cartesian   -0.05
   1120 z         -1.960338     -1.959255     0.001083    Cartesian   -0.06
   1121 x         13.722364     13.717197    -0.005167    Cartesian   -0.04
   1121 y         13.722364     13.717197    -0.005167    Cartesian   -0.04
   1121 z          5.881013      5.877871    -0.003142    Cartesian   -0.05
   1122 x         15.682702     15.679568    -0.003134    Cartesian   -0.02
   1122 y         -3.920675     -3.918319     0.002356    Cartesian   -0.06
   1122 z         11.762026     11.759139    -0.002888    Cartesian   -0.02
   1123 x         -1.960338     -1.957960     0.002377    Cartesian   -0.12
   1123 y        -13.722364    -13.713365     0.008999    Cartesian   -0.07
   1123 z         13.722364     13.715321    -0.007043    Cartesian   -0.05
   1124 x          0.000000      0.000185     0.000185    Cartesian    0.00
   1124 y        -11.762026    -11.759390     0.002636    Cartesian   -0.02
   1124 z         15.682702     15.679586    -0.003116    Cartesian   -0.02
   1125 x         11.762026     11.759542    -0.002485    Cartesian   -0.02
   1125 y         -3.920675     -3.918064     0.002612    Cartesian   -0.07
   1125 z         15.682702     15.678522    -0.004180    Cartesian   -0.03
   1126 x         -9.801689     -9.794341     0.007348    Cartesian   -0.07
   1126 y         -9.801689     -9.794341     0.007348    Cartesian   -0.07
   1126 z         13.722364     13.713552    -0.008812    Cartesian   -0.06
   1127 x          1.960338      1.961372     0.001034    Cartesian    0.05
   1127 y         17.643040     17.634858    -0.008181    Cartesian   -0.05
   1127 z          9.801689      9.796778    -0.004910    Cartesian   -0.05
   1128 x          5.881013      5.879997    -0.001016    Cartesian   -0.02
   1128 y         13.722364     13.717343    -0.005021    Cartesian   -0.04
   1128 z         13.722364     13.714781    -0.007583    Cartesian   -0.06
   1129 x          0.000000      0.001251     0.001251    Cartesian    0.00
   1129 y        -15.682702    -15.678153     0.004549    Cartesian   -0.03
   1129 z         11.762026     11.759350    -0.002677    Cartesian   -0.02
   1130 x          0.000000      0.001652     0.001652    Cartesian    0.00
   1130 y          3.920675      3.919785    -0.000890    Cartesian   -0.02
   1130 z         19.603377     19.598978    -0.004400    Cartesian   -0.02
   1131 x         15.682702     15.678981    -0.003721    Cartesian   -0.02
   1131 y        -11.762026    -11.758905     0.003122    Cartesian   -0.03
   1131 z          3.920675      3.919183    -0.001492    Cartesian   -0.04
   1132 x          3.920675      3.919978    -0.000698    Cartesian   -0.02
   1132 y         19.603377     19.599299    -0.004078    Cartesian   -0.02
   1132 z          3.920675      3.918932    -0.001743    Cartesian   -0.04
   1133 x         11.762026     11.759990    -0.002036    Cartesian   -0.02
   1133 y         11.762026     11.759990    -0.002036    Cartesian   -0.02
   1133 z         11.762026     11.758969    -0.003057    Cartesian   -0.03
   1134 x         -9.801689     -9.794821     0.006868    Cartesian   -0.07
   1134 y        -13.722364    -13.712125     0.010240    Cartesian   -0.07
   1134 z          9.801689      9.795980    -0.005709    Cartesian   -0.06
   1135 x         -5.881013     -5.876554     0.004460    Cartesian   -0.08
   1135 y        -17.643040    -17.631400     0.011640    Cartesian   -0.07
   1135 z          5.881013      5.877408    -0.003605    Cartesian   -0.06
   1136 x         17.643040     17.634805    -0.008234    Cartesian   -0.05
   1136 y         -1.960338     -1.956632     0.003705    Cartesian   -0.19
   1136 z          9.801689      9.796591    -0.005098    Cartesian   -0.05
   1137 x          0.000000      0.000610     0.000610    Cartesian    0.00
   1137 y        -19.603377    -19.595320     0.008057    Cartesian   -0.04
   1137 z          0.000000      0.000000     0.000000    Cartesian    0.00
--------------------------------------------------------------------------------


  Time to end of optimisation  =      499.5310 seconds


  Peak dynamic memory used =    1258.56 MB 


  Timing analysis for GULP :

--------------------------------------------------------------------------------
  Task / Subroutine                                          Time (Seconds)
--------------------------------------------------------------------------------
  Calculation of reciprocal space energy and derivatives          0.0002
  Calculation of reciprocal space energy using symmetry           0.0003
  Calculation of real space energy and derivatives                0.0016
  Calculation of real space energy using symmetry                 0.0034
  Calculation for region 1 energy and derivatives (2-b)         160.5705
  Calculation for region 2a energy                               57.6916
  Calculation for region 2b energy                                0.0052
  Calculation and manipulation of Hessian matrix                249.7595
  Calculation of matrix inversion                                30.0885
  Symmetry generation of equivalent positions                     0.0019
--------------------------------------------------------------------------------
  Total CPU time                                                499.5311
--------------------------------------------------------------------------------


  Dump file written as Li3OCl.grs


  Job Finished at 12:53.52 28th October    2020                               

