********************************************************************************
*                       GENERAL UTILITY LATTICE PROGRAM                        *
*                                 Julian Gale                                  *
*                       Curtin Institute for Computation                       *
*                    School of Molecular and Life Sciences                     *
*                    Curtin University, Western Australia                      *
********************************************************************************
* Version = 5.2.0 * Last modified =  10th September 2020                       *
********************************************************************************
*  optimise     - perform optimisation run                                     *
*  conp         - constant pressure calculation                                *
*  property     - calculate properties for final geometry                      *
*  defect       - perform defect calculation after bulk run                    *
*  compare      - compare initial and final structures                         *
********************************************************************************

  Job Started  at 15:23.09 28th October    2020                               

  Number of CPUs =     1


  Total number of configurations input =      1

********************************************************************************
*  Input for Configuration =   1                                               *
********************************************************************************

  Formula = ClOLi3                                                      

  Number of irreducible atoms/shells =       5


  Total number atoms/shells =       7

  Dimensionality = 3               :  Bulk   


  Symmetry :

  Crystal family                   :  Cubic       
  Crystal class  (Groth - 1921)    :  Cubic Hexakisoctahedral              

  Space group (centrosymmetric)    :  P M 3 M         

  Patterson group                  :  P m -3 m 

  Cartesian lattice vectors (Angstroms) :

        3.918873    0.000000    0.000000
        0.000000    3.918873    0.000000
        0.000000    0.000000    3.918873

  Cell parameters (Angstroms/Degrees):

  a =       3.9189    alpha =  90.0000
  b =       3.9189    beta  =  90.0000
  c =       3.9189    gamma =  90.0000

  Initial cell volume =          60.184349 Angs**3

  Temperature of configuration =   0.00     K 

  Pressure of configuration =         0.000 GPa 

  Fractional coordinates of asymmetric unit :

--------------------------------------------------------------------------------
   No.  Atomic       x           y          z         Charge      Occupancy
        Label      (Frac)      (Frac)     (Frac)        (e)         (Frac)  
--------------------------------------------------------------------------------
      1 Cl    c    0.500000    0.500000    0.500000     1.48500    1.000000    
      2 O     c    0.000000    0.000000    0.000000     0.18300    1.000000    
      3 Li    c    0.500000    0.000000    0.000000     1.00000    1.000000    
      4 Cl    s    0.500000    0.500000    0.500000    -2.48500    1.000000    
      5 O     s    0.000000    0.000000    0.000000    -2.18300    1.000000    
--------------------------------------------------------------------------------


  Constraints : 

--------------------------------------------------------------------------------
  Constraint no.      Unconstrained     Constrained    Coefficient    Offset
                         Variable         Variable
--------------------------------------------------------------------------------
           1              Strain 1        Strain 2       1.00000      0.0000
           2              Strain 1        Strain 3       1.00000      0.0000
--------------------------------------------------------------------------------


********************************************************************************
*  General input information                                                   *
********************************************************************************

  Species output for all configurations : 

--------------------------------------------------------------------------------
  Species    Type    Atomic    Atomic    Charge       Radii (Angs)     Library
                     Number     Mass       (e)     Cova   Ionic  VDW   Symbol
--------------------------------------------------------------------------------
    Li       Core        3       6.94   1.000000   0.680  0.000  1.800          
    O        Core        8      16.00   0.183000   0.730  0.000  1.360          
    O        Shell       8       0.00  -2.183000   0.730  0.000  1.360          
    Cl       Core       17      35.45   1.485000   0.990  0.000  1.650          
    Cl       Shell      17       0.00  -2.485000   0.990  0.000  1.650          
--------------------------------------------------------------------------------


  Lattice summation method               =    Ewald          (3-D)
                                         =    Parry          (2-D)
                                         =    Saunders et al (1-D)
  Accuracy factor for lattice sums       =   12.000


  Analytic derivatives to be used

  Time limit = Infinity

  Maximum range for interatomic potentials =    100000.000000 Angstroms

  General interatomic potentials :

--------------------------------------------------------------------------------
Atom  Types   Potential      Parameter       Value         Units   Cutoffs(Ang)
  1     2                                                            Min /  Max 
--------------------------------------------------------------------------------
O    c O    s Spring (c-s)  Spring k 2       593.72000    eV*Ang^-2 0.000  0.800
                            Spring k 4       0.0000000    eV*Ang^-4 
--------------------------------------------------------------------------------
Cl   c Cl   s Spring (c-s)  Spring k 2       29.380000    eV*Ang^-2 0.000  0.800
                            Spring k 4       0.0000000    eV*Ang^-4 
--------------------------------------------------------------------------------
Li   c Li   c Buckingham    Buckingham A     360.53000    eV        0.000 12.000
                            Buckingham rho  0.16100000    Ang       
                            Buckingham C     0.0000000    eV*Ang^6  
--------------------------------------------------------------------------------
Li   c O    s Buckingham    Buckingham A     292.30000    eV        0.000 12.000
                            Buckingham rho  0.34720000    Ang       
                            Buckingham C     0.0000000    eV*Ang^6  
--------------------------------------------------------------------------------
Li   c Cl   s Buckingham    Buckingham A     421.04000    eV        0.000 12.000
                            Buckingham rho  0.33400000    Ang       
                            Buckingham C     0.0000000    eV*Ang^6  
--------------------------------------------------------------------------------
O    s O    s Buckingham    Buckingham A     22764.300    eV        0.000 12.000
                            Buckingham rho  0.14900000    Ang       
                            Buckingham C     13.190000    eV*Ang^6  
--------------------------------------------------------------------------------
O    s Cl   s Buckingham    Buckingham A     8286.9100    eV        0.000 12.000
                            Buckingham rho  0.25900000    Ang       
                            Buckingham C     62.200000    eV*Ang^6  
--------------------------------------------------------------------------------
Cl   s Cl   s Buckingham    Buckingham A     1227.2000    eV        0.000 12.000
                            Buckingham rho  0.32100000    Ang       
                            Buckingham C     14.530000    eV*Ang^6  
--------------------------------------------------------------------------------

********************************************************************************
*  Output for configuration   1                                                *
********************************************************************************


  Components of energy : 

--------------------------------------------------------------------------------
  Interatomic potentials     =           7.26836263 eV    
  Monopole - monopole (real) =         -11.53475722 eV    
  Monopole - monopole (recip)=         -33.94580548 eV    
  Monopole - monopole (total)=         -45.48056271 eV    
--------------------------------------------------------------------------------
  Total lattice energy       =         -38.21220008 eV    
--------------------------------------------------------------------------------
  Total lattice energy       =           -3686.8932 kJ/(mole unit cells)
--------------------------------------------------------------------------------


  Number of variables =        1

  Maximum number of calculations  =          1000
  Maximum Hessian update interval =            10
  Maximum step size               =   1.000000000
  Maximum parameter tolerance     =   0.000010000
  Maximum function  tolerance     =   0.000010000
  Maximum gradient  tolerance     =   0.001000000
  Maximum gradient  component     =   0.010000000

  Symmetry constrained optimisation

  Symmetry used for second derivatives

  Cell parameters to be optimised using strains

  Newton-Raphson optimiser to be used

  BFGS hessian update to be used

  Lower half triangular hessian to be used

  Start of bulk optimisation :

  Cycle:      0 Energy:       -38.212200  Gnorm:      0.095699  CPU:    0.012
  ** Hessian calculated **
  Cycle:      1 Energy:       -38.212222  Gnorm:      0.000105  CPU:    0.014


  **** Optimisation achieved ****


  Final energy =     -38.21222207 eV
  Final Gnorm  =       0.00000001

  Components of energy : 

--------------------------------------------------------------------------------
  Interatomic potentials     =           7.24743137 eV    
  Monopole - monopole (real) =         -11.52945422 eV    
  Monopole - monopole (recip)=         -33.93019921 eV    
  Monopole - monopole (total)=         -45.45965344 eV    
--------------------------------------------------------------------------------
  Total lattice energy       =         -38.21222207 eV    
--------------------------------------------------------------------------------
  Total lattice energy       =           -3686.8953 kJ/(mole unit cells)
--------------------------------------------------------------------------------

  Final asymmetric unit coordinates :

--------------------------------------------------------------------------------
   No.  Atomic        x           y           z         Radius
        Label       (Frac)      (Frac)      (Frac)       (Angs) 
--------------------------------------------------------------------------------
     1  Cl    c     0.500000    0.500000    0.500000    0.000000
     2  O     c     0.000000    0.000000    0.000000    0.000000
     3  Li    c     0.500000    0.000000    0.000000    0.000000
     4  Cl    s     0.500000    0.500000    0.500000    0.000000
     5  O     s     0.000000    0.000000    0.000000    0.000000
--------------------------------------------------------------------------------

  Final Cartesian lattice vectors (Angstroms) :

        3.920675    0.000000    0.000000
        0.000000    3.920675    0.000000
        0.000000    0.000000    3.920675


  Final cell parameters and derivatives :

--------------------------------------------------------------------------------
       a            3.920675 Angstrom     dE/de1(xx)     0.000000 eV/strain
       b            3.920675 Angstrom     dE/de2(yy)     0.000000 eV/strain
       c            3.920675 Angstrom     dE/de3(zz)     0.000000 eV/strain
       alpha       90.000000 Degrees      dE/de4(yz)     0.000000 eV/strain
       beta        90.000000 Degrees      dE/de5(xz)     0.000000 eV/strain
       gamma       90.000000 Degrees      dE/de6(xy)     0.000000 eV/strain
--------------------------------------------------------------------------------

  Primitive cell volume =            60.267433 Angs**3

  Density of cell =      1.991276 g/cm**3

  Non-primitive cell volume =            60.267433 Angs**3


  Final internal derivatives :

--------------------------------------------------------------------------------
   No.  Atomic          a             b             c           Radius
        Label          (eV)          (eV)          (eV)        (eV/Angs)
--------------------------------------------------------------------------------
      1 Cl    c       0.000000      0.000000      0.000000      0.000000
      2 O     c       0.000000      0.000000      0.000000      0.000000
      3 Li    c       0.000000      0.000000      0.000000      0.000000
      4 Cl    s       0.000000      0.000000      0.000000      0.000000
      5 O     s       0.000000      0.000000      0.000000      0.000000
--------------------------------------------------------------------------------
  Maximum abs         0.000000      0.000000      0.000000      0.000000
--------------------------------------------------------------------------------

  Comparison of initial and final structures : 

--------------------------------------------------------------------------------
  Parameter   Initial value   Final value   Difference    Units      Percent
--------------------------------------------------------------------------------
    Volume        60.184349     60.267433     0.083084    Angs**3      0.14
    a              3.918873      3.920675     0.001802    Angstroms    0.05
    b              3.918873      3.920675     0.001802    Angstroms    0.05
    c              3.918873      3.920675     0.001802    Angstroms    0.05
    alpha         90.000000     90.000000     0.000000    Degrees      0.00
    beta          90.000000     90.000000     0.000000    Degrees      0.00
    gamma         90.000000     90.000000     0.000000    Degrees      0.00
      1 x          0.500000      0.500000     0.000000    Fractional   0.00
      1 y          0.500000      0.500000     0.000000    Fractional   0.00
      1 z          0.500000      0.500000     0.000000    Fractional   0.00
      2 x          0.000000      0.000000     0.000000    Fractional   0.00
      2 y          0.000000      0.000000     0.000000    Fractional   0.00
      2 z          0.000000      0.000000     0.000000    Fractional   0.00
      3 x          0.500000      0.500000     0.000000    Fractional   0.00
      3 y          0.000000      0.000000     0.000000    Fractional   0.00
      3 z          0.000000      0.000000     0.000000    Fractional   0.00
      4 x          0.500000      0.500000     0.000000    Fractional   0.00
      4 y          0.500000      0.500000     0.000000    Fractional   0.00
      4 z          0.500000      0.500000     0.000000    Fractional   0.00
      5 x          0.000000      0.000000     0.000000    Fractional   0.00
      5 y          0.000000      0.000000     0.000000    Fractional   0.00
      5 z          0.000000      0.000000     0.000000    Fractional   0.00
--------------------------------------------------------------------------------


  Born effective charge tensors : 

-------------------------------------------------------------------------------
  Atom             x           y             z
-------------------------------------------------------------------------------
    1 Cl    x      -0.9489      0.0000     -0.0000
            y       0.0000     -0.9489     -0.0000
            z      -0.0000     -0.0000     -0.9489
-------------------------------------------------------------------------------
    2 O     x      -2.4688      0.0000     -0.0000
            y       0.0000     -2.4688     -0.0000
            z      -0.0000     -0.0000     -2.4688
-------------------------------------------------------------------------------
    3 Li    x       0.7919     -0.0000      0.0000
            y      -0.0000      1.3129      0.0000
            z      -0.0000      0.0000      1.3129
-------------------------------------------------------------------------------




  Elastic Constant Matrix: (Units=GPa)

-------------------------------------------------------------------------------
  Indices      1         2         3         4         5         6    
-------------------------------------------------------------------------------
       1     94.3368   44.9178   44.9178   -0.0000   -0.0000    0.0000
       2     44.9178   94.3368   44.9178    0.0000   -0.0000    0.0000
       3     44.9178   44.9178   94.3368    0.0000    0.0000   -0.0000
       4     -0.0000    0.0000    0.0000   44.9178   -0.0000    0.0000
       5     -0.0000   -0.0000    0.0000   -0.0000   44.9178    0.0000
       6      0.0000    0.0000   -0.0000    0.0000    0.0000   44.9178
-------------------------------------------------------------------------------


  Elastic Compliance Matrix: (Units=1/GPa)

-------------------------------------------------------------------------------
  Indices      1         2         3         4         5         6    
-------------------------------------------------------------------------------
       1    0.015300 -0.004935 -0.004935  0.000000  0.000000 -0.000000
       2   -0.004935  0.015300 -0.004935  0.000000 -0.000000 -0.000000
       3   -0.004935 -0.004935  0.015300 -0.000000 -0.000000  0.000000
       4    0.000000  0.000000 -0.000000  0.022263  0.000000 -0.000000
       5    0.000000 -0.000000 -0.000000  0.000000  0.022263 -0.000000
       6   -0.000000 -0.000000  0.000000 -0.000000 -0.000000  0.022263
-------------------------------------------------------------------------------

  Mechanical properties :

-------------------------------------------------------------------------------
  Convention :                    Reuss         Voigt         Hill
-------------------------------------------------------------------------------
  Bulk  Modulus (GPa)     =      61.39080      61.39080      61.39080
  Shear Modulus (GPa)     =      33.84570      36.83448      35.34009
-------------------------------------------------------------------------------
  Velocity S-wave (km/s)  =       4.12274       4.30092       4.21277
  Velocity P-wave (km/s)  =       7.31386       7.44942       7.38195
-------------------------------------------------------------------------------
  Compressibility (1/GPa) =    0.01628909
-------------------------------------------------------------------------------
  Stress axis :                     x             y             z
-------------------------------------------------------------------------------
  Youngs Moduli (GPa)     =      65.35947      65.35947      65.35947
-------------------------------------------------------------------------------
  Poissons Ratio (x)      =                     0.32256       0.32256
  Poissons Ratio (y)      =       0.32256                     0.32256
  Poissons Ratio (z)      =       0.32256       0.32256
-------------------------------------------------------------------------------


  Piezoelectric Strain Matrix: (Units=C/m**2)

-------------------------------------------------------------------------------
  Indices      1         2         3         4         5         6    
-------------------------------------------------------------------------------
       x     0.00000  -0.00000  -0.00000   0.00000   0.00000  -0.00000
       y    -0.00000   0.00000   0.00000  -0.00000   0.00000  -0.00000
       z    -0.00000   0.00000   0.00000   0.00000  -0.00000   0.00000
-------------------------------------------------------------------------------


  Piezoelectric Stress Matrix: (Units=10**-11 C/N)

-------------------------------------------------------------------------------
  Indices      1         2         3         4         5         6    
-------------------------------------------------------------------------------
       x     0.00000  -0.00000  -0.00000   0.00000   0.00000  -0.00000
       y    -0.00000   0.00000   0.00000  -0.00000   0.00000  -0.00000
       z    -0.00000  -0.00000   0.00000   0.00000  -0.00000   0.00000
-------------------------------------------------------------------------------


  Static dielectric constant tensor : 

-------------------------------------------------------------------------------
              x         y         z
-------------------------------------------------------------------------------
       x    12.11703  -0.00000   0.00000
       y    -0.00000  12.11703   0.00000
       z     0.00000   0.00000  12.11703
--------------------------------------------------------------------------------

  High frequency dielectric constant tensor : 

-------------------------------------------------------------------------------
              x         y         z
-------------------------------------------------------------------------------
       x     1.74104  -0.00000   0.00000
       y    -0.00000   1.74104   0.00000
       z     0.00000   0.00000   1.74104
-------------------------------------------------------------------------------

  Static refractive indices : 

-------------------------------------------------------------------------------
    1 =    3.48095      2 =    3.48095      3 =    3.48095
-------------------------------------------------------------------------------

  High frequency refractive indices : 

-------------------------------------------------------------------------------
    1 =    1.31948      2 =    1.31948      3 =    1.31948
-------------------------------------------------------------------------------


  Time to end of optimisation =       0.0208 seconds

********************************************************************************
*  Defect calculation for configuration   1 :                                  *
********************************************************************************

  Total number of defects =      3

  Total charge on defect  =   2.00

  Defect centre is at   0.9797   0.9797   0.0000  Angs

  Region 1 radius =  20.0000      Number of ions =   3898

  Number of symmetry inequivalent region 1 ions  =   1130

  Region 2 radius =  24.0000      Number of ions =   2828

  Number of symmetry inequivalent region 2a ions =    778

  Region 2a mode = 4 : screened electrostatics due to region 1 
                       neglect correction to region 1 forces from 2a
                       region 2a displacements based on defects only

  Region 2a ions will only interact with defects in region 1

  Vacancies:

--------------------------------------------------------------------------------
    Specification type     Symbol/Number         x          y          z
--------------------------------------------------------------------------------
    Cartesian                                0.000000   0.000000   0.000000
    Cartesian                                3.918873   3.918873   0.000000
--------------------------------------------------------------------------------

  Interstitials:

--------------------------------------------------------------------------------
    Specification type     Symbol/Number         x          y          z
--------------------------------------------------------------------------------
    Atom/Cartesian          O                0.979718   0.979718   0.000000
--------------------------------------------------------------------------------


  Symmetry reduced region 1 (Relative to defect centre) :

--------------------------------------------------------------------------------
   No.   Atomic       x            y             z       Radius  Multiplicity   
         Label      (Angs)       (Angs)        (Angs)    (Angs)     
--------------------------------------------------------------------------------
     1  O     c      0.0000       0.0000       0.0000    0.0000     1    Defect
     2  Li    c      0.9806 *    -0.9797 *     0.0000    0.0000     2          
     3  Li    c     -0.9797 *    -0.9797      -1.9603 *  0.0000     2          
     4  Cl    c      0.9806 *     0.9806      -1.9603 *  0.0000     2          
     5  Li    c     -2.9401 *    -0.9797 *     0.0000    0.0000     2          
     6  O     c      2.9410 *    -0.9797 *     0.0000    0.0000     2          
     7  Li    c      0.9806 *     2.9410 *     0.0000    0.0000     2          
     8  Cl    c      0.9806 *    -2.9401 *    -1.9603 *  0.0000     4          
     9  Li    c     -0.9797 *     2.9410 *    -1.9603 *  0.0000     4          
    10  O     c     -0.9797 *    -0.9797       3.9207 *  0.0000     2          
    11  Li    c      0.9806 *    -0.9797 *     3.9207 *  0.0000     4          
    12  Li    c     -2.9401 *     2.9410 *     0.0000    0.0000     2          
    13  Cl    c     -2.9401 *    -2.9401      -1.9603 *  0.0000     2          
    14  Li    c      2.9410 *     2.9410      -1.9603 *  0.0000     2          
    15  O     c     -0.9797 *    -4.9004 *     0.0000    0.0000     2          
    16  Li    c      0.9806 *    -4.9004 *     0.0000    0.0000     2          
    17  Li    c     -2.9401 *    -0.9797 *     3.9207 *  0.0000     4          
    18  O     c     -0.9797 *     2.9410 *     3.9207 *  0.0000     4          
    19  Li    c      4.9013 *    -0.9797 *     0.0000    0.0000     2          
    20  Li    c      0.9806 *     2.9410 *     3.9207 *  0.0000     4          
    21  Li    c     -0.9797 *    -4.9004 *    -1.9603 *  0.0000     4          
    22  Cl    c      0.9806 *     4.9013 *    -1.9603 *  0.0000     4          
    23  Li    c     -2.9401 *    -4.9004 *     0.0000    0.0000     2          
    24  O     c      2.9410 *    -4.9004 *     0.0000    0.0000     2          
    25  Li    c     -2.9401 *     2.9410 *     3.9207 *  0.0000     4          
    26  O     c      2.9410 *     2.9410       3.9207 *  0.0000     2          
    27  Li    c      4.9013 *     2.9410 *     0.0000    0.0000     2          
    28  Li    c     -0.9797 *    -0.9797       5.8810 *  0.0000     2          
    29  Li    c      2.9410 *    -4.9004 *    -1.9603 *  0.0000     4          
    30  Cl    c      4.9013 *    -2.9401 *    -1.9603 *  0.0000     4          
    31  Cl    c      0.9806 *     0.9806       5.8810 *  0.0000     2          
    32  O     c     -0.9797 *    -4.9004 *     3.9207 *  0.0000     4          
    33  Li    c      0.9806 *    -4.9004 *     3.9207 *  0.0000     4          
    34  Li    c      4.9013 *    -0.9797 *     3.9207 *  0.0000     4          
    35  Cl    c      0.9806 *    -2.9401 *     5.8810 *  0.0000     4          
    36  Li    c     -0.9797 *     2.9410 *     5.8810 *  0.0000     4          
    37  O     c     -4.9004 *    -4.9004       0.0000    0.0000     1          
    38  Li    c     -2.9401 *    -4.9004 *     3.9207 *  0.0000     4          
    39  Li    c     -6.8607 *    -0.9797 *     0.0000    0.0000     2          
    40  O     c      2.9410 *    -4.9004 *     3.9207 *  0.0000     4          
    41  Li    c      4.9013 *    -4.9004 *     0.0000    0.0000     2          
    42  O     c     -0.9797 *     6.8616 *     0.0000    0.0000     2          
    43  Li    c      4.9013 *     2.9410 *     3.9207 *  0.0000     4          
    44  Li    c      0.9806 *     6.8616 *     0.0000    0.0000     2          
    45  Li    c     -4.9004 *    -4.9004      -1.9603 *  0.0000     2          
    46  Cl    c      0.9806 *    -6.8607 *    -1.9603 *  0.0000     4          
    47  Cl    c     -2.9401 *    -2.9401       5.8810 *  0.0000     2          
    48  Li    c     -0.9797 *     6.8616 *    -1.9603 *  0.0000     4          
    49  Li    c      2.9410 *     2.9410       5.8810 *  0.0000     2          
    50  Cl    c      4.9013 *     4.9013      -1.9603 *  0.0000     2          
    51  Li    c     -6.8607 *     2.9410 *     0.0000    0.0000     2          
    52  Li    c     -2.9401 *     6.8616 *     0.0000    0.0000     2          
    53  O     c      2.9410 *     6.8616 *     0.0000    0.0000     2          
    54  Cl    c     -2.9401 *    -6.8607 *    -1.9603 *  0.0000     4          
    55  Li    c     -0.9797 *    -4.9004 *     5.8810 *  0.0000     4          
    56  Cl    c      0.9806 *     4.9013 *     5.8810 *  0.0000     4          
    57  Li    c      2.9410 *     6.8616 *    -1.9603 *  0.0000     4          
    58  O     c     -4.9004 *    -4.9004       3.9207 *  0.0000     2          
    59  Li    c     -6.8607 *    -0.9797 *     3.9207 *  0.0000     4          
    60  O     c     -0.9797 *    -0.9797       7.8414 *  0.0000     2          
    61  Li    c      4.9013 *    -4.9004 *     3.9207 *  0.0000     4          
    62  Li    c      0.9806 *    -0.9797 *     7.8414 *  0.0000     4          
    63  O     c     -0.9797 *     6.8616 *     3.9207 *  0.0000     4          
    64  Li    c      0.9806 *     6.8616 *     3.9207 *  0.0000     4          
    65  Li    c      2.9410 *    -4.9004 *     5.8810 *  0.0000     4          
    66  Cl    c      4.9013 *    -2.9401 *     5.8810 *  0.0000     4          
    67  Li    c     -6.8607 *    -4.9004 *     0.0000    0.0000     2          
    68  Li    c     -2.9401 *    -0.9797 *     7.8414 *  0.0000     4          
    69  Li    c     -6.8607 *     2.9410 *     3.9207 *  0.0000     4          
    70  O     c      2.9410 *    -0.9797 *     7.8414 *  0.0000     4          
    71  O     c      6.8616 *    -4.9004 *     0.0000    0.0000     2          
    72  Li    c      0.9806 *     2.9410 *     7.8414 *  0.0000     4          
    73  Li    c     -2.9401 *     6.8616 *     3.9207 *  0.0000     4          
    74  O     c      2.9410 *     6.8616 *     3.9207 *  0.0000     4          
    75  Li    c      4.9013 *     6.8616 *     0.0000    0.0000     2          
    76  Cl    c      4.9013 *    -6.8607 *    -1.9603 *  0.0000     4          
    77  Li    c      6.8616 *    -4.9004 *    -1.9603 *  0.0000     4          
    78  O     c     -0.9797 *    -8.8211 *     0.0000    0.0000     2          
    79  Li    c      0.9806 *    -8.8211 *     0.0000    0.0000     2          
    80  Li    c     -2.9401 *     2.9410 *     7.8414 *  0.0000     4          
    81  O     c      2.9410 *     2.9410       7.8414 *  0.0000     2          
    82  Li    c      8.8220 *    -0.9797 *     0.0000    0.0000     2          
    83  Li    c     -4.9004 *    -4.9004       5.8810 *  0.0000     2          
    84  Li    c     -0.9797 *    -8.8211 *    -1.9603 *  0.0000     4          
    85  Cl    c      0.9806 *    -6.8607 *     5.8810 *  0.0000     4          
    86  Li    c     -0.9797 *     6.8616 *     5.8810 *  0.0000     4          
    87  Cl    c      0.9806 *     8.8220 *    -1.9603 *  0.0000     4          
    88  Cl    c      4.9013 *     4.9013       5.8810 *  0.0000     2          
    89  Li    c     -2.9401 *    -8.8211 *     0.0000    0.0000     2          
    90  Li    c     -6.8607 *    -4.9004 *     3.9207 *  0.0000     4          
    91  O     c      2.9410 *    -8.8211 *     0.0000    0.0000     2          
    92  O     c     -0.9797 *    -4.9004 *     7.8414 *  0.0000     4          
    93  Li    c      0.9806 *    -4.9004 *     7.8414 *  0.0000     4          
    94  O     c      6.8616 *    -4.9004 *     3.9207 *  0.0000     4          
    95  Li    c      4.9013 *    -0.9797 *     7.8414 *  0.0000     4          
    96  Li    c      8.8220 *     2.9410 *     0.0000    0.0000     2          
    97  Li    c      4.9013 *     6.8616 *     3.9207 *  0.0000     4          
    98  Cl    c     -2.9401 *    -6.8607 *     5.8810 *  0.0000     4          
    99  Li    c      2.9410 *    -8.8211 *    -1.9603 *  0.0000     4          
   100  Cl    c      8.8220 *    -2.9401 *    -1.9603 *  0.0000     4          
   101  Li    c      2.9410 *     6.8616 *     5.8810 *  0.0000     4          
   102  O     c     -0.9797 *    -8.8211 *     3.9207 *  0.0000     4          
   103  Li    c      0.9806 *    -8.8211 *     3.9207 *  0.0000     4          
   104  Li    c     -2.9401 *    -4.9004 *     7.8414 *  0.0000     4          
   105  O     c      2.9410 *    -4.9004 *     7.8414 *  0.0000     4          
   106  Li    c     -6.8607 *     6.8616 *     0.0000    0.0000     2          
   107  Li    c      4.9013 *     2.9410 *     7.8414 *  0.0000     4          
   108  Li    c      8.8220 *    -0.9797 *     3.9207 *  0.0000     4          
   109  O     c      6.8616 *     6.8616       0.0000    0.0000     1          
   110  Cl    c     -6.8607 *    -6.8607      -1.9603 *  0.0000     2          
   111  Li    c     -0.9797 *    -0.9797       9.8017 *  0.0000     2          
   112  Cl    c      0.9806 *     0.9806       9.8017 *  0.0000     2          
   113  Li    c      6.8616 *     6.8616      -1.9603 *  0.0000     2          
   114  O     c     -4.9004 *    -8.8211 *     0.0000    0.0000     2          
   115  Li    c     -2.9401 *    -8.8211 *     3.9207 *  0.0000     4          
   116  O     c      2.9410 *    -8.8211 *     3.9207 *  0.0000     4          
   117  Li    c      4.9013 *    -8.8211 *     0.0000    0.0000     2          
   118  Li    c      8.8220 *    -4.9004 *     0.0000    0.0000     2          
   119  Li    c      8.8220 *     2.9410 *     3.9207 *  0.0000     4          
   120  Li    c     -4.9004 *    -8.8211 *    -1.9603 *  0.0000     4          
   121  Cl    c      0.9806 *    -2.9401 *     9.8017 *  0.0000     4          
   122  Cl    c      4.9013 *    -6.8607 *     5.8810 *  0.0000     4          
   123  Li    c     -0.9797 *     2.9410 *     9.8017 *  0.0000     4          
   124  Li    c      6.8616 *    -4.9004 *     5.8810 *  0.0000     4          
   125  Cl    c      4.9013 *     8.8220 *    -1.9603 *  0.0000     4          
   126  O     c     -4.9004 *    -4.9004       7.8414 *  0.0000     2          
   127  Li    c     -6.8607 *    -0.9797 *     7.8414 *  0.0000     4          
   128  Li    c      4.9013 *    -4.9004 *     7.8414 *  0.0000     4          
   129  Li    c     -6.8607 *     6.8616 *     3.9207 *  0.0000     4          
   130  O     c     -0.9797 *     6.8616 *     7.8414 *  0.0000     4          
   131  Li    c      0.9806 *     6.8616 *     7.8414 *  0.0000     4          
   132  O     c      6.8616 *     6.8616       3.9207 *  0.0000     2          
   133  Li    c     -0.9797 *    -8.8211 *     5.8810 *  0.0000     4          
   134  Cl    c     -2.9401 *    -2.9401       9.8017 *  0.0000     2          
   135  Li    c      2.9410 *     2.9410       9.8017 *  0.0000     2          
   136  Cl    c      0.9806 *     8.8220 *     5.8810 *  0.0000     4          
   137  O     c     -4.9004 *    -8.8211 *     3.9207 *  0.0000     4          
   138  Li    c    -10.7814 *    -0.9797 *     0.0000    0.0000     2          
   139  Li    c      4.9013 *    -8.8211 *     3.9207 *  0.0000     4          
   140  Li    c     -6.8607 *     2.9410 *     7.8414 *  0.0000     4          
   141  Li    c      8.8220 *    -4.9004 *     3.9207 *  0.0000     4          
   142  Li    c     -2.9401 *     6.8616 *     7.8414 *  0.0000     4          
   143  O     c      2.9410 *     6.8616 *     7.8414 *  0.0000     4          
   144  O     c     -0.9797 *    10.7823 *     0.0000    0.0000     2          
   145  Li    c      0.9806 *    10.7823 *     0.0000    0.0000     2          
   146  Cl    c      0.9806 *   -10.7814 *    -1.9603 *  0.0000     4          
   147  Li    c     -0.9797 *    -4.9004 *     9.8017 *  0.0000     4          
   148  Li    c      2.9410 *    -8.8211 *     5.8810 *  0.0000     4          
   149  Cl    c      0.9806 *     4.9013 *     9.8017 *  0.0000     4          
   150  Cl    c      8.8220 *    -2.9401 *     5.8810 *  0.0000     4          
   151  Li    c     -0.9797 *    10.7823 *    -1.9603 *  0.0000     4          
   152  Li    c     -6.8607 *    -8.8211 *     0.0000    0.0000     2          
   153  Li    c    -10.7814 *     2.9410 *     0.0000    0.0000     2          
   154  O     c      6.8616 *    -8.8211 *     0.0000    0.0000     2          
   155  Li    c     -2.9401 *    10.7823 *     0.0000    0.0000     2          
   156  O     c      2.9410 *    10.7823 *     0.0000    0.0000     2          
   157  Li    c      8.8220 *     6.8616 *     0.0000    0.0000     2          
   158  Cl    c     -2.9401 *   -10.7814 *    -1.9603 *  0.0000     4          
   159  Cl    c     -6.8607 *    -6.8607       5.8810 *  0.0000     2          
   160  Li    c      2.9410 *    -4.9004 *     9.8017 *  0.0000     4          
   161  Li    c      6.8616 *    -8.8211 *    -1.9603 *  0.0000     4          
   162  Cl    c      4.9013 *    -2.9401 *     9.8017 *  0.0000     4          
   163  Cl    c      8.8220 *    -6.8607 *    -1.9603 *  0.0000     4          
   164  Li    c      2.9410 *    10.7823 *    -1.9603 *  0.0000     4          
   165  Li    c      6.8616 *     6.8616       5.8810 *  0.0000     2          
   166  Li    c     -6.8607 *    -4.9004 *     7.8414 *  0.0000     4          
   167  Li    c    -10.7814 *    -0.9797 *     3.9207 *  0.0000     4          
   168  O     c      6.8616 *    -4.9004 *     7.8414 *  0.0000     4          
   169  O     c     -0.9797 *    10.7823 *     3.9207 *  0.0000     4          
   170  Li    c      0.9806 *    10.7823 *     3.9207 *  0.0000     4          
   171  Li    c      4.9013 *     6.8616 *     7.8414 *  0.0000     4          
   172  Li    c     -4.9004 *    -8.8211 *     5.8810 *  0.0000     4          
   173  Cl    c      4.9013 *     8.8220 *     5.8810 *  0.0000     4          
   174  Li    c     -6.8607 *    -8.8211 *     3.9207 *  0.0000     4          
   175  Li    c    -10.7814 *    -4.9004 *     0.0000    0.0000     2          
   176  O     c     -0.9797 *    -8.8211 *     7.8414 *  0.0000     4          
   177  Li    c      0.9806 *    -8.8211 *     7.8414 *  0.0000     4          
   178  Li    c    -10.7814 *     2.9410 *     3.9207 *  0.0000     4          
   179  O     c      6.8616 *    -8.8211 *     3.9207 *  0.0000     4          
   180  O     c     -0.9797 *    -0.9797      11.7620 *  0.0000     2          
   181  Li    c      0.9806 *    -0.9797 *    11.7620 *  0.0000     4          
   182  O     c     10.7823 *    -4.9004 *     0.0000    0.0000     2          
   183  Li    c      8.8220 *    -0.9797 *     7.8414 *  0.0000     4          
   184  Li    c     -2.9401 *    10.7823 *     3.9207 *  0.0000     4          
   185  O     c      2.9410 *    10.7823 *     3.9207 *  0.0000     4          
   186  Li    c      4.9013 *    10.7823 *     0.0000    0.0000     2          
   187  Li    c      8.8220 *     6.8616 *     3.9207 *  0.0000     4          
   188  Li    c     -4.9004 *    -4.9004       9.8017 *  0.0000     2          
   189  Cl    c      0.9806 *    -6.8607 *     9.8017 *  0.0000     4          
   190  Cl    c      4.9013 *   -10.7814 *    -1.9603 *  0.0000     4          
   191  Li    c     -0.9797 *     6.8616 *     9.8017 *  0.0000     4          
   192  Li    c     10.7823 *    -4.9004 *    -1.9603 *  0.0000     4          
   193  Cl    c      4.9013 *     4.9013       9.8017 *  0.0000     2          
   194  Li    c     -2.9401 *    -8.8211 *     7.8414 *  0.0000     4          
   195  O     c      2.9410 *    -8.8211 *     7.8414 *  0.0000     4          
   196  Li    c     -2.9401 *    -0.9797 *    11.7620 *  0.0000     4          
   197  O     c     -0.9797 *     2.9410 *    11.7620 *  0.0000     4          
   198  Li    c      0.9806 *     2.9410 *    11.7620 *  0.0000     4          
   199  Li    c      8.8220 *     2.9410 *     7.8414 *  0.0000     4          
   200  Cl    c      0.9806 *   -10.7814 *     5.8810 *  0.0000     4          
   201  Cl    c     -2.9401 *    -6.8607 *     9.8017 *  0.0000     4          
   202  Li    c      2.9410 *     6.8616 *     9.8017 *  0.0000     4          
   203  Li    c     -0.9797 *    10.7823 *     5.8810 *  0.0000     4          
   204  O     c     -8.8211 *    -8.8211       0.0000    0.0000     1          
   205  Li    c    -10.7814 *    -4.9004 *     3.9207 *  0.0000     4          
   206  Li    c      8.8220 *    -8.8211 *     0.0000    0.0000     2          
   207  Li    c     -2.9401 *     2.9410 *    11.7620 *  0.0000     4          
   208  Li    c     -6.8607 *     6.8616 *     7.8414 *  0.0000     4          
   209  O     c      2.9410 *     2.9410      11.7620 *  0.0000     2          
   210  O     c     10.7823 *    -4.9004 *     3.9207 *  0.0000     4          
   211  O     c      6.8616 *     6.8616       7.8414 *  0.0000     2          
   212  Li    c      4.9013 *    10.7823 *     3.9207 *  0.0000     4          
   213  Li    c     -8.8211 *    -8.8211      -1.9603 *  0.0000     2          
   214  Cl    c     -2.9401 *   -10.7814 *     5.8810 *  0.0000     4          
   215  Li    c      6.8616 *    -8.8211 *     5.8810 *  0.0000     4          
   216  Cl    c      8.8220 *    -6.8607 *     5.8810 *  0.0000     4          
   217  Li    c      2.9410 *    10.7823 *     5.8810 *  0.0000     4          
   218  Cl    c      8.8220 *     8.8220      -1.9603 *  0.0000     2          
   219  O     c     -0.9797 *   -12.7417 *     0.0000    0.0000     2          
   220  O     c     -4.9004 *    -8.8211 *     7.8414 *  0.0000     4          
   221  Li    c      0.9806 *   -12.7417 *     0.0000    0.0000     2          
   222  O     c     -0.9797 *    -4.9004 *    11.7620 *  0.0000     4          
   223  Li    c      4.9013 *    -8.8211 *     7.8414 *  0.0000     4          
   224  Li    c      0.9806 *    -4.9004 *    11.7620 *  0.0000     4          
   225  Li    c    -10.7814 *     6.8616 *     0.0000    0.0000     2          
   226  Li    c      8.8220 *    -4.9004 *     7.8414 *  0.0000     4          
   227  Li    c      4.9013 *    -0.9797 *    11.7620 *  0.0000     4          
   228  Li    c     -6.8607 *    10.7823 *     0.0000    0.0000     2          
   229  Li    c     12.7426 *    -0.9797 *     0.0000    0.0000     2          
   230  O     c      6.8616 *    10.7823 *     0.0000    0.0000     2          
   231  Cl    c     -6.8607 *   -10.7814 *    -1.9603 *  0.0000     4          
   232  Li    c     -0.9797 *   -12.7417 *    -1.9603 *  0.0000     4          
   233  Cl    c      4.9013 *    -6.8607 *     9.8017 *  0.0000     4          
   234  Li    c      6.8616 *    -4.9004 *     9.8017 *  0.0000     4          
   235  Cl    c      0.9806 *    12.7426 *    -1.9603 *  0.0000     4          
   236  Li    c      6.8616 *    10.7823 *    -1.9603 *  0.0000     4          
   237  O     c     -8.8211 *    -8.8211       3.9207 *  0.0000     2          
   238  Li    c     -2.9401 *   -12.7417 *     0.0000    0.0000     2          
   239  O     c      2.9410 *   -12.7417 *     0.0000    0.0000     2          
   240  Li    c     -2.9401 *    -4.9004 *    11.7620 *  0.0000     4          
   241  O     c      2.9410 *    -4.9004 *    11.7620 *  0.0000     4          
   242  Li    c      8.8220 *    -8.8211 *     3.9207 *  0.0000     4          
   243  Li    c      4.9013 *     2.9410 *    11.7620 *  0.0000     4          
   244  Li    c     12.7426 *     2.9410 *     0.0000    0.0000     2          
   245  Li    c     -0.9797 *    -8.8211 *     9.8017 *  0.0000     4          
   246  Li    c      2.9410 *   -12.7417 *    -1.9603 *  0.0000     4          
   247  Cl    c      4.9013 *   -10.7814 *     5.8810 *  0.0000     4          
   248  Li    c     10.7823 *    -4.9004 *     5.8810 *  0.0000     4          
   249  Cl    c      0.9806 *     8.8220 *     9.8017 *  0.0000     4          
   250  Cl    c     12.7426 *    -2.9401 *    -1.9603 *  0.0000     4          
   251  O     c     -0.9797 *   -12.7417 *     3.9207 *  0.0000     4          
   252  Li    c      0.9806 *   -12.7417 *     3.9207 *  0.0000     4          
   253  Li    c    -10.7814 *    -0.9797 *     7.8414 *  0.0000     4          
   254  Li    c    -10.7814 *     6.8616 *     3.9207 *  0.0000     4          
   255  Li    c     -6.8607 *    10.7823 *     3.9207 *  0.0000     4          
   256  O     c     -0.9797 *    10.7823 *     7.8414 *  0.0000     4          
   257  Li    c      0.9806 *    10.7823 *     7.8414 *  0.0000     4          
   258  Li    c     12.7426 *    -0.9797 *     3.9207 *  0.0000     4          
   259  O     c      6.8616 *    10.7823 *     3.9207 *  0.0000     4          
   260  Li    c      2.9410 *    -8.8211 *     9.8017 *  0.0000     4          
   261  Cl    c      8.8220 *    -2.9401 *     9.8017 *  0.0000     4          
   262  O     c     -4.9004 *   -12.7417 *     0.0000    0.0000     2          
   263  Li    c     -2.9401 *   -12.7417 *     3.9207 *  0.0000     4          
   264  Li    c     -6.8607 *    -8.8211 *     7.8414 *  0.0000     4          
   265  O     c      2.9410 *   -12.7417 *     3.9207 *  0.0000     4          
   266  O     c     -4.9004 *    -4.9004      11.7620 *  0.0000     2          
   267  Li    c      4.9013 *   -12.7417 *     0.0000    0.0000     2          
   268  Li    c     -6.8607 *    -0.9797 *    11.7620 *  0.0000     4          
   269  Li    c    -10.7814 *     2.9410 *     7.8414 *  0.0000     4          
   270  O     c      6.8616 *    -8.8211 *     7.8414 *  0.0000     4          
   271  Li    c      4.9013 *    -4.9004 *    11.7620 *  0.0000     4          
   272  O     c     -0.9797 *     6.8616 *    11.7620 *  0.0000     4          
   273  Li    c      0.9806 *     6.8616 *    11.7620 *  0.0000     4          
   274  Li    c     12.7426 *    -4.9004 *     0.0000    0.0000     2          
   275  Li    c     -2.9401 *    10.7823 *     7.8414 *  0.0000     4          
   276  O     c      2.9410 *    10.7823 *     7.8414 *  0.0000     4          
   277  Li    c     12.7426 *     2.9410 *     3.9207 *  0.0000     4          
   278  Li    c      8.8220 *     6.8616 *     7.8414 *  0.0000     4          
   279  Li    c     -4.9004 *   -12.7417 *    -1.9603 *  0.0000     4          
   280  Li    c     -8.8211 *    -8.8211       5.8810 *  0.0000     2          
   281  Cl    c     -6.8607 *    -6.8607       9.8017 *  0.0000     2          
   282  Li    c     -0.9797 *    -0.9797      13.7224 *  0.0000     2          
   283  Cl    c      0.9806 *     0.9806      13.7224 *  0.0000     2          
   284  Li    c      6.8616 *     6.8616       9.8017 *  0.0000     2          
   285  Cl    c      8.8220 *     8.8220       5.8810 *  0.0000     2          
   286  Cl    c      4.9013 *    12.7426 *    -1.9603 *  0.0000     4          
   287  Li    c    -10.7814 *    -8.8211 *     0.0000    0.0000     2          
   288  Li    c     -6.8607 *     2.9410 *    11.7620 *  0.0000     4          
   289  O     c     10.7823 *    -8.8211 *     0.0000    0.0000     2          
   290  Li    c     -2.9401 *     6.8616 *    11.7620 *  0.0000     4          
   291  O     c      2.9410 *     6.8616 *    11.7620 *  0.0000     4          
   292  Li    c      8.8220 *    10.7823 *     0.0000    0.0000     2          
   293  Cl    c     -6.8607 *   -10.7814 *     5.8810 *  0.0000     4          
   294  Li    c     -0.9797 *   -12.7417 *     5.8810 *  0.0000     4          
   295  Li    c     -4.9004 *    -8.8211 *     9.8017 *  0.0000     4          
   296  Cl    c      0.9806 *    -2.9401 *    13.7224 *  0.0000     4          
   297  Cl    c      8.8220 *   -10.7814 *    -1.9603 *  0.0000     4          
   298  Li    c     -0.9797 *     2.9410 *    13.7224 *  0.0000     4          
   299  Li    c     10.7823 *    -8.8211 *    -1.9603 *  0.0000     4          
   300  Cl    c      0.9806 *    12.7426 *     5.8810 *  0.0000     4          
   301  Cl    c      4.9013 *     8.8220 *     9.8017 *  0.0000     4          
   302  Li    c      6.8616 *    10.7823 *     5.8810 *  0.0000     4          
   303  O     c     -4.9004 *   -12.7417 *     3.9207 *  0.0000     4          
   304  Li    c    -10.7814 *    -4.9004 *     7.8414 *  0.0000     4          
   305  Li    c      4.9013 *   -12.7417 *     3.9207 *  0.0000     4          
   306  O     c     10.7823 *    -4.9004 *     7.8414 *  0.0000     4          
   307  Li    c     12.7426 *    -4.9004 *     3.9207 *  0.0000     4          
   308  Li    c      4.9013 *    10.7823 *     7.8414 *  0.0000     4          
   309  Li    c      2.9410 *   -12.7417 *     5.8810 *  0.0000     4          
   310  Cl    c     -2.9401 *    -2.9401      13.7224 *  0.0000     2          
   311  Li    c      2.9410 *     2.9410      13.7224 *  0.0000     2          
   312  Cl    c     12.7426 *    -2.9401 *     5.8810 *  0.0000     4          
   313  Li    c     -6.8607 *   -12.7417 *     0.0000    0.0000     2          
   314  Li    c    -10.7814 *    -8.8211 *     3.9207 *  0.0000     4          
   315  Li    c     -6.8607 *    -4.9004 *    11.7620 *  0.0000     4          
   316  O     c      6.8616 *   -12.7417 *     0.0000    0.0000     2          
   317  O     c      6.8616 *    -4.9004 *    11.7620 *  0.0000     4          
   318  O     c     10.7823 *    -8.8211 *     3.9207 *  0.0000     4          
   319  Li    c      4.9013 *     6.8616 *    11.7620 *  0.0000     4          
   320  Li    c      8.8220 *    10.7823 *     3.9207 *  0.0000     4          
   321  Li    c     12.7426 *     6.8616 *     0.0000    0.0000     2          
   322  Cl    c      0.9806 *   -10.7814 *     9.8017 *  0.0000     4          
   323  Li    c     -0.9797 *    -4.9004 *    13.7224 *  0.0000     4          
   324  Li    c      6.8616 *   -12.7417 *    -1.9603 *  0.0000     4          
   325  Cl    c      0.9806 *     4.9013 *    13.7224 *  0.0000     4          
   326  Cl    c     12.7426 *    -6.8607 *    -1.9603 *  0.0000     4          
   327  Li    c     -0.9797 *    10.7823 *     9.8017 *  0.0000     4          
   328  O     c     -8.8211 *    -8.8211       7.8414 *  0.0000     2          
   329  Li    c    -14.7021 *    -0.9797 *     0.0000    0.0000     2          
   330  O     c     -0.9797 *    -8.8211 *    11.7620 *  0.0000     4          
   331  Li    c      0.9806 *    -8.8211 *    11.7620 *  0.0000     4          
   332  Li    c      8.8220 *    -8.8211 *     7.8414 *  0.0000     4          
   333  Li    c      8.8220 *    -0.9797 *    11.7620 *  0.0000     4          
   334  O     c     -0.9797 *    14.7030 *     0.0000    0.0000     2          
   335  Li    c      0.9806 *    14.7030 *     0.0000    0.0000     2          
   336  Li    c     -4.9004 *   -12.7417 *     5.8810 *  0.0000     4          
   337  Cl    c     -2.9401 *   -10.7814 *     9.8017 *  0.0000     4          
   338  Cl    c      0.9806 *   -14.7021 *    -1.9603 *  0.0000     4          
   339  Li    c      2.9410 *    -4.9004 *    13.7224 *  0.0000     4          
   340  Li    c      6.8616 *    -8.8211 *     9.8017 *  0.0000     4          
   341  Cl    c      4.9013 *    -2.9401 *    13.7224 *  0.0000     4          
   342  Cl    c      8.8220 *    -6.8607 *     9.8017 *  0.0000     4          
   343  Li    c     -0.9797 *    14.7030 *    -1.9603 *  0.0000     4          
   344  Li    c      2.9410 *    10.7823 *     9.8017 *  0.0000     4          
   345  Cl    c      4.9013 *    12.7426 *     5.8810 *  0.0000     4          
   346  Li    c     -6.8607 *   -12.7417 *     3.9207 *  0.0000     4          
   347  O     c     -0.9797 *   -12.7417 *     7.8414 *  0.0000     4          
   348  Li    c      0.9806 *   -12.7417 *     7.8414 *  0.0000     4          
   349  Li    c     -2.9401 *    -8.8211 *    11.7620 *  0.0000     4          
   350  Li    c    -14.7021 *     2.9410 *     0.0000    0.0000     2          
   351  O     c      2.9410 *    -8.8211 *    11.7620 *  0.0000     4          
   352  O     c      6.8616 *   -12.7417 *     3.9207 *  0.0000     4          
   353  Li    c    -10.7814 *     6.8616 *     7.8414 *  0.0000     4          
   354  Li    c     -6.8607 *    10.7823 *     7.8414 *  0.0000     4          
   355  Li    c      8.8220 *     2.9410 *    11.7620 *  0.0000     4          
   356  Li    c     12.7426 *    -0.9797 *     7.8414 *  0.0000     4          
   357  Li    c     -2.9401 *    14.7030 *     0.0000    0.0000     2          
   358  O     c      2.9410 *    14.7030 *     0.0000    0.0000     2          
   359  O     c      6.8616 *    10.7823 *     7.8414 *  0.0000     4          
   360  Li    c     12.7426 *     6.8616 *     3.9207 *  0.0000     4          
   361  Cl    c     -2.9401 *   -14.7021 *    -1.9603 *  0.0000     4          
   362  Cl    c      8.8220 *   -10.7814 *     5.8810 *  0.0000     4          
   363  Li    c     10.7823 *    -8.8211 *     5.8810 *  0.0000     4          
   364  Li    c      2.9410 *    14.7030 *    -1.9603 *  0.0000     4          
   365  Li    c     -2.9401 *   -12.7417 *     7.8414 *  0.0000     4          
   366  Li    c    -14.7021 *    -0.9797 *     3.9207 *  0.0000     4          
   367  O     c      2.9410 *   -12.7417 *     7.8414 *  0.0000     4          
   368  Li    c     -6.8607 *     6.8616 *    11.7620 *  0.0000     4          
   369  Li    c    -10.7814 *    10.7823 *     0.0000    0.0000     2          
   370  O     c     -0.9797 *    14.7030 *     3.9207 *  0.0000     4          
   371  O     c      6.8616 *     6.8616      11.7620 *  0.0000     2          
   372  Li    c      0.9806 *    14.7030 *     3.9207 *  0.0000     4          
   373  Li    c     12.7426 *     2.9410 *     7.8414 *  0.0000     4          
   374  O     c     10.7823 *    10.7823       0.0000    0.0000     1          
   375  Cl    c    -10.7814 *   -10.7814      -1.9603 *  0.0000     2          
   376  Li    c     -4.9004 *    -4.9004      13.7224 *  0.0000     2          
   377  Cl    c      0.9806 *    -6.8607 *    13.7224 *  0.0000     4          
   378  Cl    c      4.9013 *   -10.7814 *     9.8017 *  0.0000     4          
   379  Li    c     -0.9797 *     6.8616 *    13.7224 *  0.0000     4          
   380  Li    c     10.7823 *    -4.9004 *     9.8017 *  0.0000     4          
   381  Cl    c      4.9013 *     4.9013      13.7224 *  0.0000     2          
   382  Li    c     10.7823 *    10.7823      -1.9603 *  0.0000     2          
   383  O     c     -8.8211 *   -12.7417 *     0.0000    0.0000     2          
   384  Li    c    -14.7021 *    -4.9004 *     0.0000    0.0000     2          
   385  O     c     -4.9004 *    -8.8211 *    11.7620 *  0.0000     4          
   386  Li    c    -14.7021 *     2.9410 *     3.9207 *  0.0000     4          
   387  Li    c      4.9013 *    -8.8211 *    11.7620 *  0.0000     4          
   388  Li    c      8.8220 *   -12.7417 *     0.0000    0.0000     2          
   389  Li    c      8.8220 *    -4.9004 *    11.7620 *  0.0000     4          
   390  Li    c     12.7426 *    -8.8211 *     0.0000    0.0000     2          
   391  O     c     14.7030 *    -4.9004 *     0.0000    0.0000     2          
   392  Li    c     -2.9401 *    14.7030 *     3.9207 *  0.0000     4          
   393  O     c      2.9410 *    14.7030 *     3.9207 *  0.0000     4          
   394  Li    c      4.9013 *    14.7030 *     0.0000    0.0000     2          
   395  Li    c     -8.8211 *   -12.7417 *    -1.9603 *  0.0000     4          
   396  Cl    c     -2.9401 *    -6.8607 *    13.7224 *  0.0000     4          
   397  Cl    c      4.9013 *   -14.7021 *    -1.9603 *  0.0000     4          
   398  Li    c      6.8616 *   -12.7417 *     5.8810 *  0.0000     4          
   399  Cl    c     12.7426 *    -6.8607 *     5.8810 *  0.0000     4          
   400  Li    c      2.9410 *     6.8616 *    13.7224 *  0.0000     4          
   401  Li    c     14.7030 *    -4.9004 *    -1.9603 *  0.0000     4          
   402  Cl    c      8.8220 *    12.7426 *    -1.9603 *  0.0000     4          
   403  O     c     -4.9004 *   -12.7417 *     7.8414 *  0.0000     4          
   404  Li    c      4.9013 *   -12.7417 *     7.8414 *  0.0000     4          
   405  O     c     -0.9797 *    -0.9797      15.6827 *  0.0000     2          
   406  Li    c      0.9806 *    -0.9797 *    15.6827 *  0.0000     4          
   407  Li    c    -10.7814 *    10.7823 *     3.9207 *  0.0000     4          
   408  Li    c     12.7426 *    -4.9004 *     7.8414 *  0.0000     4          
   409  O     c     10.7823 *    10.7823       3.9207 *  0.0000     2          
   410  Li    c     -8.8211 *    -8.8211       9.8017 *  0.0000     2          
   411  Cl    c      0.9806 *   -14.7021 *     5.8810 *  0.0000     4          
   412  Li    c     -0.9797 *    14.7030 *     5.8810 *  0.0000     4          
   413  Cl    c      8.8220 *     8.8220       9.8017 *  0.0000     2          
   414  O     c     -8.8211 *   -12.7417 *     3.9207 *  0.0000     4          
   415  Li    c    -10.7814 *    -8.8211 *     7.8414 *  0.0000     4          
   416  Li    c    -14.7021 *    -4.9004 *     3.9207 *  0.0000     4          
   417  Li    c    -10.7814 *    -0.9797 *    11.7620 *  0.0000     4          
   418  Li    c      8.8220 *   -12.7417 *     3.9207 *  0.0000     4          
   419  Li    c     -2.9401 *    -0.9797 *    15.6827 *  0.0000     4          
   420  O     c     -0.9797 *     2.9410 *    15.6827 *  0.0000     4          
   421  O     c     10.7823 *    -8.8211 *     7.8414 *  0.0000     4          
   422  Li    c      0.9806 *     2.9410 *    15.6827 *  0.0000     4          
   423  Li    c     12.7426 *    -8.8211 *     3.9207 *  0.0000     4          
   424  O     c     14.7030 *    -4.9004 *     3.9207 *  0.0000     4          
   425  O     c     -0.9797 *    10.7823 *    11.7620 *  0.0000     4          
   426  Li    c      0.9806 *    10.7823 *    11.7620 *  0.0000     4          
   427  Li    c      4.9013 *    14.7030 *     3.9207 *  0.0000     4          
   428  Li    c      8.8220 *    10.7823 *     7.8414 *  0.0000     4          
   429  Cl    c     -2.9401 *   -14.7021 *     5.8810 *  0.0000     4          
   430  Cl    c     -6.8607 *   -10.7814 *     9.8017 *  0.0000     4          
   431  Li    c     -0.9797 *   -12.7417 *     9.8017 *  0.0000     4          
   432  Cl    c      4.9013 *    -6.8607 *    13.7224 *  0.0000     4          
   433  Li    c      6.8616 *    -4.9004 *    13.7224 *  0.0000     4          
   434  Cl    c      0.9806 *    12.7426 *     9.8017 *  0.0000     4          
   435  Li    c      2.9410 *    14.7030 *     5.8810 *  0.0000     4          
   436  Li    c      6.8616 *    10.7823 *     9.8017 *  0.0000     4          
   437  Li    c     -6.8607 *    -8.8211 *    11.7620 *  0.0000     4          
   438  Li    c    -10.7814 *     2.9410 *    11.7620 *  0.0000     4          
   439  Li    c    -14.7021 *     6.8616 *     0.0000    0.0000     2          
   440  O     c      6.8616 *    -8.8211 *    11.7620 *  0.0000     4          
   441  Li    c     -2.9401 *     2.9410 *    15.6827 *  0.0000     4          
   442  O     c      2.9410 *     2.9410      15.6827 *  0.0000     2          
   443  Li    c     -2.9401 *    10.7823 *    11.7620 *  0.0000     4          
   444  Li    c     -6.8607 *    14.7030 *     0.0000    0.0000     2          
   445  O     c      2.9410 *    10.7823 *    11.7620 *  0.0000     4          
   446  Li    c      8.8220 *     6.8616 *    11.7620 *  0.0000     4          
   447  O     c      6.8616 *    14.7030 *     0.0000    0.0000     2          
   448  Cl    c     -6.8607 *   -14.7021 *    -1.9603 *  0.0000     4          
   449  Cl    c    -10.7814 *   -10.7814       5.8810 *  0.0000     2          
   450  Li    c     -0.9797 *    -8.8211 *    13.7224 *  0.0000     4          
   451  Li    c      2.9410 *   -12.7417 *     9.8017 *  0.0000     4          
   452  Cl    c      0.9806 *     8.8220 *    13.7224 *  0.0000     4          
   453  Cl    c     12.7426 *    -2.9401 *     9.8017 *  0.0000     4          
   454  Li    c      6.8616 *    14.7030 *    -1.9603 *  0.0000     4          
   455  Li    c     10.7823 *    10.7823       5.8810 *  0.0000     2          
   456  Li    c     -6.8607 *   -12.7417 *     7.8414 *  0.0000     4          
   457  O     c      6.8616 *   -12.7417 *     7.8414 *  0.0000     4          
   458  O     c     -0.9797 *    -4.9004 *    15.6827 *  0.0000     4          
   459  Li    c      0.9806 *    -4.9004 *    15.6827 *  0.0000     4          
   460  Li    c      4.9013 *    -0.9797 *    15.6827 *  0.0000     4          
   461  Li    c     12.7426 *     6.8616 *     7.8414 *  0.0000     4          
   462  Li    c     -8.8211 *   -12.7417 *     5.8810 *  0.0000     4          
   463  Cl    c      4.9013 *   -14.7021 *     5.8810 *  0.0000     4          
   464  Li    c      2.9410 *    -8.8211 *    13.7224 *  0.0000     4          
   465  Cl    c      8.8220 *    -2.9401 *    13.7224 *  0.0000     4          
   466  Li    c     14.7030 *    -4.9004 *     5.8810 *  0.0000     4          
   467  Cl    c      8.8220 *    12.7426 *     5.8810 *  0.0000     4          
   468  Li    c    -10.7814 *   -12.7417 *     0.0000    0.0000     2          
   469  O     c     -0.9797 *   -16.6624 *     0.0000    0.0000     2          
   470  Li    c      0.9806 *   -16.6624 *     0.0000    0.0000     2          
   471  Li    c    -10.7814 *    -4.9004 *    11.7620 *  0.0000     4          
   472  Li    c    -14.7021 *    -0.9797 *     7.8414 *  0.0000     4          
   473  Li    c     -2.9401 *    -4.9004 *    15.6827 *  0.0000     4          
   474  Li    c    -14.7021 *     6.8616 *     3.9207 *  0.0000     4          
   475  O     c      2.9410 *    -4.9004 *    15.6827 *  0.0000     4          
   476  O     c     10.7823 *   -12.7417 *     0.0000    0.0000     2          
   477  O     c     10.7823 *    -4.9004 *    11.7620 *  0.0000     4          
   478  Li    c     -6.8607 *    14.7030 *     3.9207 *  0.0000     4          
   479  Li    c      4.9013 *     2.9410 *    15.6827 *  0.0000     4          
   480  O     c     -0.9797 *    14.7030 *     7.8414 *  0.0000     4          
   481  Li    c      0.9806 *    14.7030 *     7.8414 *  0.0000     4          
   482  Li    c      4.9013 *    10.7823 *    11.7620 *  0.0000     4          
   483  Li    c     16.6633 *    -0.9797 *     0.0000    0.0000     2          
   484  O     c      6.8616 *    14.7030 *     3.9207 *  0.0000     4          
   485  Li    c     12.7426 *    10.7823 *     0.0000    0.0000     2          
   486  Li    c     -0.9797 *   -16.6624 *    -1.9603 *  0.0000     4          
   487  Li    c     -4.9004 *   -12.7417 *     9.8017 *  0.0000     4          
   488  Cl    c     -6.8607 *    -6.8607      13.7224 *  0.0000     2          
   489  Li    c     10.7823 *   -12.7417 *    -1.9603 *  0.0000     4          
   490  Cl    c     12.7426 *   -10.7814 *    -1.9603 *  0.0000     4          
   491  Li    c      6.8616 *     6.8616      13.7224 *  0.0000     2          
   492  Cl    c      4.9013 *    12.7426 *     9.8017 *  0.0000     4          
   493  Cl    c      0.9806 *    16.6633 *    -1.9603 *  0.0000     4          
   494  Li    c     -2.9401 *   -16.6624 *     0.0000    0.0000     2          
   495  O     c      2.9410 *   -16.6624 *     0.0000    0.0000     2          
   496  Li    c    -14.7021 *     2.9410 *     7.8414 *  0.0000     4          
   497  Li    c     -2.9401 *    14.7030 *     7.8414 *  0.0000     4          
   498  O     c      2.9410 *    14.7030 *     7.8414 *  0.0000     4          
   499  Li    c     16.6633 *     2.9410 *     0.0000    0.0000     2          
   500  Li    c     -4.9004 *    -8.8211 *    13.7224 *  0.0000     4          
   501  Li    c      2.9410 *   -16.6624 *    -1.9603 *  0.0000     4          
   502  Cl    c      8.8220 *   -10.7814 *     9.8017 *  0.0000     4          
   503  Li    c     10.7823 *    -8.8211 *     9.8017 *  0.0000     4          
   504  Cl    c      4.9013 *     8.8220 *    13.7224 *  0.0000     4          
   505  Cl    c     16.6633 *    -2.9401 *    -1.9603 *  0.0000     4          
   506  Li    c    -10.7814 *   -12.7417 *     3.9207 *  0.0000     4          
   507  Li    c    -14.7021 *    -8.8211 *     0.0000    0.0000     2          
   508  O     c     -0.9797 *   -16.6624 *     3.9207 *  0.0000     4          
   509  O     c     -8.8211 *    -8.8211      11.7620 *  0.0000     2          
   510  Li    c      0.9806 *   -16.6624 *     3.9207 *  0.0000     4          
   511  O     c     -4.9004 *    -4.9004      15.6827 *  0.0000     2          
   512  Li    c     -6.8607 *    -0.9797 *    15.6827 *  0.0000     4          
   513  O     c     10.7823 *   -12.7417 *     3.9207 *  0.0000     4          
   514  Li    c      4.9013 *    -4.9004 *    15.6827 *  0.0000     4          
   515  Li    c      8.8220 *    -8.8211 *    11.7620 *  0.0000     4          
   516  Li    c    -10.7814 *    10.7823 *     7.8414 *  0.0000     4          
   517  O     c     14.7030 *    -8.8211 *     0.0000    0.0000     2          
   518  O     c     -0.9797 *     6.8616 *    15.6827 *  0.0000     4          
   519  Li    c      0.9806 *     6.8616 *    15.6827 *  0.0000     4          
   520  Li    c     16.6633 *    -0.9797 *     3.9207 *  0.0000     4          
   521  O     c     10.7823 *    10.7823       7.8414 *  0.0000     2          
   522  Li    c      8.8220 *    14.7030 *     0.0000    0.0000     2          
   523  Li    c     12.7426 *    10.7823 *     3.9207 *  0.0000     4          
   524  Cl    c     -6.8607 *   -14.7021 *     5.8810 *  0.0000     4          
   525  Cl    c      8.8220 *   -14.7021 *    -1.9603 *  0.0000     4          
   526  Li    c     14.7030 *    -8.8211 *    -1.9603 *  0.0000     4          
   527  Li    c      6.8616 *    14.7030 *     5.8810 *  0.0000     4          
   528  O     c     -4.9004 *   -16.6624 *     0.0000    0.0000     2          
   529  O     c     -8.8211 *   -12.7417 *     7.8414 *  0.0000     4          
   530  Li    c     -2.9401 *   -16.6624 *     3.9207 *  0.0000     4          
   531  Li    c    -14.7021 *    -4.9004 *     7.8414 *  0.0000     4          
   532  O     c      2.9410 *   -16.6624 *     3.9207 *  0.0000     4          
   533  O     c     -0.9797 *   -12.7417 *    11.7620 *  0.0000     4          
   534  Li    c      4.9013 *   -16.6624 *     0.0000    0.0000     2          
   535  Li    c      0.9806 *   -12.7417 *    11.7620 *  0.0000     4          
   536  Li    c      8.8220 *   -12.7417 *     7.8414 *  0.0000     4          
   537  Li    c     -6.8607 *     2.9410 *    15.6827 *  0.0000     4          
   538  Li    c    -10.7814 *     6.8616 *    11.7620 *  0.0000     4          
   539  Li    c     12.7426 *    -8.8211 *     7.8414 *  0.0000     4          
   540  Li    c     -2.9401 *     6.8616 *    15.6827 *  0.0000     4          
   541  Li    c     -6.8607 *    10.7823 *    11.7620 *  0.0000     4          
   542  O     c      2.9410 *     6.8616 *    15.6827 *  0.0000     4          
   543  O     c     14.7030 *    -4.9004 *     7.8414 *  0.0000     4          
   544  Li    c     12.7426 *    -0.9797 *    11.7620 *  0.0000     4          
   545  Li    c     16.6633 *    -4.9004 *     0.0000    0.0000     2          
   546  O     c      6.8616 *    10.7823 *    11.7620 *  0.0000     4          
   547  Li    c      4.9013 *    14.7030 *     7.8414 *  0.0000     4          
   548  Li    c     16.6633 *     2.9410 *     3.9207 *  0.0000     4          
   549  Li    c     -4.9004 *   -16.6624 *    -1.9603 *  0.0000     4          
   550  Cl    c      0.9806 *   -10.7814 *    13.7224 *  0.0000     4          
   551  Li    c      6.8616 *   -12.7417 *     9.8017 *  0.0000     4          
   552  Cl    c     12.7426 *    -6.8607 *     9.8017 *  0.0000     4          
   553  Li    c     -0.9797 *    10.7823 *    13.7224 *  0.0000     4          
   554  Cl    c      4.9013 *    16.6633 *    -1.9603 *  0.0000     4          
   555  Li    c    -14.7021 *    -8.8211 *     3.9207 *  0.0000     4          
   556  Li    c     -2.9401 *   -12.7417 *    11.7620 *  0.0000     4          
   557  O     c      2.9410 *   -12.7417 *    11.7620 *  0.0000     4          
   558  O     c     14.7030 *    -8.8211 *     3.9207 *  0.0000     4          
   559  Li    c     12.7426 *     2.9410 *    11.7620 *  0.0000     4          
   560  Li    c      8.8220 *    14.7030 *     3.9207 *  0.0000     4          
   561  Li    c     -0.9797 *   -16.6624 *     5.8810 *  0.0000     4          
   562  Cl    c      0.9806 *   -14.7021 *     9.8017 *  0.0000     4          
   563  Cl    c     -2.9401 *   -10.7814 *    13.7224 *  0.0000     4          
   564  Li    c     -0.9797 *    -0.9797      17.6430 *  0.0000     2          
   565  Li    c      6.8616 *    -8.8211 *    13.7224 *  0.0000     4          
   566  Li    c     10.7823 *   -12.7417 *     5.8810 *  0.0000     4          
   567  Cl    c      0.9806 *     0.9806      17.6430 *  0.0000     2          
   568  Cl    c      8.8220 *    -6.8607 *    13.7224 *  0.0000     4          
   569  Cl    c     12.7426 *   -10.7814 *     5.8810 *  0.0000     4          
   570  Li    c     -0.9797 *    14.7030 *     9.8017 *  0.0000     4          
   571  Li    c      2.9410 *    10.7823 *    13.7224 *  0.0000     4          
   572  Cl    c      0.9806 *    16.6633 *     5.8810 *  0.0000     4          
   573  O     c     -4.9004 *   -16.6624 *     3.9207 *  0.0000     4          
   574  Li    c      4.9013 *   -16.6624 *     3.9207 *  0.0000     4          
   575  Li    c     -6.8607 *    -4.9004 *    15.6827 *  0.0000     4          
   576  O     c      6.8616 *    -4.9004 *    15.6827 *  0.0000     4          
   577  Li    c      4.9013 *     6.8616 *    15.6827 *  0.0000     4          
   578  Li    c     16.6633 *    -4.9004 *     3.9207 *  0.0000     4          
   579  Cl    c     -2.9401 *   -14.7021 *     9.8017 *  0.0000     4          
   580  Li    c      2.9410 *   -16.6624 *     5.8810 *  0.0000     4          
   581  Cl    c      0.9806 *    -2.9401 *    17.6430 *  0.0000     4          
   582  Li    c     -0.9797 *     2.9410 *    17.6430 *  0.0000     4          
   583  Cl    c     16.6633 *    -2.9401 *     5.8810 *  0.0000     4          
   584  Li    c      2.9410 *    14.7030 *     9.8017 *  0.0000     4          
   585  O     c    -12.7417 *   -12.7417       0.0000    0.0000     1          
   586  Li    c     -6.8607 *   -16.6624 *     0.0000    0.0000     2          
   587  O     c     -4.9004 *   -12.7417 *    11.7620 *  0.0000     4          
   588  O     c      6.8616 *   -16.6624 *     0.0000    0.0000     2          
   589  O     c     -0.9797 *    -8.8211 *    15.6827 *  0.0000     4          
   590  Li    c      0.9806 *    -8.8211 *    15.6827 *  0.0000     4          
   591  Li    c      4.9013 *   -12.7417 *    11.7620 *  0.0000     4          
   592  Li    c    -14.7021 *     6.8616 *     7.8414 *  0.0000     4          
   593  Li    c     12.7426 *   -12.7417 *     0.0000    0.0000     2          
   594  Li    c     -6.8607 *    14.7030 *     7.8414 *  0.0000     4          
   595  Li    c      8.8220 *    -0.9797 *    15.6827 *  0.0000     4          
   596  Li    c     12.7426 *    -4.9004 *    11.7620 *  0.0000     4          
   597  O     c      6.8616 *    14.7030 *     7.8414 *  0.0000     4          
   598  Li    c     16.6633 *     6.8616 *     0.0000    0.0000     2          
   599  Li    c    -12.7417 *   -12.7417      -1.9603 *  0.0000     2          
   600  Cl    c    -10.7814 *   -10.7814       9.8017 *  0.0000     2          
   601  Li    c      6.8616 *   -16.6624 *    -1.9603 *  0.0000     4          
   602  Cl    c      4.9013 *   -10.7814 *    13.7224 *  0.0000     4          
   603  Cl    c      8.8220 *   -14.7021 *     5.8810 *  0.0000     4          
   604  Cl    c     -2.9401 *    -2.9401      17.6430 *  0.0000     2          
   605  Li    c      2.9410 *     2.9410      17.6430 *  0.0000     2          
   606  Li    c     10.7823 *    -4.9004 *    13.7224 *  0.0000     4          
   607  Li    c     14.7030 *    -8.8211 *     5.8810 *  0.0000     4          
   608  Cl    c     16.6633 *    -6.8607 *    -1.9603 *  0.0000     4          
   609  Li    c     10.7823 *    10.7823       9.8017 *  0.0000     2          
   610  Cl    c     12.7426 *    12.7426      -1.9603 *  0.0000     2          
   611  Li    c    -10.7814 *    -8.8211 *    11.7620 *  0.0000     4          
   612  Li    c     -2.9401 *    -8.8211 *    15.6827 *  0.0000     4          
   613  O     c      2.9410 *    -8.8211 *    15.6827 *  0.0000     4          
   614  Li    c    -14.7021 *    10.7823 *     0.0000    0.0000     2          
   615  O     c     10.7823 *    -8.8211 *    11.7620 *  0.0000     4          
   616  Li    c    -10.7814 *    14.7030 *     0.0000    0.0000     2          
   617  Li    c      8.8220 *     2.9410 *    15.6827 *  0.0000     4          
   618  Li    c      8.8220 *    10.7823 *    11.7620 *  0.0000     4          
   619  O     c     10.7823 *    14.7030 *     0.0000    0.0000     2          
   620  Cl    c    -10.7814 *   -14.7021 *    -1.9603 *  0.0000     4          
   621  Li    c     -4.9004 *   -16.6624 *     5.8810 *  0.0000     4          
   622  Li    c     -8.8211 *   -12.7417 *     9.8017 *  0.0000     4          
   623  Cl    c      4.9013 *   -14.7021 *     9.8017 *  0.0000     4          
   624  Li    c     -0.9797 *    -4.9004 *    17.6430 *  0.0000     4          
   625  Cl    c      0.9806 *     4.9013 *    17.6430 *  0.0000     4          
   626  Li    c     14.7030 *    -4.9004 *     9.8017 *  0.0000     4          
   627  Cl    c      8.8220 *    12.7426 *     9.8017 *  0.0000     4          
   628  Cl    c      4.9013 *    16.6633 *     5.8810 *  0.0000     4          
   629  Li    c     10.7823 *    14.7030 *    -1.9603 *  0.0000     4          
   630  O     c    -12.7417 *   -12.7417       3.9207 *  0.0000     2          
   631  Li    c     -6.8607 *   -16.6624 *     3.9207 *  0.0000     4          
   632  Li    c    -10.7814 *   -12.7417 *     7.8414 *  0.0000     4          
   633  O     c     -0.9797 *   -16.6624 *     7.8414 *  0.0000     4          
   634  Li    c      0.9806 *   -16.6624 *     7.8414 *  0.0000     4          
   635  O     c      6.8616 *   -16.6624 *     3.9207 *  0.0000     4          
   636  O     c     10.7823 *   -12.7417 *     7.8414 *  0.0000     4          
   637  Li    c     12.7426 *   -12.7417 *     3.9207 *  0.0000     4          
   638  Li    c     -6.8607 *     6.8616 *    15.6827 *  0.0000     4          
   639  O     c      6.8616 *     6.8616      15.6827 *  0.0000     2          
   640  Li    c     16.6633 *    -0.9797 *     7.8414 *  0.0000     4          
   641  Li    c     12.7426 *    10.7823 *     7.8414 *  0.0000     4          
   642  Li    c     16.6633 *     6.8616 *     3.9207 *  0.0000     4          
   643  Li    c     -8.8211 *    -8.8211      13.7224 *  0.0000     2          
   644  Li    c      2.9410 *    -4.9004 *    17.6430 *  0.0000     4          
   645  Cl    c      4.9013 *    -2.9401 *    17.6430 *  0.0000     4          
   646  Cl    c      8.8220 *     8.8220      13.7224 *  0.0000     2          
   647  Li    c     -2.9401 *   -16.6624 *     7.8414 *  0.0000     4          
   648  Li    c     -6.8607 *   -12.7417 *    11.7620 *  0.0000     4          
   649  Li    c    -18.6228 *    -0.9797 *     0.0000    0.0000     2          
   650  O     c      2.9410 *   -16.6624 *     7.8414 *  0.0000     4          
   651  O     c     -4.9004 *    -8.8211 *    15.6827 *  0.0000     4          
   652  O     c      6.8616 *   -12.7417 *    11.7620 *  0.0000     4          
   653  Li    c      4.9013 *    -8.8211 *    15.6827 *  0.0000     4          
   654  Li    c    -14.7021 *    10.7823 *     3.9207 *  0.0000     4          
   655  Li    c      8.8220 *    -4.9004 *    15.6827 *  0.0000     4          
   656  Li    c    -10.7814 *    14.7030 *     3.9207 *  0.0000     4          
   657  O     c     -0.9797 *    18.6237 *     0.0000    0.0000     2          
   658  Li    c      0.9806 *    18.6237 *     0.0000    0.0000     2          
   659  Li    c     12.7426 *     6.8616 *    11.7620 *  0.0000     4          
   660  Li    c     16.6633 *     2.9410 *     7.8414 *  0.0000     4          
   661  O     c     10.7823 *    14.7030 *     3.9207 *  0.0000     4          
   662  Cl    c     -6.8607 *   -10.7814 *    13.7224 *  0.0000     4          
   663  Cl    c      0.9806 *   -18.6228 *    -1.9603 *  0.0000     4          
   664  Li    c     -0.9797 *   -12.7417 *    13.7224 *  0.0000     4          
   665  Cl    c      0.9806 *    12.7426 *    13.7224 *  0.0000     4          
   666  Li    c     -0.9797 *    18.6237 *    -1.9603 *  0.0000     4          
   667  Li    c      6.8616 *    10.7823 *    13.7224 *  0.0000     4          
   668  O     c     -8.8211 *   -16.6624 *     0.0000    0.0000     2          
   669  Li    c    -14.7021 *    -8.8211 *     7.8414 *  0.0000     4          
   670  Li    c    -14.7021 *    -0.9797 *    11.7620 *  0.0000     4          
   671  Li    c    -18.6228 *     2.9410 *     0.0000    0.0000     2          
   672  Li    c      8.8220 *   -16.6624 *     0.0000    0.0000     2          
   673  O     c     14.7030 *    -8.8211 *     7.8414 *  0.0000     4          
   674  Li    c     16.6633 *    -8.8211 *     0.0000    0.0000     2          
   675  O     c     -0.9797 *    14.7030 *    11.7620 *  0.0000     4          
   676  Li    c     -2.9401 *    18.6237 *     0.0000    0.0000     2          
   677  Li    c      0.9806 *    14.7030 *    11.7620 *  0.0000     4          
   678  O     c      2.9410 *    18.6237 *     0.0000    0.0000     2          
   679  Li    c      8.8220 *    14.7030 *     7.8414 *  0.0000     4          
   680  Li    c     -8.8211 *   -16.6624 *    -1.9603 *  0.0000     4          
   681  Li    c    -12.7417 *   -12.7417       5.8810 *  0.0000     2          
   682  Cl    c     -2.9401 *   -18.6228 *    -1.9603 *  0.0000     4          
   683  Cl    c     -6.8607 *   -14.7021 *     9.8017 *  0.0000     4          
   684  Li    c      2.9410 *   -12.7417 *    13.7224 *  0.0000     4          
   685  Li    c      6.8616 *   -16.6624 *     5.8810 *  0.0000     4          
   686  Li    c     -4.9004 *    -4.9004      17.6430 *  0.0000     2          
   687  Cl    c      0.9806 *    -6.8607 *    17.6430 *  0.0000     4          
   688  Li    c     -0.9797 *     6.8616 *    17.6430 *  0.0000     4          
   689  Cl    c      4.9013 *     4.9013      17.6430 *  0.0000     2          
   690  Cl    c     12.7426 *    -2.9401 *    13.7224 *  0.0000     4          
   691  Cl    c     16.6633 *    -6.8607 *     5.8810 *  0.0000     4          
   692  Li    c      6.8616 *    14.7030 *     9.8017 *  0.0000     4          
   693  Li    c      2.9410 *    18.6237 *    -1.9603 *  0.0000     4          
   694  Cl    c     12.7426 *    12.7426       5.8810 *  0.0000     2          
   695  Cl    c      8.8220 *    16.6633 *    -1.9603 *  0.0000     4          
   696  O     c     -4.9004 *   -16.6624 *     7.8414 *  0.0000     4          
   697  Li    c    -18.6228 *    -0.9797 *     3.9207 *  0.0000     4          
   698  Li    c      4.9013 *   -16.6624 *     7.8414 *  0.0000     4          
   699  Li    c    -10.7814 *    -0.9797 *    15.6827 *  0.0000     4          
[...]
   1050 y         -1.960338     -1.959755     0.000583    Cartesian   -0.03
   1050 z         17.643040     17.636940    -0.006099    Cartesian   -0.03
   1051 x         17.643040     17.639364    -0.003676    Cartesian   -0.02
   1051 y         -5.881013     -5.878699     0.002314    Cartesian   -0.04
   1051 z         -1.960338     -1.960202     0.000136    Cartesian   -0.01
   1052 x         13.722364     13.720068    -0.002297    Cartesian   -0.02
   1052 y         13.722364     13.720068    -0.002297    Cartesian   -0.02
   1052 z         -1.960338     -1.958257     0.002080    Cartesian   -0.11
   1053 x          3.920675      3.919371    -0.001305    Cartesian   -0.03
   1053 y         -7.841351     -7.842290    -0.000939    Cartesian    0.01
   1053 z         15.682702     15.682642    -0.000060    Cartesian   -0.00
   1054 x         11.762026     11.762917     0.000890    Cartesian    0.01
   1054 y         -7.841351     -7.842504    -0.001153    Cartesian    0.01
   1054 z         11.762026     11.762580     0.000553    Cartesian    0.00
   1055 x         11.762026     11.766140     0.004114    Cartesian    0.03
   1055 y         15.682702     15.687062     0.004360    Cartesian    0.03
   1055 z          0.000000      0.000000     0.000000    Cartesian    0.00
   1056 x         -9.801689     -9.798738     0.002951    Cartesian   -0.03
   1056 y        -13.722364    -13.716943     0.005421    Cartesian   -0.04
   1056 z         -1.960338     -1.960523    -0.000186    Cartesian    0.01
   1057 x          5.881013      5.879643    -0.001370    Cartesian   -0.02
   1057 y        -13.722364    -13.716318     0.006046    Cartesian   -0.04
   1057 z          9.801689      9.800356    -0.001333    Cartesian   -0.01
   1058 x          1.960338      1.961486     0.001148    Cartesian    0.06
   1058 y          5.881013      5.881622     0.000609    Cartesian    0.01
   1058 z         17.643040     17.636878    -0.006161    Cartesian   -0.03
   1059 x          9.801689      9.802620     0.000932    Cartesian    0.01
   1059 y         13.722364     13.721333    -0.001031    Cartesian   -0.01
   1059 z          9.801689      9.799210    -0.002478    Cartesian   -0.03
   1060 x          5.881013      5.882388     0.001375    Cartesian    0.02
   1060 y         17.643040     17.639558    -0.003481    Cartesian   -0.02
   1060 z          5.881013      5.880015    -0.000999    Cartesian   -0.02
   1061 x        -11.762026    -11.761710     0.000316    Cartesian   -0.00
   1061 y        -11.762026    -11.761710     0.000316    Cartesian   -0.00
   1061 z          3.920675      3.921072     0.000396    Cartesian    0.01
   1062 x          0.000000      0.000314     0.000314    Cartesian    0.00
   1062 y        -15.682702    -15.681252     0.001450    Cartesian   -0.01
   1062 z          7.841351      7.842639     0.001288    Cartesian    0.02
   1063 x          7.841351      7.842127     0.000776    Cartesian    0.01
   1063 y        -15.682702    -15.682232     0.000470    Cartesian   -0.00
   1063 z          3.920675      3.921049     0.000374    Cartesian    0.01
   1064 x         11.762026     11.763961     0.001934    Cartesian    0.02
   1064 y        -11.762026    -11.763213    -0.001186    Cartesian    0.01
   1064 z          7.841351      7.842178     0.000827    Cartesian    0.01
   1065 x          7.841351      7.842947     0.001596    Cartesian    0.02
   1065 y          7.841351      7.842947     0.001596    Cartesian    0.02
   1065 z         15.682702     15.684679     0.001977    Cartesian    0.01
   1066 x          5.881013      5.880124    -0.000889    Cartesian   -0.02
   1066 y         -1.960338     -1.959367     0.000971    Cartesian   -0.05
   1066 z         17.643040     17.636918    -0.006121    Cartesian   -0.03
   1067 x          9.801689      9.802423     0.000734    Cartesian    0.01
   1067 y          9.801689      9.802423     0.000734    Cartesian    0.01
   1067 z         13.722364     13.720487    -0.001877    Cartesian   -0.01
   1068 x          3.920675      3.920886     0.000210    Cartesian    0.01
   1068 y        -15.682702    -15.681514     0.001188    Cartesian   -0.01
   1068 z          7.841351      7.842100     0.000749    Cartesian    0.01
   1069 x         -3.920675     -3.919772     0.000904    Cartesian   -0.02
   1069 y         -7.841351     -7.839811     0.001540    Cartesian   -0.02
   1069 z         15.682702     15.680475    -0.002227    Cartesian   -0.01
   1070 x          7.841351      7.840528    -0.000823    Cartesian   -0.01
   1070 y        -11.762026    -11.761319     0.000708    Cartesian   -0.01
   1070 z         11.762026     11.762473     0.000447    Cartesian    0.00
   1071 x          0.000000      0.000091     0.000091    Cartesian    0.00
   1071 y         19.603377     19.603113    -0.000265    Cartesian   -0.00
   1071 z          0.000000      0.000000     0.000000    Cartesian    0.00
   1072 x         11.762026     11.764155     0.002129    Cartesian    0.02
   1072 y         15.682702     15.684249     0.001547    Cartesian    0.01
   1072 z          3.920675      3.919891    -0.000784    Cartesian   -0.02
   1073 x         -5.881013     -5.876902     0.004111    Cartesian   -0.07
   1073 y         -9.801689     -9.794664     0.007025    Cartesian   -0.07
   1073 z         13.722364     13.715504    -0.006860    Cartesian   -0.05
   1074 x          1.960338      1.960484     0.000146    Cartesian    0.01
   1074 y        -17.643040    -17.635753     0.007287    Cartesian   -0.04
   1074 z         -1.960338     -1.959699     0.000639    Cartesian   -0.03
   1075 x          1.960338      1.961133     0.000795    Cartesian    0.04
   1075 y         13.722364     13.720740    -0.001624    Cartesian   -0.01
   1075 z         13.722364     13.718343    -0.004021    Cartesian   -0.03
   1076 x         -7.841351     -7.841785    -0.000434    Cartesian    0.01
   1076 y        -15.682702    -15.681133     0.001569    Cartesian   -0.01
   1076 z          0.000000      0.000000     0.000000    Cartesian    0.00
   1077 x         15.682702     15.683346     0.000644    Cartesian    0.00
   1077 y         -7.841351     -7.841579    -0.000228    Cartesian    0.00
   1077 z          7.841351      7.841695     0.000344    Cartesian    0.00
   1078 x          0.000000      0.000349     0.000349    Cartesian    0.00
   1078 y         15.682702     15.681680    -0.001022    Cartesian   -0.01
   1078 z         11.762026     11.760930    -0.001097    Cartesian   -0.01
   1079 x          3.920675      3.921210     0.000534    Cartesian    0.01
   1079 y         19.603377     19.603449     0.000071    Cartesian    0.00
   1079 z          0.000000      0.000000     0.000000    Cartesian    0.00
   1080 x         -1.960338     -1.958902     0.001436    Cartesian   -0.07
   1080 y        -17.643040    -17.635382     0.007658    Cartesian   -0.04
   1080 z         -1.960338     -1.959715     0.000623    Cartesian   -0.03
   1081 x         -5.881013     -5.877950     0.003063    Cartesian   -0.05
   1081 y        -13.722364    -13.715722     0.006642    Cartesian   -0.05
   1081 z          9.801689      9.797892    -0.003797    Cartesian   -0.04
   1082 x          1.960338      1.960010    -0.000328    Cartesian   -0.02
   1082 y         -5.881013     -5.877617     0.003396    Cartesian   -0.06
   1082 z         17.643040     17.635297    -0.007742    Cartesian   -0.04
   1083 x          5.881013      5.880411    -0.000603    Cartesian   -0.01
   1083 y          5.881013      5.880411    -0.000603    Cartesian   -0.01
   1083 z         17.643040     17.635236    -0.007804    Cartesian   -0.04
   1084 x         13.722364     13.719583    -0.002781    Cartesian   -0.02
   1084 y         -1.960338     -1.958103     0.002235    Cartesian   -0.11
   1084 z         13.722364     13.717337    -0.005027    Cartesian   -0.04
   1085 x         17.643040     17.637393    -0.005647    Cartesian   -0.03
   1085 y         -5.881013     -5.877770     0.003243    Cartesian   -0.06
   1085 z          5.881013      5.879199    -0.001815    Cartesian   -0.03
   1086 x         13.722364     13.719402    -0.002962    Cartesian   -0.02
   1086 y         13.722364     13.719402    -0.002962    Cartesian   -0.02
   1086 z          5.881013      5.878306    -0.002707    Cartesian   -0.05
   1087 x          9.801689      9.801512    -0.000177    Cartesian   -0.00
   1087 y         17.643040     17.638026    -0.005014    Cartesian   -0.03
   1087 z         -1.960338     -1.960060     0.000278    Cartesian   -0.01
   1088 x         -3.920675     -3.920449     0.000227    Cartesian   -0.01
   1088 y        -15.682702    -15.681518     0.001184    Cartesian   -0.01
   1088 z          7.841351      7.841750     0.000399    Cartesian    0.01
   1089 x          0.000000      0.000091     0.000091    Cartesian    0.00
   1089 y         11.762026     11.761611    -0.000415    Cartesian   -0.00
   1089 z         15.682702     15.680722    -0.001980    Cartesian   -0.01
   1090 x          0.000000      0.000317     0.000317    Cartesian    0.00
   1090 y         19.603377     19.603083    -0.000294    Cartesian   -0.00
   1090 z          3.920675      3.920935     0.000259    Cartesian    0.01
   1091 x          3.920675      3.921082     0.000407    Cartesian    0.01
   1091 y         15.682702     15.682434    -0.000268    Cartesian   -0.00
   1091 z         11.762026     11.761682    -0.000345    Cartesian   -0.00
   1092 x         -9.801689     -9.796471     0.005218    Cartesian   -0.05
   1092 y        -13.722364    -13.715743     0.006622    Cartesian   -0.05
   1092 z          5.881013      5.878974    -0.002039    Cartesian   -0.03
   1093 x         -1.960338     -1.958710     0.001628    Cartesian   -0.08
   1093 y         -5.881013     -5.877165     0.003848    Cartesian   -0.07
   1093 z         17.643040     17.633759    -0.009281    Cartesian   -0.05
   1094 x         -7.841351     -7.839935     0.001416    Cartesian   -0.02
   1094 y        -15.682702    -15.680025     0.002677    Cartesian   -0.02
   1094 z          3.920675      3.920745     0.000070    Cartesian    0.00
   1095 x          7.841351      7.839156    -0.002195    Cartesian   -0.03
   1095 y         -7.841351     -7.839301     0.002050    Cartesian   -0.03
   1095 z         15.682702     15.679392    -0.003310    Cartesian   -0.02
   1096 x         19.603377     19.602672    -0.000706    Cartesian   -0.00
   1096 y         -3.920675     -3.920331     0.000345    Cartesian   -0.01
   1096 z          0.000000      0.000000     0.000000    Cartesian    0.00
   1097 x          3.920675      3.921033     0.000358    Cartesian    0.01
   1097 y         11.762026     11.761660    -0.000367    Cartesian   -0.00
   1097 z         15.682702     15.681636    -0.001066    Cartesian   -0.01
   1098 x          3.920675      3.921137     0.000462    Cartesian    0.01
   1098 y         19.603377     19.603749     0.000372    Cartesian    0.00
   1098 z          3.920675      3.921222     0.000547    Cartesian    0.01
   1099 x         11.762026     11.760949    -0.001078    Cartesian   -0.01
   1099 y         11.762026     11.760949    -0.001078    Cartesian   -0.01
   1099 z         11.762026     11.760196    -0.001830    Cartesian   -0.02
   1100 x          5.881013      5.879548    -0.001466    Cartesian   -0.02
   1100 y        -17.643040    -17.633903     0.009137    Cartesian   -0.05
   1100 z         -1.960338     -1.959563     0.000775    Cartesian   -0.04
   1101 x         13.722364     13.719196    -0.003168    Cartesian   -0.02
   1101 y         -9.801689     -9.797745     0.003944    Cartesian   -0.04
   1101 z          9.801689      9.799097    -0.002592    Cartesian   -0.03
   1102 x          5.881013      5.880239    -0.000774    Cartesian   -0.01
   1102 y         13.722364     13.719901    -0.002463    Cartesian   -0.02
   1102 z         13.722364     13.717563    -0.004801    Cartesian   -0.03
   1103 x          1.960338      1.961344     0.001006    Cartesian    0.05
   1103 y         17.643040     17.636128    -0.006911    Cartesian   -0.04
   1103 z          9.801689      9.797741    -0.003948    Cartesian   -0.04
   1104 x         -7.841351     -7.837462     0.003889    Cartesian   -0.05
   1104 y        -11.762026    -11.757120     0.004907    Cartesian   -0.04
   1104 z         11.762026     11.757949    -0.004077    Cartesian   -0.03
   1105 x         15.682702     15.680695    -0.002007    Cartesian   -0.01
   1105 y        -11.762026    -11.760543     0.001483    Cartesian   -0.01
   1105 z          0.000000      0.000000     0.000000    Cartesian    0.00
   1106 x         15.682702     15.680203    -0.002499    Cartesian   -0.02
   1106 y         -3.920675     -3.918976     0.001699    Cartesian   -0.04
   1106 z         11.762026     11.759494    -0.002532    Cartesian   -0.02
   1107 x          1.960338      1.959825    -0.000513    Cartesian   -0.03
   1107 y        -17.643040    -17.632843     0.010196    Cartesian   -0.06
   1107 z          5.881013      5.878432    -0.002581    Cartesian   -0.04
   1108 x          9.801689      9.798202    -0.003487    Cartesian   -0.04
   1108 y         -9.801689     -9.796514     0.005175    Cartesian   -0.05
   1108 z         13.722364     13.715965    -0.006399    Cartesian   -0.05
   1109 x          5.881013      5.878849    -0.002164    Cartesian   -0.04
   1109 y         -5.881013     -5.877547     0.003467    Cartesian   -0.06
   1109 z         17.643040     17.634114    -0.008926    Cartesian   -0.05
   1110 x         13.722364     13.718201    -0.004163    Cartesian   -0.03
   1110 y        -13.722364    -13.716532     0.005832    Cartesian   -0.04
   1110 z         -1.960338     -1.959259     0.001079    Cartesian   -0.06
   1111 x         17.643040     17.635172    -0.007868    Cartesian   -0.04
   1111 y         -1.960338     -1.957694     0.002644    Cartesian   -0.13
   1111 z          9.801689      9.796966    -0.004723    Cartesian   -0.05
   1112 x        -11.762026    -11.757514     0.004513    Cartesian   -0.04
   1112 y        -11.762026    -11.757514     0.004513    Cartesian   -0.04
   1112 z          7.841351      7.838677    -0.002674    Cartesian   -0.03
   1113 x          7.841351      7.839500    -0.001851    Cartesian   -0.02
   1113 y        -15.682702    -15.678384     0.004318    Cartesian   -0.03
   1113 z          7.841351      7.839694    -0.001657    Cartesian   -0.02
   1114 x          0.000000     -0.000075    -0.000075    Cartesian    0.00
   1114 y          0.000000     -0.000075    -0.000075    Cartesian *******
   1114 z         19.603377     19.601724    -0.001654    Cartesian   -0.01
   1115 x         11.762026     11.759807    -0.002219    Cartesian   -0.02
   1115 y         -3.920675     -3.919146     0.001529    Cartesian   -0.04
   1115 z         15.682702     15.679321    -0.003381    Cartesian   -0.02
   1116 x         19.603377     19.599432    -0.003945    Cartesian   -0.02
   1116 y         -3.920675     -3.918779     0.001897    Cartesian   -0.05
   1116 z          3.920675      3.919137    -0.001538    Cartesian   -0.04
   1117 x         -1.960338     -1.958481     0.001857    Cartesian   -0.09
   1117 y        -17.643040    -17.632689     0.010351    Cartesian   -0.06
   1117 z          5.881013      5.878211    -0.002802    Cartesian   -0.05
   1118 x          9.801689      9.798047    -0.003642    Cartesian   -0.04
   1118 y        -13.722364    -13.714069     0.008295    Cartesian   -0.06
   1118 z          9.801689      9.797804    -0.003885    Cartesian   -0.04
   1119 x          1.960338      1.960037    -0.000300    Cartesian   -0.02
   1119 y          9.801689      9.798648    -0.003041    Cartesian   -0.03
   1119 z         17.643040     17.633331    -0.009709    Cartesian   -0.06
   1120 x          9.801689      9.799374    -0.002314    Cartesian   -0.02
   1120 y         17.643040     17.635248    -0.007792    Cartesian   -0.04
   1120 z          5.881013      5.877824    -0.003189    Cartesian   -0.05
   1121 x         11.762026     11.760867    -0.001160    Cartesian   -0.01
   1121 y        -15.682702    -15.680687     0.002015    Cartesian   -0.01
   1121 z          0.000000      0.000000     0.000000    Cartesian    0.00
   1122 x          0.000000      0.001281     0.001281    Cartesian    0.00
   1122 y          3.920675      3.919489    -0.001186    Cartesian   -0.03
   1122 z         19.603377     19.598928    -0.004449    Cartesian   -0.02
   1123 x         15.682702     15.679496    -0.003206    Cartesian   -0.02
   1123 y        -11.762026    -11.758860     0.003167    Cartesian   -0.03
   1123 z          3.920675      3.918993    -0.001683    Cartesian   -0.04
   1124 x          7.841351      7.840299    -0.001052    Cartesian   -0.01
   1124 y         19.603377     19.601760    -0.001618    Cartesian   -0.01
   1124 z          0.000000      0.000000     0.000000    Cartesian    0.00
   1125 x         11.762026     11.760037    -0.001990    Cartesian   -0.02
   1125 y         15.682702     15.679681    -0.003021    Cartesian   -0.02
   1125 z          7.841351      7.838415    -0.002936    Cartesian   -0.04
   1126 x         -5.881013     -5.877443     0.003571    Cartesian   -0.06
   1126 y        -17.643040    -17.632412     0.010628    Cartesian   -0.06
   1126 z         -1.960338     -1.959145     0.001193    Cartesian   -0.06
   1127 x          9.801689      9.797706    -0.003983    Cartesian   -0.04
   1127 y         -1.960338     -1.958136     0.002201    Cartesian   -0.11
   1127 z         17.643040     17.633152    -0.009888    Cartesian   -0.06
   1128 x         13.722364     13.716299    -0.006065    Cartesian   -0.04
   1128 y         -5.881013     -5.876754     0.004260    Cartesian   -0.07
   1128 z         13.722364     13.715002    -0.007362    Cartesian   -0.05
   1129 x         17.643040     17.634842    -0.008198    Cartesian   -0.05
   1129 y         -9.801689     -9.795700     0.005989    Cartesian   -0.06
   1129 z         -1.960338     -1.959002     0.001335    Cartesian   -0.07
   1130 x          5.881013      5.879883    -0.001130    Cartesian   -0.02
   1130 y         17.643040     17.634846    -0.008193    Cartesian   -0.05
   1130 z          9.801689      9.796952    -0.004737    Cartesian   -0.05
--------------------------------------------------------------------------------


  Time to end of optimisation  =      834.5059 seconds


  Peak dynamic memory used =    1245.39 MB 


  Timing analysis for GULP :

--------------------------------------------------------------------------------
  Task / Subroutine                                          Time (Seconds)
--------------------------------------------------------------------------------
  Calculation of reciprocal space energy and derivatives          0.0004
  Calculation of reciprocal space energy using symmetry           0.0005
  Calculation of real space energy and derivatives                0.0028
  Calculation of real space energy using symmetry                 0.0064
  Calculation for region 1 energy and derivatives (2-b)         199.4158
  Calculation for region 2a energy                               63.8765
  Calculation for region 2b energy                                0.0062
  Calculation and manipulation of Hessian matrix                507.9455
  Calculation of matrix inversion                                61.3394
  Symmetry generation of equivalent positions                     0.0030
--------------------------------------------------------------------------------
  Total CPU time                                                834.5060
--------------------------------------------------------------------------------


  Dump file written as Li3OCl.grs


  Job Finished at 15:37.04 28th October    2020                               

