********************************************************************************
*                       GENERAL UTILITY LATTICE PROGRAM                        *
*                                 Julian Gale                                  *
*                       Curtin Institute for Computation                       *
*                    School of Molecular and Life Sciences                     *
*                    Curtin University, Western Australia                      *
********************************************************************************
* Version = 5.2.0 * Last modified =  10th September 2020                       *
********************************************************************************
*  optimise     - perform optimisation run                                     *
*  conp         - constant pressure calculation                                *
*  property     - calculate properties for final geometry                      *
*  defect       - perform defect calculation after bulk run                    *
*  compare      - compare initial and final structures                         *
********************************************************************************

  Job Started  at 14:13.09 28th October    2020                               

  Number of CPUs =     1


  Total number of configurations input =      1

********************************************************************************
*  Input for Configuration =   1                                               *
********************************************************************************

  Formula = ClOLi3                                                      

  Number of irreducible atoms/shells =       5


  Total number atoms/shells =       7

  Dimensionality = 3               :  Bulk   


  Symmetry :

  Crystal family                   :  Cubic       
  Crystal class  (Groth - 1921)    :  Cubic Hexakisoctahedral              

  Space group (centrosymmetric)    :  P M 3 M         

  Patterson group                  :  P m -3 m 

  Cartesian lattice vectors (Angstroms) :

        3.918873    0.000000    0.000000
        0.000000    3.918873    0.000000
        0.000000    0.000000    3.918873

  Cell parameters (Angstroms/Degrees):

  a =       3.9189    alpha =  90.0000
  b =       3.9189    beta  =  90.0000
  c =       3.9189    gamma =  90.0000

  Initial cell volume =          60.184349 Angs**3

  Temperature of configuration =   0.00     K 

  Pressure of configuration =         0.000 GPa 

  Fractional coordinates of asymmetric unit :

--------------------------------------------------------------------------------
   No.  Atomic       x           y          z         Charge      Occupancy
        Label      (Frac)      (Frac)     (Frac)        (e)         (Frac)  
--------------------------------------------------------------------------------
      1 Cl    c    0.500000    0.500000    0.500000     1.48500    1.000000    
      2 O     c    0.000000    0.000000    0.000000     0.18300    1.000000    
      3 Li    c    0.500000    0.000000    0.000000     1.00000    1.000000    
      4 Cl    s    0.500000    0.500000    0.500000    -2.48500    1.000000    
      5 O     s    0.000000    0.000000    0.000000    -2.18300    1.000000    
--------------------------------------------------------------------------------


  Constraints : 

--------------------------------------------------------------------------------
  Constraint no.      Unconstrained     Constrained    Coefficient    Offset
                         Variable         Variable
--------------------------------------------------------------------------------
           1              Strain 1        Strain 2       1.00000      0.0000
           2              Strain 1        Strain 3       1.00000      0.0000
--------------------------------------------------------------------------------


********************************************************************************
*  General input information                                                   *
********************************************************************************

  Species output for all configurations : 

--------------------------------------------------------------------------------
  Species    Type    Atomic    Atomic    Charge       Radii (Angs)     Library
                     Number     Mass       (e)     Cova   Ionic  VDW   Symbol
--------------------------------------------------------------------------------
    Li       Core        3       6.94   1.000000   0.680  0.000  1.800          
    O        Core        8      16.00   0.183000   0.730  0.000  1.360          
    O        Shell       8       0.00  -2.183000   0.730  0.000  1.360          
    Cl       Core       17      35.45   1.485000   0.990  0.000  1.650          
    Cl       Shell      17       0.00  -2.485000   0.990  0.000  1.650          
--------------------------------------------------------------------------------


  Lattice summation method               =    Ewald          (3-D)
                                         =    Parry          (2-D)
                                         =    Saunders et al (1-D)
  Accuracy factor for lattice sums       =   12.000


  Analytic derivatives to be used

  Time limit = Infinity

  Maximum range for interatomic potentials =    100000.000000 Angstroms

  General interatomic potentials :

--------------------------------------------------------------------------------
Atom  Types   Potential      Parameter       Value         Units   Cutoffs(Ang)
  1     2                                                            Min /  Max 
--------------------------------------------------------------------------------
O    c O    s Spring (c-s)  Spring k 2       593.72000    eV*Ang^-2 0.000  0.800
                            Spring k 4       0.0000000    eV*Ang^-4 
--------------------------------------------------------------------------------
Cl   c Cl   s Spring (c-s)  Spring k 2       29.380000    eV*Ang^-2 0.000  0.800
                            Spring k 4       0.0000000    eV*Ang^-4 
--------------------------------------------------------------------------------
Li   c Li   c Buckingham    Buckingham A     360.53000    eV        0.000 12.000
                            Buckingham rho  0.16100000    Ang       
                            Buckingham C     0.0000000    eV*Ang^6  
--------------------------------------------------------------------------------
Li   c O    s Buckingham    Buckingham A     292.30000    eV        0.000 12.000
                            Buckingham rho  0.34720000    Ang       
                            Buckingham C     0.0000000    eV*Ang^6  
--------------------------------------------------------------------------------
Li   c Cl   s Buckingham    Buckingham A     421.04000    eV        0.000 12.000
                            Buckingham rho  0.33400000    Ang       
                            Buckingham C     0.0000000    eV*Ang^6  
--------------------------------------------------------------------------------
O    s O    s Buckingham    Buckingham A     22764.300    eV        0.000 12.000
                            Buckingham rho  0.14900000    Ang       
                            Buckingham C     13.190000    eV*Ang^6  
--------------------------------------------------------------------------------
O    s Cl   s Buckingham    Buckingham A     8286.9100    eV        0.000 12.000
                            Buckingham rho  0.25900000    Ang       
                            Buckingham C     62.200000    eV*Ang^6  
--------------------------------------------------------------------------------
Cl   s Cl   s Buckingham    Buckingham A     1227.2000    eV        0.000 12.000
                            Buckingham rho  0.32100000    Ang       
                            Buckingham C     14.530000    eV*Ang^6  
--------------------------------------------------------------------------------

********************************************************************************
*  Output for configuration   1                                                *
********************************************************************************


  Components of energy : 

--------------------------------------------------------------------------------
  Interatomic potentials     =           7.26836263 eV    
  Monopole - monopole (real) =         -11.53475722 eV    
  Monopole - monopole (recip)=         -33.94580548 eV    
  Monopole - monopole (total)=         -45.48056271 eV    
--------------------------------------------------------------------------------
  Total lattice energy       =         -38.21220008 eV    
--------------------------------------------------------------------------------
  Total lattice energy       =           -3686.8932 kJ/(mole unit cells)
--------------------------------------------------------------------------------


  Number of variables =        1

  Maximum number of calculations  =          1000
  Maximum Hessian update interval =            10
  Maximum step size               =   1.000000000
  Maximum parameter tolerance     =   0.000010000
  Maximum function  tolerance     =   0.000010000
  Maximum gradient  tolerance     =   0.001000000
  Maximum gradient  component     =   0.010000000

  Symmetry constrained optimisation

  Symmetry used for second derivatives

  Cell parameters to be optimised using strains

  Newton-Raphson optimiser to be used

  BFGS hessian update to be used

  Lower half triangular hessian to be used

  Start of bulk optimisation :

  Cycle:      0 Energy:       -38.212200  Gnorm:      0.095699  CPU:    0.013
  ** Hessian calculated **
  Cycle:      1 Energy:       -38.212222  Gnorm:      0.000105  CPU:    0.015


  **** Optimisation achieved ****


  Final energy =     -38.21222207 eV
  Final Gnorm  =       0.00000001

  Components of energy : 

--------------------------------------------------------------------------------
  Interatomic potentials     =           7.24743137 eV    
  Monopole - monopole (real) =         -11.52945422 eV    
  Monopole - monopole (recip)=         -33.93019921 eV    
  Monopole - monopole (total)=         -45.45965344 eV    
--------------------------------------------------------------------------------
  Total lattice energy       =         -38.21222207 eV    
--------------------------------------------------------------------------------
  Total lattice energy       =           -3686.8953 kJ/(mole unit cells)
--------------------------------------------------------------------------------

  Final asymmetric unit coordinates :

--------------------------------------------------------------------------------
   No.  Atomic        x           y           z         Radius
        Label       (Frac)      (Frac)      (Frac)       (Angs) 
--------------------------------------------------------------------------------
     1  Cl    c     0.500000    0.500000    0.500000    0.000000
     2  O     c     0.000000    0.000000    0.000000    0.000000
     3  Li    c     0.500000    0.000000    0.000000    0.000000
     4  Cl    s     0.500000    0.500000    0.500000    0.000000
     5  O     s     0.000000    0.000000    0.000000    0.000000
--------------------------------------------------------------------------------

  Final Cartesian lattice vectors (Angstroms) :

        3.920675    0.000000    0.000000
        0.000000    3.920675    0.000000
        0.000000    0.000000    3.920675


  Final cell parameters and derivatives :

--------------------------------------------------------------------------------
       a            3.920675 Angstrom     dE/de1(xx)     0.000000 eV/strain
       b            3.920675 Angstrom     dE/de2(yy)     0.000000 eV/strain
       c            3.920675 Angstrom     dE/de3(zz)     0.000000 eV/strain
       alpha       90.000000 Degrees      dE/de4(yz)     0.000000 eV/strain
       beta        90.000000 Degrees      dE/de5(xz)     0.000000 eV/strain
       gamma       90.000000 Degrees      dE/de6(xy)     0.000000 eV/strain
--------------------------------------------------------------------------------

  Primitive cell volume =            60.267433 Angs**3

  Density of cell =      1.991276 g/cm**3

  Non-primitive cell volume =            60.267433 Angs**3


  Final internal derivatives :

--------------------------------------------------------------------------------
   No.  Atomic          a             b             c           Radius
        Label          (eV)          (eV)          (eV)        (eV/Angs)
--------------------------------------------------------------------------------
      1 Cl    c       0.000000      0.000000      0.000000      0.000000
      2 O     c       0.000000      0.000000      0.000000      0.000000
      3 Li    c       0.000000      0.000000      0.000000      0.000000
      4 Cl    s       0.000000      0.000000      0.000000      0.000000
      5 O     s       0.000000      0.000000      0.000000      0.000000
--------------------------------------------------------------------------------
  Maximum abs         0.000000      0.000000      0.000000      0.000000
--------------------------------------------------------------------------------

  Comparison of initial and final structures : 

--------------------------------------------------------------------------------
  Parameter   Initial value   Final value   Difference    Units      Percent
--------------------------------------------------------------------------------
    Volume        60.184349     60.267433     0.083084    Angs**3      0.14
    a              3.918873      3.920675     0.001802    Angstroms    0.05
    b              3.918873      3.920675     0.001802    Angstroms    0.05
    c              3.918873      3.920675     0.001802    Angstroms    0.05
    alpha         90.000000     90.000000     0.000000    Degrees      0.00
    beta          90.000000     90.000000     0.000000    Degrees      0.00
    gamma         90.000000     90.000000     0.000000    Degrees      0.00
      1 x          0.500000      0.500000     0.000000    Fractional   0.00
      1 y          0.500000      0.500000     0.000000    Fractional   0.00
      1 z          0.500000      0.500000     0.000000    Fractional   0.00
      2 x          0.000000      0.000000     0.000000    Fractional   0.00
      2 y          0.000000      0.000000     0.000000    Fractional   0.00
      2 z          0.000000      0.000000     0.000000    Fractional   0.00
      3 x          0.500000      0.500000     0.000000    Fractional   0.00
      3 y          0.000000      0.000000     0.000000    Fractional   0.00
      3 z          0.000000      0.000000     0.000000    Fractional   0.00
      4 x          0.500000      0.500000     0.000000    Fractional   0.00
      4 y          0.500000      0.500000     0.000000    Fractional   0.00
      4 z          0.500000      0.500000     0.000000    Fractional   0.00
      5 x          0.000000      0.000000     0.000000    Fractional   0.00
      5 y          0.000000      0.000000     0.000000    Fractional   0.00
      5 z          0.000000      0.000000     0.000000    Fractional   0.00
--------------------------------------------------------------------------------


  Born effective charge tensors : 

-------------------------------------------------------------------------------
  Atom             x           y             z
-------------------------------------------------------------------------------
    1 Cl    x      -0.9489      0.0000     -0.0000
            y       0.0000     -0.9489     -0.0000
            z      -0.0000     -0.0000     -0.9489
-------------------------------------------------------------------------------
    2 O     x      -2.4688      0.0000     -0.0000
            y       0.0000     -2.4688     -0.0000
            z      -0.0000     -0.0000     -2.4688
-------------------------------------------------------------------------------
    3 Li    x       0.7919     -0.0000      0.0000
            y      -0.0000      1.3129      0.0000
            z      -0.0000      0.0000      1.3129
-------------------------------------------------------------------------------




  Elastic Constant Matrix: (Units=GPa)

-------------------------------------------------------------------------------
  Indices      1         2         3         4         5         6    
-------------------------------------------------------------------------------
       1     94.3368   44.9178   44.9178   -0.0000   -0.0000    0.0000
       2     44.9178   94.3368   44.9178    0.0000   -0.0000    0.0000
       3     44.9178   44.9178   94.3368    0.0000    0.0000   -0.0000
       4     -0.0000    0.0000    0.0000   44.9178   -0.0000    0.0000
       5     -0.0000   -0.0000    0.0000   -0.0000   44.9178    0.0000
       6      0.0000    0.0000   -0.0000    0.0000    0.0000   44.9178
-------------------------------------------------------------------------------


  Elastic Compliance Matrix: (Units=1/GPa)

-------------------------------------------------------------------------------
  Indices      1         2         3         4         5         6    
-------------------------------------------------------------------------------
       1    0.015300 -0.004935 -0.004935  0.000000  0.000000 -0.000000
       2   -0.004935  0.015300 -0.004935  0.000000 -0.000000 -0.000000
       3   -0.004935 -0.004935  0.015300 -0.000000 -0.000000  0.000000
       4    0.000000  0.000000 -0.000000  0.022263  0.000000 -0.000000
       5    0.000000 -0.000000 -0.000000  0.000000  0.022263 -0.000000
       6   -0.000000 -0.000000  0.000000 -0.000000 -0.000000  0.022263
-------------------------------------------------------------------------------

  Mechanical properties :

-------------------------------------------------------------------------------
  Convention :                    Reuss         Voigt         Hill
-------------------------------------------------------------------------------
  Bulk  Modulus (GPa)     =      61.39080      61.39080      61.39080
  Shear Modulus (GPa)     =      33.84570      36.83448      35.34009
-------------------------------------------------------------------------------
  Velocity S-wave (km/s)  =       4.12274       4.30092       4.21277
  Velocity P-wave (km/s)  =       7.31386       7.44942       7.38195
-------------------------------------------------------------------------------
  Compressibility (1/GPa) =    0.01628909
-------------------------------------------------------------------------------
  Stress axis :                     x             y             z
-------------------------------------------------------------------------------
  Youngs Moduli (GPa)     =      65.35947      65.35947      65.35947
-------------------------------------------------------------------------------
  Poissons Ratio (x)      =                     0.32256       0.32256
  Poissons Ratio (y)      =       0.32256                     0.32256
  Poissons Ratio (z)      =       0.32256       0.32256
-------------------------------------------------------------------------------


  Piezoelectric Strain Matrix: (Units=C/m**2)

-------------------------------------------------------------------------------
  Indices      1         2         3         4         5         6    
-------------------------------------------------------------------------------
       x     0.00000  -0.00000  -0.00000   0.00000   0.00000  -0.00000
       y    -0.00000   0.00000   0.00000  -0.00000   0.00000  -0.00000
       z    -0.00000   0.00000   0.00000   0.00000  -0.00000   0.00000
-------------------------------------------------------------------------------


  Piezoelectric Stress Matrix: (Units=10**-11 C/N)

-------------------------------------------------------------------------------
  Indices      1         2         3         4         5         6    
-------------------------------------------------------------------------------
       x     0.00000  -0.00000  -0.00000   0.00000   0.00000  -0.00000
       y    -0.00000   0.00000   0.00000  -0.00000   0.00000  -0.00000
       z    -0.00000  -0.00000   0.00000   0.00000  -0.00000   0.00000
-------------------------------------------------------------------------------


  Static dielectric constant tensor : 

-------------------------------------------------------------------------------
              x         y         z
-------------------------------------------------------------------------------
       x    12.11703  -0.00000   0.00000
       y    -0.00000  12.11703   0.00000
       z     0.00000   0.00000  12.11703
--------------------------------------------------------------------------------

  High frequency dielectric constant tensor : 

-------------------------------------------------------------------------------
              x         y         z
-------------------------------------------------------------------------------
       x     1.74104  -0.00000   0.00000
       y    -0.00000   1.74104   0.00000
       z     0.00000   0.00000   1.74104
-------------------------------------------------------------------------------

  Static refractive indices : 

-------------------------------------------------------------------------------
    1 =    3.48095      2 =    3.48095      3 =    3.48095
-------------------------------------------------------------------------------

  High frequency refractive indices : 

-------------------------------------------------------------------------------
    1 =    1.31948      2 =    1.31948      3 =    1.31948
-------------------------------------------------------------------------------


  Time to end of optimisation =       0.0212 seconds

********************************************************************************
*  Defect calculation for configuration   1 :                                  *
********************************************************************************

  Total number of defects =      3

  Total charge on defect  =   2.00

  Defect centre is at   1.1757   1.1757   0.0000  Angs

  Region 1 radius =  20.0000      Number of ions =   3892

  Number of symmetry inequivalent region 1 ions  =   1129

  Region 2 radius =  24.0000      Number of ions =   2808

  Number of symmetry inequivalent region 2a ions =    771

  Region 2a mode = 4 : screened electrostatics due to region 1 
                       neglect correction to region 1 forces from 2a
                       region 2a displacements based on defects only

  Region 2a ions will only interact with defects in region 1

  Vacancies:

--------------------------------------------------------------------------------
    Specification type     Symbol/Number         x          y          z
--------------------------------------------------------------------------------
    Cartesian                                0.000000   0.000000   0.000000
    Cartesian                                3.918873   3.918873   0.000000
--------------------------------------------------------------------------------

  Interstitials:

--------------------------------------------------------------------------------
    Specification type     Symbol/Number         x          y          z
--------------------------------------------------------------------------------
    Atom/Cartesian          O                1.175662   1.175662   0.000000
--------------------------------------------------------------------------------


  Symmetry reduced region 1 (Relative to defect centre) :

--------------------------------------------------------------------------------
   No.   Atomic       x            y             z       Radius  Multiplicity   
         Label      (Angs)       (Angs)        (Angs)    (Angs)     
--------------------------------------------------------------------------------
     1  O     c      0.0000       0.0000       0.0000    0.0000     1    Defect
     2  Li    c      0.7847 *    -1.1757 *     0.0000    0.0000     2          
     3  Cl    c      0.7847 *     0.7847      -1.9603 *  0.0000     2          
     4  Li    c     -1.1757 *    -1.1757      -1.9603 *  0.0000     2          
     5  Li    c      0.7847 *     2.7450 *     0.0000    0.0000     2          
     6  O     c     -1.1757 *     2.7450 *     0.0000    0.0000     2          
     7  Li    c     -3.1360 *    -1.1757 *     0.0000    0.0000     2          
     8  Li    c     -1.1757 *     2.7450 *    -1.9603 *  0.0000     4          
     9  Cl    c      0.7847 *    -3.1360 *    -1.9603 *  0.0000     4          
    10  Li    c      0.7847 *    -1.1757 *     3.9207 *  0.0000     4          
    11  Li    c     -3.1360 *     2.7450 *     0.0000    0.0000     2          
    12  O     c     -1.1757 *    -1.1757       3.9207 *  0.0000     2          
    13  Li    c      2.7450 *     2.7450      -1.9603 *  0.0000     2          
    14  Cl    c     -3.1360 *    -3.1360      -1.9603 *  0.0000     2          
    15  Li    c      0.7847 *     2.7450 *     3.9207 *  0.0000     4          
    16  Li    c      4.7054 *    -1.1757 *     0.0000    0.0000     2          
    17  O     c     -1.1757 *     2.7450 *     3.9207 *  0.0000     4          
    18  Li    c      0.7847 *    -5.0963 *     0.0000    0.0000     2          
    19  Li    c     -3.1360 *    -1.1757 *     3.9207 *  0.0000     4          
    20  Cl    c      0.7847 *     4.7054 *    -1.9603 *  0.0000     4          
    21  O     c     -1.1757 *    -5.0963 *     0.0000    0.0000     2          
    22  Li    c      4.7054 *     2.7450 *     0.0000    0.0000     2          
    23  O     c      2.7450 *     2.7450       3.9207 *  0.0000     2          
    24  Li    c     -1.1757 *    -5.0963 *    -1.9603 *  0.0000     4          
    25  Li    c     -3.1360 *     2.7450 *     3.9207 *  0.0000     4          
    26  O     c      2.7450 *    -5.0963 *     0.0000    0.0000     2          
    27  Li    c     -3.1360 *    -5.0963 *     0.0000    0.0000     2          
    28  Cl    c      0.7847 *     0.7847       5.8810 *  0.0000     2          
    29  Cl    c      4.7054 *    -3.1360 *    -1.9603 *  0.0000     4          
    30  Li    c      2.7450 *    -5.0963 *    -1.9603 *  0.0000     4          
    31  Li    c     -1.1757 *    -1.1757       5.8810 *  0.0000     2          
    32  Li    c      4.7054 *    -1.1757 *     3.9207 *  0.0000     4          
    33  Li    c      0.7847 *    -5.0963 *     3.9207 *  0.0000     4          
    34  O     c     -1.1757 *    -5.0963 *     3.9207 *  0.0000     4          
    35  Li    c     -1.1757 *     2.7450 *     5.8810 *  0.0000     4          
    36  Cl    c      0.7847 *    -3.1360 *     5.8810 *  0.0000     4          
    37  Li    c      0.7847 *     6.6657 *     0.0000    0.0000     2          
    38  Li    c      4.7054 *     2.7450 *     3.9207 *  0.0000     4          
    39  O     c     -1.1757 *     6.6657 *     0.0000    0.0000     2          
    40  Li    c      4.7054 *    -5.0963 *     0.0000    0.0000     2          
    41  Cl    c      4.7054 *     4.7054      -1.9603 *  0.0000     2          
    42  O     c      2.7450 *    -5.0963 *     3.9207 *  0.0000     4          
    43  Li    c     -1.1757 *     6.6657 *    -1.9603 *  0.0000     4          
    44  Li    c      2.7450 *     2.7450       5.8810 *  0.0000     2          
    45  Li    c     -3.1360 *    -5.0963 *     3.9207 *  0.0000     4          
    46  Li    c     -7.0567 *    -1.1757 *     0.0000    0.0000     2          
    47  O     c     -5.0963 *    -5.0963       0.0000    0.0000     1          
    48  O     c      2.7450 *     6.6657 *     0.0000    0.0000     2          
    49  Cl    c      0.7847 *    -7.0567 *    -1.9603 *  0.0000     4          
    50  Cl    c     -3.1360 *    -3.1360       5.8810 *  0.0000     2          
    51  Li    c     -3.1360 *     6.6657 *     0.0000    0.0000     2          
    52  Li    c     -5.0963 *    -5.0963      -1.9603 *  0.0000     2          
    53  Li    c      2.7450 *     6.6657 *    -1.9603 *  0.0000     4          
    54  Li    c     -7.0567 *     2.7450 *     0.0000    0.0000     2          
    55  Cl    c      0.7847 *     4.7054 *     5.8810 *  0.0000     4          
    56  Li    c      0.7847 *     6.6657 *     3.9207 *  0.0000     4          
    57  O     c     -1.1757 *     6.6657 *     3.9207 *  0.0000     4          
    58  Li    c     -1.1757 *    -5.0963 *     5.8810 *  0.0000     4          
    59  Cl    c     -3.1360 *    -7.0567 *    -1.9603 *  0.0000     4          
    60  Li    c      0.7847 *    -1.1757 *     7.8414 *  0.0000     4          
    61  Li    c      4.7054 *    -5.0963 *     3.9207 *  0.0000     4          
    62  O     c     -1.1757 *    -1.1757       7.8414 *  0.0000     2          
    63  Li    c     -7.0567 *    -1.1757 *     3.9207 *  0.0000     4          
    64  Cl    c      4.7054 *    -3.1360 *     5.8810 *  0.0000     4          
    65  Li    c      4.7054 *     6.6657 *     0.0000    0.0000     2          
    66  O     c     -5.0963 *    -5.0963       3.9207 *  0.0000     2          
    67  O     c      2.7450 *     6.6657 *     3.9207 *  0.0000     4          
    68  Li    c      2.7450 *    -5.0963 *     5.8810 *  0.0000     4          
    69  Li    c      0.7847 *     2.7450 *     7.8414 *  0.0000     4          
    70  Li    c     -3.1360 *     6.6657 *     3.9207 *  0.0000     4          
    71  O     c     -1.1757 *     2.7450 *     7.8414 *  0.0000     4          
    72  O     c      6.6657 *    -5.0963 *     0.0000    0.0000     2          
    73  Li    c     -3.1360 *    -1.1757 *     7.8414 *  0.0000     4          
    74  Li    c     -7.0567 *     2.7450 *     3.9207 *  0.0000     4          
    75  Li    c      6.6657 *    -5.0963 *    -1.9603 *  0.0000     4          
    76  Li    c     -7.0567 *    -5.0963 *     0.0000    0.0000     2          
    77  Cl    c      4.7054 *    -7.0567 *    -1.9603 *  0.0000     4          
    78  Li    c      8.6260 *    -1.1757 *     0.0000    0.0000     2          
    79  O     c      2.7450 *     2.7450       7.8414 *  0.0000     2          
    80  Li    c     -3.1360 *     2.7450 *     7.8414 *  0.0000     4          
    81  Cl    c      4.7054 *     4.7054       5.8810 *  0.0000     2          
    82  Cl    c      0.7847 *     8.6260 *    -1.9603 *  0.0000     4          
    83  Li    c     -1.1757 *     6.6657 *     5.8810 *  0.0000     4          
    84  Li    c      0.7847 *    -9.0170 *     0.0000    0.0000     2          
    85  Li    c      4.7054 *     6.6657 *     3.9207 *  0.0000     4          
    86  Li    c      8.6260 *     2.7450 *     0.0000    0.0000     2          
    87  O     c     -1.1757 *    -9.0170 *     0.0000    0.0000     2          
    88  Cl    c      0.7847 *    -7.0567 *     5.8810 *  0.0000     4          
    89  Li    c      4.7054 *    -1.1757 *     7.8414 *  0.0000     4          
    90  O     c      6.6657 *    -5.0963 *     3.9207 *  0.0000     4          
    91  Li    c     -1.1757 *    -9.0170 *    -1.9603 *  0.0000     4          
    92  Li    c     -5.0963 *    -5.0963       5.8810 *  0.0000     2          
    93  Li    c      2.7450 *     6.6657 *     5.8810 *  0.0000     4          
    94  Li    c      0.7847 *    -5.0963 *     7.8414 *  0.0000     4          
    95  Cl    c      8.6260 *    -3.1360 *    -1.9603 *  0.0000     4          
    96  O     c     -1.1757 *    -5.0963 *     7.8414 *  0.0000     4          
    97  O     c      2.7450 *    -9.0170 *     0.0000    0.0000     2          
    98  O     c      6.6657 *     6.6657       0.0000    0.0000     1          
    99  Li    c     -3.1360 *    -9.0170 *     0.0000    0.0000     2          
   100  Li    c     -7.0567 *    -5.0963 *     3.9207 *  0.0000     4          
   101  Li    c      4.7054 *     2.7450 *     7.8414 *  0.0000     4          
   102  Li    c      8.6260 *    -1.1757 *     3.9207 *  0.0000     4          
   103  Li    c      2.7450 *    -9.0170 *    -1.9603 *  0.0000     4          
   104  Li    c      6.6657 *     6.6657      -1.9603 *  0.0000     2          
   105  Cl    c     -3.1360 *    -7.0567 *     5.8810 *  0.0000     4          
   106  Li    c     -7.0567 *     6.6657 *     0.0000    0.0000     2          
   107  O     c      2.7450 *    -5.0963 *     7.8414 *  0.0000     4          
   108  Li    c      0.7847 *    -9.0170 *     3.9207 *  0.0000     4          
   109  Li    c     -3.1360 *    -5.0963 *     7.8414 *  0.0000     4          
   110  Cl    c      0.7847 *     0.7847       9.8017 *  0.0000     2          
   111  Li    c      8.6260 *     2.7450 *     3.9207 *  0.0000     4          
   112  O     c     -1.1757 *    -9.0170 *     3.9207 *  0.0000     4          
   113  Li    c     -1.1757 *    -1.1757       9.8017 *  0.0000     2          
   114  Li    c      8.6260 *    -5.0963 *     0.0000    0.0000     2          
   115  Cl    c      4.7054 *     8.6260 *    -1.9603 *  0.0000     4          
   116  Cl    c     -7.0567 *    -7.0567      -1.9603 *  0.0000     2          
   117  Li    c      4.7054 *    -9.0170 *     0.0000    0.0000     2          
   118  O     c      2.7450 *    -9.0170 *     3.9207 *  0.0000     4          
   119  O     c      6.6657 *     6.6657       3.9207 *  0.0000     2          
   120  Li    c     -1.1757 *     2.7450 *     9.8017 *  0.0000     4          
   121  Li    c      6.6657 *    -5.0963 *     5.8810 *  0.0000     4          
   122  Li    c     -3.1360 *    -9.0170 *     3.9207 *  0.0000     4          
   123  Cl    c      0.7847 *    -3.1360 *     9.8017 *  0.0000     4          
   124  Cl    c      4.7054 *    -7.0567 *     5.8810 *  0.0000     4          
   125  Li    c      0.7847 *     6.6657 *     7.8414 *  0.0000     4          
   126  O     c     -5.0963 *    -9.0170 *     0.0000    0.0000     2          
   127  O     c     -1.1757 *     6.6657 *     7.8414 *  0.0000     4          
   128  Li    c     -7.0567 *     6.6657 *     3.9207 *  0.0000     4          
   129  Li    c      4.7054 *    -5.0963 *     7.8414 *  0.0000     4          
   130  Cl    c      0.7847 *     8.6260 *     5.8810 *  0.0000     4          
   131  Li    c     -5.0963 *    -9.0170 *    -1.9603 *  0.0000     4          
   132  Li    c      2.7450 *     2.7450       9.8017 *  0.0000     2          
   133  Li    c     -7.0567 *    -1.1757 *     7.8414 *  0.0000     4          
   134  Li    c      0.7847 *    10.5864 *     0.0000    0.0000     2          
   135  O     c     -5.0963 *    -5.0963       7.8414 *  0.0000     2          
   136  O     c     -1.1757 *    10.5864 *     0.0000    0.0000     2          
   137  O     c      2.7450 *     6.6657 *     7.8414 *  0.0000     4          
   138  Cl    c     -3.1360 *    -3.1360       9.8017 *  0.0000     2          
   139  Li    c     -3.1360 *     6.6657 *     7.8414 *  0.0000     4          
   140  Li    c      8.6260 *    -5.0963 *     3.9207 *  0.0000     4          
   141  Li    c     -1.1757 *    -9.0170 *     5.8810 *  0.0000     4          
   142  Li    c     -1.1757 *    10.5864 *    -1.9603 *  0.0000     4          
   143  Li    c      4.7054 *    -9.0170 *     3.9207 *  0.0000     4          
   144  Li    c     -7.0567 *     2.7450 *     7.8414 *  0.0000     4          
   145  Cl    c      0.7847 *     4.7054 *     9.8017 *  0.0000     4          
   146  Cl    c      8.6260 *    -3.1360 *     5.8810 *  0.0000     4          
   147  Li    c      8.6260 *     6.6657 *     0.0000    0.0000     2          
   148  O     c      2.7450 *    10.5864 *     0.0000    0.0000     2          
   149  Li    c    -10.9774 *    -1.1757 *     0.0000    0.0000     2          
   150  Li    c     -3.1360 *    10.5864 *     0.0000    0.0000     2          
   151  O     c     -5.0963 *    -9.0170 *     3.9207 *  0.0000     4          
   152  Li    c     -1.1757 *    -5.0963 *     9.8017 *  0.0000     4          
   153  Li    c      2.7450 *    -9.0170 *     5.8810 *  0.0000     4          
   154  Li    c      2.7450 *    10.5864 *    -1.9603 *  0.0000     4          
   155  Li    c      6.6657 *     6.6657       5.8810 *  0.0000     2          
   156  Cl    c      0.7847 *   -10.9774 *    -1.9603 *  0.0000     4          
   157  O     c      6.6657 *    -9.0170 *     0.0000    0.0000     2          
   158  Li    c    -10.9774 *     2.7450 *     0.0000    0.0000     2          
   159  Cl    c      4.7054 *    -3.1360 *     9.8017 *  0.0000     4          
   160  Cl    c      8.6260 *    -7.0567 *    -1.9603 *  0.0000     4          
   161  Li    c      0.7847 *    10.5864 *     3.9207 *  0.0000     4          
   162  Li    c      4.7054 *     6.6657 *     7.8414 *  0.0000     4          
   163  O     c     -1.1757 *    10.5864 *     3.9207 *  0.0000     4          
   164  Li    c      2.7450 *    -5.0963 *     9.8017 *  0.0000     4          
   165  Li    c      6.6657 *    -9.0170 *    -1.9603 *  0.0000     4          
   166  Li    c     -7.0567 *    -9.0170 *     0.0000    0.0000     2          
   167  Cl    c      4.7054 *     8.6260 *     5.8810 *  0.0000     4          
   168  O     c      6.6657 *    -5.0963 *     7.8414 *  0.0000     4          
   169  Cl    c     -3.1360 *   -10.9774 *    -1.9603 *  0.0000     4          
   170  Cl    c     -7.0567 *    -7.0567       5.8810 *  0.0000     2          
   171  Li    c      4.7054 *    10.5864 *     0.0000    0.0000     2          
   172  Li    c      8.6260 *     6.6657 *     3.9207 *  0.0000     4          
   173  O     c      2.7450 *    10.5864 *     3.9207 *  0.0000     4          
   174  Li    c     -7.0567 *    -5.0963 *     7.8414 *  0.0000     4          
   175  Li    c    -10.9774 *    -1.1757 *     3.9207 *  0.0000     4          
   176  Li    c     -3.1360 *    10.5864 *     3.9207 *  0.0000     4          
   177  Li    c      8.6260 *    -1.1757 *     7.8414 *  0.0000     4          
   178  O     c     10.5864 *    -5.0963 *     0.0000    0.0000     2          
   179  Li    c      0.7847 *    -1.1757 *    11.7620 *  0.0000     4          
   180  Cl    c      4.7054 *     4.7054       9.8017 *  0.0000     2          
   181  O     c     -1.1757 *    -1.1757      11.7620 *  0.0000     2          
   182  O     c      6.6657 *    -9.0170 *     3.9207 *  0.0000     4          
   183  Li    c     -5.0963 *    -9.0170 *     5.8810 *  0.0000     4          
   184  Li    c     -1.1757 *     6.6657 *     9.8017 *  0.0000     4          
   185  Li    c     10.5864 *    -5.0963 *    -1.9603 *  0.0000     4          
   186  Li    c      0.7847 *    -9.0170 *     7.8414 *  0.0000     4          
   187  Li    c    -10.9774 *     2.7450 *     3.9207 *  0.0000     4          
   188  Li    c      8.6260 *     2.7450 *     7.8414 *  0.0000     4          
   189  O     c     -1.1757 *    -9.0170 *     7.8414 *  0.0000     4          
   190  Li    c     -7.0567 *    -9.0170 *     3.9207 *  0.0000     4          
   191  Li    c    -10.9774 *    -5.0963 *     0.0000    0.0000     2          
   192  Cl    c      0.7847 *    -7.0567 *     9.8017 *  0.0000     4          
   193  Cl    c      4.7054 *   -10.9774 *    -1.9603 *  0.0000     4          
   194  Li    c      0.7847 *     2.7450 *    11.7620 *  0.0000     4          
   195  O     c     -1.1757 *     2.7450 *    11.7620 *  0.0000     4          
   196  Li    c     -5.0963 *    -5.0963       9.8017 *  0.0000     2          
   197  Li    c      2.7450 *     6.6657 *     9.8017 *  0.0000     4          
   198  Li    c     -1.1757 *    10.5864 *     5.8810 *  0.0000     4          
   199  Li    c     -3.1360 *    -1.1757 *    11.7620 *  0.0000     4          
   200  Li    c      4.7054 *    10.5864 *     3.9207 *  0.0000     4          
   201  O     c      2.7450 *    -9.0170 *     7.8414 *  0.0000     4          
   202  O     c      6.6657 *     6.6657       7.8414 *  0.0000     2          
   203  Li    c     -3.1360 *    -9.0170 *     7.8414 *  0.0000     4          
   204  Cl    c      8.6260 *     8.6260      -1.9603 *  0.0000     2          
   205  O     c      2.7450 *     2.7450      11.7620 *  0.0000     2          
   206  O     c     10.5864 *    -5.0963 *     3.9207 *  0.0000     4          
   207  Li    c      2.7450 *    10.5864 *     5.8810 *  0.0000     4          
   208  Cl    c     -3.1360 *    -7.0567 *     9.8017 *  0.0000     4          
   209  Cl    c      0.7847 *   -10.9774 *     5.8810 *  0.0000     4          
   210  Li    c      8.6260 *    -9.0170 *     0.0000    0.0000     2          
   211  Li    c     -3.1360 *     2.7450 *    11.7620 *  0.0000     4          
   212  Li    c     -7.0567 *     6.6657 *     7.8414 *  0.0000     4          
   213  O     c      6.6657 *    10.5864 *     0.0000    0.0000     2          
   214  Cl    c      8.6260 *    -7.0567 *     5.8810 *  0.0000     4          
   215  Li    c     12.5467 *    -1.1757 *     0.0000    0.0000     2          
   216  Li    c      6.6657 *    -9.0170 *     5.8810 *  0.0000     4          
   217  Li    c      6.6657 *    10.5864 *    -1.9603 *  0.0000     4          
   218  Li    c    -10.9774 *    -5.0963 *     3.9207 *  0.0000     4          
   219  Li    c      4.7054 *    -1.1757 *    11.7620 *  0.0000     4          
   220  Li    c     -7.0567 *    10.5864 *     0.0000    0.0000     2          
   221  Li    c      8.6260 *    -5.0963 *     7.8414 *  0.0000     4          
   222  Cl    c      0.7847 *    12.5467 *    -1.9603 *  0.0000     4          
   223  O     c     -9.0170 *    -9.0170       0.0000    0.0000     1          
   224  Cl    c     -3.1360 *   -10.9774 *     5.8810 *  0.0000     4          
   225  Li    c      0.7847 *    -5.0963 *    11.7620 *  0.0000     4          
   226  Li    c      4.7054 *    -9.0170 *     7.8414 *  0.0000     4          
   227  Li    c    -10.9774 *     6.6657 *     0.0000    0.0000     2          
   228  Li    c     12.5467 *     2.7450 *     0.0000    0.0000     2          
   229  O     c     -1.1757 *    -5.0963 *    11.7620 *  0.0000     4          
   230  Li    c     -9.0170 *    -9.0170      -1.9603 *  0.0000     2          
   231  Li    c      6.6657 *    -5.0963 *     9.8017 *  0.0000     4          
   232  Li    c      0.7847 *   -12.9377 *     0.0000    0.0000     2          
   233  Cl    c      4.7054 *    -7.0567 *     9.8017 *  0.0000     4          
   234  Li    c      4.7054 *     2.7450 *    11.7620 *  0.0000     4          
   235  O     c     -1.1757 *   -12.9377 *     0.0000    0.0000     2          
   236  O     c     -5.0963 *    -9.0170 *     7.8414 *  0.0000     4          
   237  Li    c      8.6260 *    -9.0170 *     3.9207 *  0.0000     4          
   238  Cl    c      0.7847 *     8.6260 *     9.8017 *  0.0000     4          
   239  Cl    c     12.5467 *    -3.1360 *    -1.9603 *  0.0000     4          
   240  O     c      2.7450 *    -5.0963 *    11.7620 *  0.0000     4          
   241  O     c      6.6657 *    10.5864 *     3.9207 *  0.0000     4          
   242  Li    c     -1.1757 *   -12.9377 *    -1.9603 *  0.0000     4          
   243  Li    c     10.5864 *    -5.0963 *     5.8810 *  0.0000     4          
   244  Cl    c     -7.0567 *   -10.9774 *    -1.9603 *  0.0000     4          
   245  Li    c     -3.1360 *    -5.0963 *    11.7620 *  0.0000     4          
   246  Li    c      0.7847 *    10.5864 *     7.8414 *  0.0000     4          
   247  Li    c     12.5467 *    -1.1757 *     3.9207 *  0.0000     4          
   248  O     c      2.7450 *   -12.9377 *     0.0000    0.0000     2          
   249  O     c     -1.1757 *    10.5864 *     7.8414 *  0.0000     4          
   250  Li    c     -3.1360 *   -12.9377 *     0.0000    0.0000     2          
   251  Cl    c      4.7054 *   -10.9774 *     5.8810 *  0.0000     4          
   252  Li    c     -7.0567 *    10.5864 *     3.9207 *  0.0000     4          
   253  O     c     -9.0170 *    -9.0170       3.9207 *  0.0000     2          
   254  Li    c     -1.1757 *    -9.0170 *     9.8017 *  0.0000     4          
   255  Li    c      2.7450 *   -12.9377 *    -1.9603 *  0.0000     4          
   256  Li    c    -10.9774 *     6.6657 *     3.9207 *  0.0000     4          
   257  Cl    c      8.6260 *    -3.1360 *     9.8017 *  0.0000     4          
   258  Li    c     12.5467 *     2.7450 *     3.9207 *  0.0000     4          
   259  Li    c      8.6260 *     6.6657 *     7.8414 *  0.0000     4          
   260  O     c      2.7450 *    10.5864 *     7.8414 *  0.0000     4          
   261  Li    c      0.7847 *   -12.9377 *     3.9207 *  0.0000     4          
   262  Li    c    -10.9774 *    -1.1757 *     7.8414 *  0.0000     4          
   263  Li    c      0.7847 *     6.6657 *    11.7620 *  0.0000     4          
   264  Li    c     12.5467 *    -5.0963 *     0.0000    0.0000     2          
   265  Li    c     -3.1360 *    10.5864 *     7.8414 *  0.0000     4          
   266  Cl    c      4.7054 *    12.5467 *    -1.9603 *  0.0000     4          
   267  Cl    c      8.6260 *     8.6260       5.8810 *  0.0000     2          
   268  O     c     -1.1757 *   -12.9377 *     3.9207 *  0.0000     4          
   269  O     c     -1.1757 *     6.6657 *    11.7620 *  0.0000     4          
   270  Li    c      2.7450 *    -9.0170 *     9.8017 *  0.0000     4          
   271  Li    c      6.6657 *     6.6657       9.8017 *  0.0000     2          
   272  Li    c      4.7054 *    -5.0963 *    11.7620 *  0.0000     4          
   273  Li    c      8.6260 *    10.5864 *     0.0000    0.0000     2          
   274  O     c      6.6657 *    -9.0170 *     7.8414 *  0.0000     4          
   275  Li    c      4.7054 *   -12.9377 *     0.0000    0.0000     2          
   276  Li    c     -7.0567 *    -1.1757 *    11.7620 *  0.0000     4          
   277  Li    c    -10.9774 *     2.7450 *     7.8414 *  0.0000     4          
   278  Cl    c      0.7847 *     0.7847      13.7224 *  0.0000     2          
   279  O     c      2.7450 *   -12.9377 *     3.9207 *  0.0000     4          
   280  O     c     -5.0963 *    -5.0963      11.7620 *  0.0000     2          
   281  O     c      2.7450 *     6.6657 *    11.7620 *  0.0000     4          
   282  Li    c     -1.1757 *    -1.1757      13.7224 *  0.0000     2          
   283  Li    c      6.6657 *    10.5864 *     5.8810 *  0.0000     4          
   284  Li    c     -3.1360 *   -12.9377 *     3.9207 *  0.0000     4          
   285  Li    c     -7.0567 *    -9.0170 *     7.8414 *  0.0000     4          
   286  Li    c     -3.1360 *     6.6657 *    11.7620 *  0.0000     4          
   287  Cl    c      4.7054 *     8.6260 *     9.8017 *  0.0000     4          
   288  Cl    c      0.7847 *    12.5467 *     5.8810 *  0.0000     4          
   289  O     c     -5.0963 *   -12.9377 *     0.0000    0.0000     2          
   290  O     c     10.5864 *    -9.0170 *     0.0000    0.0000     2          
   291  Cl    c     -7.0567 *    -7.0567       9.8017 *  0.0000     2          
   292  Li    c     -7.0567 *     2.7450 *    11.7620 *  0.0000     4          
   293  Li    c      4.7054 *    10.5864 *     7.8414 *  0.0000     4          
   294  Li    c     -5.0963 *   -12.9377 *    -1.9603 *  0.0000     4          
   295  Li    c     -9.0170 *    -9.0170       5.8810 *  0.0000     2          
   296  Li    c     -1.1757 *     2.7450 *    13.7224 *  0.0000     4          
   297  Li    c     10.5864 *    -9.0170 *    -1.9603 *  0.0000     4          
   298  Cl    c      0.7847 *    -3.1360 *    13.7224 *  0.0000     4          
   299  Cl    c      8.6260 *   -10.9774 *    -1.9603 *  0.0000     4          
   300  Li    c     12.5467 *    -5.0963 *     3.9207 *  0.0000     4          
   301  O     c     10.5864 *    -5.0963 *     7.8414 *  0.0000     4          
   302  Li    c    -10.9774 *    -9.0170 *     0.0000    0.0000     2          
   303  Cl    c     12.5467 *    -3.1360 *     5.8810 *  0.0000     4          
   304  Li    c      8.6260 *    10.5864 *     3.9207 *  0.0000     4          
   305  Li    c     12.5467 *     6.6657 *     0.0000    0.0000     2          
   306  Li    c     -1.1757 *   -12.9377 *     5.8810 *  0.0000     4          
   307  Li    c     -5.0963 *    -9.0170 *     9.8017 *  0.0000     4          
   308  Li    c      2.7450 *     2.7450      13.7224 *  0.0000     2          
   309  Cl    c     -7.0567 *   -10.9774 *     5.8810 *  0.0000     4          
   310  Li    c      4.7054 *   -12.9377 *     3.9207 *  0.0000     4          
   311  Li    c      4.7054 *     6.6657 *    11.7620 *  0.0000     4          
   312  Li    c    -10.9774 *    -5.0963 *     7.8414 *  0.0000     4          
   313  Cl    c     -3.1360 *    -3.1360      13.7224 *  0.0000     2          
   314  O     c     -5.0963 *   -12.9377 *     3.9207 *  0.0000     4          
   315  O     c      6.6657 *    -5.0963 *    11.7620 *  0.0000     4          
   316  O     c     10.5864 *    -9.0170 *     3.9207 *  0.0000     4          
   317  Li    c      2.7450 *   -12.9377 *     5.8810 *  0.0000     4          
   318  Li    c     -1.1757 *    10.5864 *     9.8017 *  0.0000     4          
   319  Cl    c      0.7847 *     4.7054 *    13.7224 *  0.0000     4          
   320  Cl    c     12.5467 *    -7.0567 *    -1.9603 *  0.0000     4          
   321  Li    c      0.7847 *    14.5070 *     0.0000    0.0000     2          
   322  O     c      6.6657 *   -12.9377 *     0.0000    0.0000     2          
   323  O     c     -1.1757 *    14.5070 *     0.0000    0.0000     2          
   324  Li    c     -7.0567 *    -5.0963 *    11.7620 *  0.0000     4          
   325  Li    c      8.6260 *    -1.1757 *    11.7620 *  0.0000     4          
   326  Cl    c      4.7054 *    12.5467 *     5.8810 *  0.0000     4          
   327  Li    c     -1.1757 *    -5.0963 *    13.7224 *  0.0000     4          
   328  Li    c      6.6657 *   -12.9377 *    -1.9603 *  0.0000     4          
   329  Li    c     -1.1757 *    14.5070 *    -1.9603 *  0.0000     4          
   330  Li    c      2.7450 *    10.5864 *     9.8017 *  0.0000     4          
   331  Li    c     -7.0567 *   -12.9377 *     0.0000    0.0000     2          
   332  Li    c    -10.9774 *    -9.0170 *     3.9207 *  0.0000     4          
   333  Cl    c      0.7847 *   -10.9774 *     9.8017 *  0.0000     4          
   334  Li    c      8.6260 *    -9.0170 *     7.8414 *  0.0000     4          
   335  Li    c     12.5467 *     6.6657 *     3.9207 *  0.0000     4          
   336  O     c      2.7450 *    14.5070 *     0.0000    0.0000     2          
   337  O     c      6.6657 *    10.5864 *     7.8414 *  0.0000     4          
   338  Li    c      0.7847 *    -9.0170 *    11.7620 *  0.0000     4          
   339  Cl    c      4.7054 *    -3.1360 *    13.7224 *  0.0000     4          
   340  Cl    c      8.6260 *    -7.0567 *     9.8017 *  0.0000     4          
   341  Li    c     -3.1360 *    14.5070 *     0.0000    0.0000     2          
   342  Li    c      8.6260 *     2.7450 *    11.7620 *  0.0000     4          
   343  Li    c     12.5467 *    -1.1757 *     7.8414 *  0.0000     4          
   344  O     c     -1.1757 *    -9.0170 *    11.7620 *  0.0000     4          
   345  Li    c      2.7450 *    -5.0963 *    13.7224 *  0.0000     4          
   346  Li    c      6.6657 *    -9.0170 *     9.8017 *  0.0000     4          
   347  Li    c      2.7450 *    14.5070 *    -1.9603 *  0.0000     4          
   348  Li    c    -14.8980 *    -1.1757 *     0.0000    0.0000     2          
   349  Li    c     -7.0567 *    10.5864 *     7.8414 *  0.0000     4          
   350  O     c     -9.0170 *    -9.0170       7.8414 *  0.0000     2          
   351  O     c     10.5864 *    10.5864       0.0000    0.0000     1          
   352  Cl    c     -3.1360 *   -10.9774 *     9.8017 *  0.0000     4          
   353  Cl    c      0.7847 *   -14.8980 *    -1.9603 *  0.0000     4          
   354  Li    c    -10.9774 *     6.6657 *     7.8414 *  0.0000     4          
   355  Li    c      0.7847 *    14.5070 *     3.9207 *  0.0000     4          
   356  Li    c     12.5467 *     2.7450 *     7.8414 *  0.0000     4          
   357  O     c      2.7450 *    -9.0170 *    11.7620 *  0.0000     4          
   358  O     c      6.6657 *   -12.9377 *     3.9207 *  0.0000     4          
   359  O     c     -1.1757 *    14.5070 *     3.9207 *  0.0000     4          
   360  O     c      6.6657 *     6.6657      11.7620 *  0.0000     2          
   361  Li    c     -5.0963 *   -12.9377 *     5.8810 *  0.0000     4          
   362  Li    c     10.5864 *    -9.0170 *     5.8810 *  0.0000     4          
   363  Li    c     10.5864 *    10.5864      -1.9603 *  0.0000     2          
   364  Li    c      0.7847 *   -12.9377 *     7.8414 *  0.0000     4          
   365  Li    c     -3.1360 *    -9.0170 *    11.7620 *  0.0000     4          
   366  Li    c    -14.8980 *     2.7450 *     0.0000    0.0000     2          
   367  Cl    c      8.6260 *   -10.9774 *     5.8810 *  0.0000     4          
   368  O     c     -1.1757 *   -12.9377 *     7.8414 *  0.0000     4          
   369  Li    c     -7.0567 *   -12.9377 *     3.9207 *  0.0000     4          
   370  Li    c     -7.0567 *     6.6657 *    11.7620 *  0.0000     4          
   371  Li    c    -10.9774 *    10.5864 *     0.0000    0.0000     2          
   372  Cl    c      4.7054 *     4.7054      13.7224 *  0.0000     2          
   373  Li    c      4.7054 *    14.5070 *     0.0000    0.0000     2          
   374  O     c      2.7450 *    14.5070 *     3.9207 *  0.0000     4          
   375  Li    c     -1.1757 *     6.6657 *    13.7224 *  0.0000     4          
   376  Li    c     10.5864 *    -5.0963 *     9.8017 *  0.0000     4          
   377  Cl    c     -3.1360 *   -14.8980 *    -1.9603 *  0.0000     4          
   378  Li    c     -3.1360 *    14.5070 *     3.9207 *  0.0000     4          
   379  Cl    c      8.6260 *    12.5467 *    -1.9603 *  0.0000     4          
   380  O     c      2.7450 *   -12.9377 *     7.8414 *  0.0000     4          
   381  O     c     14.5070 *    -5.0963 *     0.0000    0.0000     2          
   382  Li    c     -3.1360 *   -12.9377 *     7.8414 *  0.0000     4          
   383  Li    c    -14.8980 *    -1.1757 *     3.9207 *  0.0000     4          
   384  Cl    c      0.7847 *    -7.0567 *    13.7224 *  0.0000     4          
   385  Cl    c      4.7054 *   -10.9774 *     9.8017 *  0.0000     4          
   386  Li    c      8.6260 *    -5.0963 *    11.7620 *  0.0000     4          
   387  Li    c     12.5467 *    -9.0170 *     0.0000    0.0000     2          
   388  O     c     10.5864 *    10.5864       3.9207 *  0.0000     2          
   389  Li    c     -5.0963 *    -5.0963      13.7224 *  0.0000     2          
   390  Li    c      2.7450 *     6.6657 *    13.7224 *  0.0000     4          
   391  Li    c     14.5070 *    -5.0963 *    -1.9603 *  0.0000     4          
   392  Li    c      4.7054 *    -9.0170 *    11.7620 *  0.0000     4          
   393  Li    c      8.6260 *   -12.9377 *     0.0000    0.0000     2          
   394  Cl    c     12.5467 *    -7.0567 *     5.8810 *  0.0000     4          
   395  Cl    c    -10.9774 *   -10.9774      -1.9603 *  0.0000     2          
   396  Li    c    -14.8980 *     2.7450 *     3.9207 *  0.0000     4          
   397  Li    c     12.5467 *    -5.0963 *     7.8414 *  0.0000     4          
   398  Cl    c      8.6260 *     8.6260       9.8017 *  0.0000     2          
   399  O     c     -5.0963 *    -9.0170 *    11.7620 *  0.0000     4          
   400  Li    c      6.6657 *   -12.9377 *     5.8810 *  0.0000     4          
   401  Li    c     -1.1757 *    14.5070 *     5.8810 *  0.0000     4          
   402  Li    c    -14.8980 *    -5.0963 *     0.0000    0.0000     2          
   403  Cl    c     -3.1360 *    -7.0567 *    13.7224 *  0.0000     4          
   404  Cl    c      4.7054 *   -14.8980 *    -1.9603 *  0.0000     4          
   405  Li    c      0.7847 *    -1.1757 *    15.6827 *  0.0000     4          
   406  Li    c    -10.9774 *    10.5864 *     3.9207 *  0.0000     4          
   407  Li    c      4.7054 *    14.5070 *     3.9207 *  0.0000     4          
   408  Li    c      8.6260 *    10.5864 *     7.8414 *  0.0000     4          
   409  O     c     -9.0170 *   -12.9377 *     0.0000    0.0000     2          
   410  O     c     -1.1757 *    -1.1757      15.6827 *  0.0000     2          
   411  Li    c      4.7054 *   -12.9377 *     7.8414 *  0.0000     4          
   412  Li    c      0.7847 *    10.5864 *    11.7620 *  0.0000     4          
   413  O     c     14.5070 *    -5.0963 *     3.9207 *  0.0000     4          
   414  O     c     -1.1757 *    10.5864 *    11.7620 *  0.0000     4          
   415  Li    c     -9.0170 *   -12.9377 *    -1.9603 *  0.0000     4          
   416  Li    c      2.7450 *    14.5070 *     5.8810 *  0.0000     4          
   417  Li    c      6.6657 *    10.5864 *     9.8017 *  0.0000     4          
   418  Li    c      0.7847 *     2.7450 *    15.6827 *  0.0000     4          
   419  Li    c     12.5467 *    -9.0170 *     3.9207 *  0.0000     4          
   420  Cl    c      0.7847 *    12.5467 *     9.8017 *  0.0000     4          
   421  O     c     -5.0963 *   -12.9377 *     7.8414 *  0.0000     4          
   422  O     c     -1.1757 *     2.7450 *    15.6827 *  0.0000     4          
   423  O     c     10.5864 *    -9.0170 *     7.8414 *  0.0000     4          
   424  O     c      6.6657 *    14.5070 *     0.0000    0.0000     2          
   425  Cl    c      0.7847 *   -14.8980 *     5.8810 *  0.0000     4          
   426  Li    c      8.6260 *   -12.9377 *     3.9207 *  0.0000     4          
   427  Li    c     -3.1360 *    -1.1757 *    15.6827 *  0.0000     4          
   428  Li    c      8.6260 *     6.6657 *    11.7620 *  0.0000     4          
   429  O     c      2.7450 *    10.5864 *    11.7620 *  0.0000     4          
   430  Li    c     -9.0170 *    -9.0170       9.8017 *  0.0000     2          
   431  Li    c      6.6657 *    -5.0963 *    13.7224 *  0.0000     4          
   432  Li    c      6.6657 *    14.5070 *    -1.9603 *  0.0000     4          
   433  Li    c     10.5864 *    10.5864       5.8810 *  0.0000     2          
   434  Li    c    -10.9774 *    -1.1757 *    11.7620 *  0.0000     4          
   435  Cl    c      4.7054 *    -7.0567 *    13.7224 *  0.0000     4          
   436  Li    c     -7.0567 *    14.5070 *     0.0000    0.0000     2          
   437  Li    c     -3.1360 *    10.5864 *    11.7620 *  0.0000     4          
   438  O     c      2.7450 *     2.7450      15.6827 *  0.0000     2          
   439  Li    c    -10.9774 *    -9.0170 *     7.8414 *  0.0000     4          
   440  Li    c    -14.8980 *    -5.0963 *     3.9207 *  0.0000     4          
   441  Li    c     -3.1360 *     2.7450 *    15.6827 *  0.0000     4          
   442  Cl    c      0.7847 *     8.6260 *    13.7224 *  0.0000     4          
   443  Cl    c     12.5467 *    -3.1360 *     9.8017 *  0.0000     4          
   444  Li    c     12.5467 *     6.6657 *     7.8414 *  0.0000     4          
   445  O     c     -9.0170 *   -12.9377 *     3.9207 *  0.0000     4          
   446  O     c      6.6657 *    -9.0170 *    11.7620 *  0.0000     4          
   447  Li    c     -1.1757 *   -12.9377 *     9.8017 *  0.0000     4          
   448  Cl    c     -3.1360 *   -14.8980 *     5.8810 *  0.0000     4          
   449  Cl    c     -7.0567 *   -10.9774 *     9.8017 *  0.0000     4          
   450  Li    c    -10.9774 *     2.7450 *    11.7620 *  0.0000     4          
   451  Li    c    -14.8980 *     6.6657 *     0.0000    0.0000     2          
   452  Cl    c      8.6260 *    12.5467 *     5.8810 *  0.0000     4          
   453  Li    c     -7.0567 *    -9.0170 *    11.7620 *  0.0000     4          
   454  Li    c      4.7054 *    -1.1757 *    15.6827 *  0.0000     4          
   455  Li    c     12.5467 *    10.5864 *     0.0000    0.0000     2          
   456  O     c      6.6657 *    14.5070 *     3.9207 *  0.0000     4          
   457  Li    c     -1.1757 *    -9.0170 *    13.7224 *  0.0000     4          
   458  Li    c      2.7450 *   -12.9377 *     9.8017 *  0.0000     4          
   459  Li    c     14.5070 *    -5.0963 *     5.8810 *  0.0000     4          
   460  Li    c      0.7847 *    -5.0963 *    15.6827 *  0.0000     4          
   461  Cl    c      8.6260 *    -3.1360 *    13.7224 *  0.0000     4          
   462  Li    c      0.7847 *    14.5070 *     7.8414 *  0.0000     4          
   463  Li    c      4.7054 *    10.5864 *    11.7620 *  0.0000     4          
   464  Li    c     16.4674 *    -1.1757 *     0.0000    0.0000     2          
   465  O     c      6.6657 *   -12.9377 *     7.8414 *  0.0000     4          
   466  O     c     -1.1757 *    -5.0963 *    15.6827 *  0.0000     4          
   467  O     c     -1.1757 *    14.5070 *     7.8414 *  0.0000     4          
   468  Cl    c     -7.0567 *   -14.8980 *    -1.9603 *  0.0000     4          
   469  Cl    c    -10.9774 *   -10.9774       5.8810 *  0.0000     2          
   470  Li    c     -7.0567 *    14.5070 *     3.9207 *  0.0000     4          
   471  Li    c      4.7054 *     2.7450 *    15.6827 *  0.0000     4          
   472  Cl    c      4.7054 *    12.5467 *     9.8017 *  0.0000     4          
   473  Cl    c      0.7847 *    16.4674 *    -1.9603 *  0.0000     4          
   474  O     c     10.5864 *    -5.0963 *    11.7620 *  0.0000     4          
   475  Li    c      2.7450 *    -9.0170 *    13.7224 *  0.0000     4          
   476  Li    c      6.6657 *     6.6657      13.7224 *  0.0000     2          
   477  Li    c     -7.0567 *   -12.9377 *     7.8414 *  0.0000     4          
   478  Cl    c      4.7054 *   -14.8980 *     5.8810 *  0.0000     4          
   479  Li    c     16.4674 *     2.7450 *     0.0000    0.0000     2          
   480  O     c      2.7450 *    -5.0963 *    15.6827 *  0.0000     4          
   481  O     c     10.5864 *   -12.9377 *     0.0000    0.0000     2          
   482  O     c      2.7450 *    14.5070 *     7.8414 *  0.0000     4          
   483  Li    c     -3.1360 *    -5.0963 *    15.6827 *  0.0000     4          
   484  Li    c    -14.8980 *     6.6657 *     3.9207 *  0.0000     4          
   485  Cl    c     12.5467 *   -10.9774 *    -1.9603 *  0.0000     4          
   486  Li    c     -3.1360 *    14.5070 *     7.8414 *  0.0000     4          
   487  Li    c     -9.0170 *   -12.9377 *     5.8810 *  0.0000     4          
   488  Li    c     10.5864 *   -12.9377 *    -1.9603 *  0.0000     4          
   489  Li    c    -10.9774 *    -5.0963 *    11.7620 *  0.0000     4          
   490  Li    c    -14.8980 *    -1.1757 *     7.8414 *  0.0000     4          
   491  Li    c      0.7847 *   -16.8584 *     0.0000    0.0000     2          
   492  Cl    c      4.7054 *     8.6260 *    13.7224 *  0.0000     4          
   493  Cl    c     16.4674 *    -3.1360 *    -1.9603 *  0.0000     4          
   494  Li    c      8.6260 *    14.5070 *     0.0000    0.0000     2          
   495  Li    c     12.5467 *    10.5864 *     3.9207 *  0.0000     4          
   496  O     c     -1.1757 *   -16.8584 *     0.0000    0.0000     2          
   497  O     c     10.5864 *    10.5864       7.8414 *  0.0000     2          
   498  Li    c    -10.9774 *   -12.9377 *     0.0000    0.0000     2          
   499  Cl    c     -7.0567 *    -7.0567      13.7224 *  0.0000     2          
   500  Li    c     16.4674 *    -1.1757 *     3.9207 *  0.0000     4          
   501  Li    c     -5.0963 *   -12.9377 *     9.8017 *  0.0000     4          
   502  Li    c     -1.1757 *   -16.8584 *    -1.9603 *  0.0000     4          
   503  Li    c     10.5864 *    -9.0170 *     9.8017 *  0.0000     4          
   504  Li    c      6.6657 *    14.5070 *     5.8810 *  0.0000     4          
   505  Li    c    -14.8980 *     2.7450 *     7.8414 *  0.0000     4          
   506  Cl    c      8.6260 *   -10.9774 *     9.8017 *  0.0000     4          
   507  Li    c      0.7847 *     6.6657 *    15.6827 *  0.0000     4          
   508  O     c      2.7450 *   -16.8584 *     0.0000    0.0000     2          
   509  O     c     14.5070 *    -9.0170 *     0.0000    0.0000     2          
   510  O     c     -1.1757 *     6.6657 *    15.6827 *  0.0000     4          
   511  Li    c     -3.1360 *   -16.8584 *     0.0000    0.0000     2          
   512  Li    c      4.7054 *    -5.0963 *    15.6827 *  0.0000     4          
   513  Li    c      8.6260 *    -9.0170 *    11.7620 *  0.0000     4          
   514  Li    c    -10.9774 *    10.5864 *     7.8414 *  0.0000     4          
   515  Li    c      4.7054 *    14.5070 *     7.8414 *  0.0000     4          
   516  Li    c     16.4674 *     2.7450 *     3.9207 *  0.0000     4          
   517  O     c     10.5864 *   -12.9377 *     3.9207 *  0.0000     4          
   518  O     c      6.6657 *    10.5864 *    11.7620 *  0.0000     4          
   519  Li    c     -5.0963 *    -9.0170 *    13.7224 *  0.0000     4          
   520  Li    c      2.7450 *   -16.8584 *    -1.9603 *  0.0000     4          
   521  Li    c     14.5070 *    -9.0170 *    -1.9603 *  0.0000     4          
   522  Li    c     -7.0567 *    -1.1757 *    15.6827 *  0.0000     4          
   523  Li    c     12.5467 *    -1.1757 *    11.7620 *  0.0000     4          
   524  Li    c     16.4674 *    -5.0963 *     0.0000    0.0000     2          
   525  Cl    c      4.7054 *    16.4674 *    -1.9603 *  0.0000     4          
   526  O     c     -5.0963 *    -5.0963      15.6827 *  0.0000     2          
   527  O     c      2.7450 *     6.6657 *    15.6827 *  0.0000     4          
   528  O     c     14.5070 *    -5.0963 *     7.8414 *  0.0000     4          
   529  Li    c      0.7847 *   -16.8584 *     3.9207 *  0.0000     4          
   530  Cl    c      8.6260 *   -14.8980 *    -1.9603 *  0.0000     4          
   531  Li    c     12.5467 *    -9.0170 *     7.8414 *  0.0000     4          
   532  Li    c     -3.1360 *     6.6657 *    15.6827 *  0.0000     4          
   533  Li    c     -7.0567 *    10.5864 *    11.7620 *  0.0000     4          
   534  Li    c      8.6260 *    14.5070 *     3.9207 *  0.0000     4          
   535  O     c     -1.1757 *   -16.8584 *     3.9207 *  0.0000     4          
   536  O     c     -9.0170 *    -9.0170      11.7620 *  0.0000     2          
   537  Li    c     -1.1757 *    10.5864 *    13.7224 *  0.0000     4          
   538  Li    c    -10.9774 *   -12.9377 *     3.9207 *  0.0000     4          
   539  Li    c    -14.8980 *    -9.0170 *     0.0000    0.0000     2          
   540  Li    c      8.6260 *   -12.9377 *     7.8414 *  0.0000     4          
   541  Li    c     -7.0567 *     2.7450 *    15.6827 *  0.0000     4          
   542  Li    c    -10.9774 *     6.6657 *    11.7620 *  0.0000     4          
   543  Cl    c     12.5467 *    -7.0567 *     9.8017 *  0.0000     4          
   544  Li    c     12.5467 *     2.7450 *    11.7620 *  0.0000     4          
   545  Cl    c     -7.0567 *   -14.8980 *     5.8810 *  0.0000     4          
   546  Li    c      0.7847 *   -12.9377 *    11.7620 *  0.0000     4          
   547  Li    c      4.7054 *   -16.8584 *     0.0000    0.0000     2          
   548  Cl    c      0.7847 *    16.4674 *     5.8810 *  0.0000     4          
   549  O     c     -1.1757 *   -12.9377 *    11.7620 *  0.0000     4          
   550  O     c      2.7450 *   -16.8584 *     3.9207 *  0.0000     4          
   551  O     c     14.5070 *    -9.0170 *     3.9207 *  0.0000     4          
   552  Li    c      6.6657 *   -12.9377 *     9.8017 *  0.0000     4          
   553  Li    c     -1.1757 *    14.5070 *     9.8017 *  0.0000     4          
   554  Li    c      2.7450 *    10.5864 *    13.7224 *  0.0000     4          
   555  Li    c     -3.1360 *   -16.8584 *     3.9207 *  0.0000     4          
   556  Li    c    -14.8980 *    -5.0963 *     7.8414 *  0.0000     4          
   557  Cl    c      0.7847 *   -10.9774 *    13.7224 *  0.0000     4          
   558  O     c     -5.0963 *   -16.8584 *     0.0000    0.0000     2          
   559  O     c     -9.0170 *   -12.9377 *     7.8414 *  0.0000     4          
   560  Cl    c      0.7847 *     0.7847      17.6430 *  0.0000     2          
   561  Cl    c      8.6260 *    -7.0567 *    13.7224 *  0.0000     4          
   562  Cl    c     12.5467 *   -10.9774 *     5.8810 *  0.0000     4          
   563  Li    c      4.7054 *     6.6657 *    15.6827 *  0.0000     4          
   564  Li    c     16.4674 *    -5.0963 *     3.9207 *  0.0000     4          
   565  O     c      2.7450 *   -12.9377 *    11.7620 *  0.0000     4          
   566  Li    c     -5.0963 *   -16.8584 *    -1.9603 *  0.0000     4          
   567  Li    c      6.6657 *    -9.0170 *    13.7224 *  0.0000     4          
   568  Li    c     -1.1757 *    -1.1757      17.6430 *  0.0000     2          
   569  Li    c     10.5864 *   -12.9377 *     5.8810 *  0.0000     4          
   570  Li    c      2.7450 *    14.5070 *     9.8017 *  0.0000     4          
   571  Li    c     -3.1360 *   -12.9377 *    11.7620 *  0.0000     4          
   572  Cl    c     16.4674 *    -3.1360 *     5.8810 *  0.0000     4          
   573  Li    c     16.4674 *     6.6657 *     0.0000    0.0000     2          
   574  O     c      6.6657 *    -5.0963 *    15.6827 *  0.0000     4          
   575  O     c      6.6657 *    14.5070 *     7.8414 *  0.0000     4          
   576  Li    c    -14.8980 *    -9.0170 *     3.9207 *  0.0000     4          
   577  Cl    c      0.7847 *   -14.8980 *     9.8017 *  0.0000     4          
   578  Cl    c     -3.1360 *   -10.9774 *    13.7224 *  0.0000     4          
   579  Cl    c     12.5467 *    12.5467      -1.9603 *  0.0000     2          
   580  Li    c     -1.1757 *   -16.8584 *     5.8810 *  0.0000     4          
   581  Li    c     -1.1757 *     2.7450 *    17.6430 *  0.0000     4          
   582  Li    c     10.5864 *    10.5864       9.8017 *  0.0000     2          
   583  Li    c     -7.0567 *    -5.0963 *    15.6827 *  0.0000     4          
   584  Li    c      4.7054 *   -16.8584 *     3.9207 *  0.0000     4          
   585  Cl    c      0.7847 *    -3.1360 *    17.6430 *  0.0000     4          
   586  Li    c      8.6260 *    -1.1757 *    15.6827 *  0.0000     4          
   587  Li    c     12.5467 *    -5.0963 *    11.7620 *  0.0000     4          
   588  Li    c     -7.0567 *    14.5070 *     7.8414 *  0.0000     4          
   589  O     c     10.5864 *    14.5070 *     0.0000    0.0000     2          
   590  Li    c     12.5467 *   -12.9377 *     0.0000    0.0000     2          
   591  Cl    c     16.4674 *    -7.0567 *    -1.9603 *  0.0000     4          
   592  Li    c      8.6260 *    10.5864 *    11.7620 *  0.0000     4          
   593  O     c     -5.0963 *   -16.8584 *     3.9207 *  0.0000     4          
   594  Li    c      2.7450 *   -16.8584 *     5.8810 *  0.0000     4          
   595  Li    c      2.7450 *     2.7450      17.6430 *  0.0000     2          
   596  Li    c     14.5070 *    -9.0170 *     5.8810 *  0.0000     4          
   597  Li    c     10.5864 *    -5.0963 *    13.7224 *  0.0000     4          
   598  Li    c     10.5864 *    14.5070 *    -1.9603 *  0.0000     4          
   599  Cl    c     -3.1360 *   -14.8980 *     9.8017 *  0.0000     4          
   600  Li    c      4.7054 *   -12.9377 *    11.7620 *  0.0000     4          
   601  Li    c      0.7847 *    -9.0170 *    15.6827 *  0.0000     4          
   602  Li    c    -14.8980 *     6.6657 *     7.8414 *  0.0000     4          
   603  Li    c      8.6260 *     2.7450 *    15.6827 *  0.0000     4          
   604  Cl    c      4.7054 *    16.4674 *     5.8810 *  0.0000     4          
   605  Cl    c      8.6260 *    12.5467 *     9.8017 *  0.0000     4          
   606  O     c     -1.1757 *    -9.0170 *    15.6827 *  0.0000     4          
   607  O     c      6.6657 *   -16.8584 *     0.0000    0.0000     2          
   608  Cl    c     -3.1360 *    -3.1360      17.6430 *  0.0000     2          
   609  Cl    c      4.7054 *   -10.9774 *    13.7224 *  0.0000     4          
   610  Cl    c      8.6260 *   -14.8980 *     5.8810 *  0.0000     4          
   611  Li    c    -10.9774 *    14.5070 *     0.0000    0.0000     2          
   612  Li    c     16.4674 *     6.6657 *     3.9207 *  0.0000     4          
   613  Li    c     12.5467 *    10.5864 *     7.8414 *  0.0000     4          
   614  O     c     -5.0963 *   -12.9377 *    11.7620 *  0.0000     4          
   615  O     c     10.5864 *    -9.0170 *    11.7620 *  0.0000     4          
   616  Li    c      6.6657 *   -16.8584 *    -1.9603 *  0.0000     4          
   617  Li    c     14.5070 *    -5.0963 *     9.8017 *  0.0000     4          
   618  Li    c     -7.0567 *   -16.8584 *     0.0000    0.0000     2          
   619  Li    c    -14.8980 *    10.5864 *     0.0000    0.0000     2          
   620  Cl    c      0.7847 *     4.7054 *    17.6430 *  0.0000     4          
   621  Li    c     16.4674 *    -1.1757 *     7.8414 *  0.0000     4          
   622  O     c    -12.9377 *   -12.9377       0.0000    0.0000     1          
   623  O     c      2.7450 *    -9.0170 *    15.6827 *  0.0000     4          
   624  O     c      6.6657 *     6.6657      15.6827 *  0.0000     2          
   625  Cl    c    -10.9774 *   -10.9774       9.8017 *  0.0000     2          
   626  Li    c     -3.1360 *    -9.0170 *    15.6827 *  0.0000     4          
   627  Cl    c      8.6260 *     8.6260      13.7224 *  0.0000     2          
   628  O     c     10.5864 *    14.5070 *     3.9207 *  0.0000     4          
   629  Li    c    -12.9377 *   -12.9377      -1.9603 *  0.0000     2          
   630  Li    c     -1.1757 *    -5.0963 *    17.6430 *  0.0000     4          
   631  Li    c    -10.9774 *    -9.0170 *    11.7620 *  0.0000     4          
   632  Cl    c      4.7054 *   -14.8980 *     9.8017 *  0.0000     4          
   633  Li    c     12.5467 *   -12.9377 *     3.9207 *  0.0000     4          
   634  Li    c     -7.0567 *     6.6657 *    15.6827 *  0.0000     4          
   635  Li    c      0.7847 *    18.4277 *     0.0000    0.0000     2          
   636  Li    c     12.5467 *     6.6657 *    11.7620 *  0.0000     4          
   637  Li    c     16.4674 *     2.7450 *     7.8414 *  0.0000     4          
   638  O     c     10.5864 *   -12.9377 *     7.8414 *  0.0000     4          
   639  O     c     -1.1757 *    18.4277 *     0.0000    0.0000     2          
   640  Cl    c      4.7054 *    -3.1360 *    17.6430 *  0.0000     4          
   641  O     c      6.6657 *   -16.8584 *     3.9207 *  0.0000     4          
   642  Li    c     -5.0963 *   -16.8584 *     5.8810 *  0.0000     4          
   643  Li    c     -9.0170 *   -12.9377 *     9.8017 *  0.0000     4          
   644  Li    c      2.7450 *    -5.0963 *    17.6430 *  0.0000     4          
   645  Li    c     -1.1757 *    18.4277 *    -1.9603 *  0.0000     4          
   646  Li    c      6.6657 *    10.5864 *    13.7224 *  0.0000     4          
   647  Cl    c    -10.9774 *   -14.8980 *    -1.9603 *  0.0000     4          
   648  Li    c      0.7847 *   -16.8584 *     7.8414 *  0.0000     4          
   649  Li    c      8.6260 *    -5.0963 *    15.6827 *  0.0000     4          
   650  Li    c    -10.9774 *    14.5070 *     3.9207 *  0.0000     4          
   651  Cl    c      0.7847 *    12.5467 *    13.7224 *  0.0000     4          
   652  Li    c      8.6260 *    14.5070 *     7.8414 *  0.0000     4          
   653  O     c     -1.1757 *   -16.8584 *     7.8414 *  0.0000     4          
   654  O     c      2.7450 *    18.4277 *     0.0000    0.0000     2          
   655  Li    c     -7.0567 *   -16.8584 *     3.9207 *  0.0000     4          
   656  Li    c    -10.9774 *   -12.9377 *     7.8414 *  0.0000     4          
   657  Li    c      4.7054 *    -9.0170 *    15.6827 *  0.0000     4          
   658  Li    c    -14.8980 *    10.5864 *     3.9207 *  0.0000     4          
   659  Li    c      0.7847 *    14.5070 *    11.7620 *  0.0000     4          
   660  Li    c     -3.1360 *    18.4277 *     0.0000    0.0000     2          
   661  Cl    c      8.6260 *    16.4674 *    -1.9603 *  0.0000     4          
   662  Cl    c     12.5467 *    12.5467       5.8810 *  0.0000     2          
   663  O     c    -12.9377 *   -12.9377       3.9207 *  0.0000     2          
   664  O     c      6.6657 *   -12.9377 *    11.7620 *  0.0000     4          
   665  O     c     -1.1757 *    14.5070 *    11.7620 *  0.0000     4          
   666  Li    c     -9.0170 *    -9.0170      13.7224 *  0.0000     2          
   667  Li    c      2.7450 *    18.4277 *    -1.9603 *  0.0000     4          
   668  Li    c      6.6657 *    14.5070 *     9.8017 *  0.0000     4          
   669  Li    c     16.4674 *    -9.0170 *     0.0000    0.0000     2          
   670  O     c     -5.0963 *    -9.0170 *    15.6827 *  0.0000     4          
   671  O     c      2.7450 *   -16.8584 *     7.8414 *  0.0000     4          
   672  O     c     14.5070 *    -9.0170 *     7.8414 *  0.0000     4          
   673  Li    c     -3.1360 *   -16.8584 *     7.8414 *  0.0000     4          
   674  Li    c     -7.0567 *   -12.9377 *    11.7620 *  0.0000     4          
   675  Li    c    -18.8187 *    -1.1757 *     0.0000    0.0000     2          
   676  Cl    c      4.7054 *     4.7054      17.6430 *  0.0000     2          
   677  Cl    c     12.5467 *    -3.1360 *    13.7224 *  0.0000     4          
   678  Cl    c     16.4674 *    -7.0567 *     5.8810 *  0.0000     4          
   679  Li    c      0.7847 *    18.4277 *     3.9207 *  0.0000     4          
   680  O     c     -1.1757 *    18.4277 *     3.9207 *  0.0000     4          
   681  O     c      2.7450 *    14.5070 *    11.7620 *  0.0000     4          
   682  Li    c     -1.1757 *   -12.9377 *    13.7224 *  0.0000     4          
   683  Li    c     -1.1757 *     6.6657 *    17.6430 *  0.0000     4          
   684  Li    c     10.5864 *    14.5070 *     5.8810 *  0.0000     4          
   685  Cl    c     -7.0567 *   -10.9774 *    13.7224 *  0.0000     4          
   686  Cl    c      0.7847 *   -18.8187 *    -1.9603 *  0.0000     4          
   687  Li    c      8.6260 *   -16.8584 *     0.0000    0.0000     2          
   688  Li    c     16.4674 *    -5.0963 *     7.8414 *  0.0000     4          
   689  Li    c     -3.1360 *    14.5070 *    11.7620 *  0.0000     4          
   690  Li    c      0.7847 *    10.5864 *    15.6827 *  0.0000     4          
   691  O     c     -1.1757 *    10.5864 *    15.6827 *  0.0000     4          
   692  Li    c    -14.8980 *    -1.1757 *    11.7620 *  0.0000     4          
   693  Li    c    -18.8187 *     2.7450 *     0.0000    0.0000     2          
   694  Cl    c      0.7847 *    -7.0567 *    17.6430 *  0.0000     4          
   695  Li    c      4.7054 *    18.4277 *     0.0000    0.0000     2          
   696  O     c      2.7450 *    18.4277 *     3.9207 *  0.0000     4          
   697  O     c     10.5864 *    10.5864      11.7620 *  0.0000     2          
   698  Li    c      2.7450 *   -12.9377 *    13.7224 *  0.0000     4          
   699  Li    c     -5.0963 *    -5.0963      17.6430 *  0.0000     2          
[...]
   1049 y        -13.722364    -13.717551     0.004813    Cartesian   -0.04
   1049 z          5.881013      5.879485    -0.001528    Cartesian   -0.03
   1050 x         -3.920675     -3.918865     0.001811    Cartesian   -0.05
   1050 y        -11.762026    -11.759351     0.002676    Cartesian   -0.02
   1050 z         11.762026     11.760696    -0.001331    Cartesian   -0.01
   1051 x         11.762026     11.763255     0.001228    Cartesian    0.01
   1051 y         -7.841351     -7.842511    -0.001160    Cartesian    0.01
   1051 z         11.762026     11.762567     0.000540    Cartesian    0.00
   1052 x          1.960338      1.960707     0.000370    Cartesian    0.02
   1052 y          5.881013      5.882703     0.001689    Cartesian    0.03
   1052 z         17.643040     17.636501    -0.006539    Cartesian   -0.04
   1053 x        -11.762026    -11.761886     0.000141    Cartesian   -0.00
   1053 y        -11.762026    -11.761886     0.000141    Cartesian   -0.00
   1053 z          0.000000      0.000000     0.000000    Cartesian    0.00
   1054 x          3.920675      3.919365    -0.001310    Cartesian   -0.03
   1054 y         -7.841351     -7.841421    -0.000070    Cartesian    0.00
   1054 z         15.682702     15.681006    -0.001696    Cartesian   -0.01
   1055 x          7.841351      7.843518     0.002167    Cartesian    0.03
   1055 y          7.841351      7.843518     0.002167    Cartesian    0.03
   1055 z         15.682702     15.685363     0.002661    Cartesian    0.02
   1056 x         -9.801689     -9.793112     0.008577    Cartesian   -0.09
   1056 y         -9.801689     -9.793112     0.008577    Cartesian   -0.09
   1056 z          9.801689      9.796040    -0.005649    Cartesian   -0.06
   1057 x          9.801689      9.803491     0.001802    Cartesian    0.02
   1057 y          9.801689      9.803491     0.001802    Cartesian    0.02
   1057 z         13.722364     13.721647    -0.000717    Cartesian   -0.01
   1058 x         11.762026     11.766388     0.004362    Cartesian    0.04
   1058 y         15.682702     15.687358     0.004656    Cartesian    0.03
   1058 z          3.920675      3.920623    -0.000053    Cartesian   -0.00
   1059 x          5.881013      5.879450    -0.001563    Cartesian   -0.03
   1059 y        -13.722364    -13.715952     0.006412    Cartesian   -0.05
   1059 z          9.801689      9.799934    -0.001754    Cartesian   -0.02
   1060 x         11.762026     11.763979     0.001953    Cartesian    0.02
   1060 y        -11.762026    -11.762968    -0.000941    Cartesian    0.01
   1060 z          7.841351      7.842050     0.000699    Cartesian    0.01
   1061 x          0.000000      0.000119     0.000119    Cartesian    0.00
   1061 y         19.603377     19.603386     0.000008    Cartesian    0.00
   1061 z          0.000000      0.000000     0.000000    Cartesian    0.00
   1062 x          5.881013      5.880290    -0.000724    Cartesian   -0.01
   1062 y         -1.960338     -1.959656     0.000682    Cartesian   -0.03
   1062 z         17.643040     17.636936    -0.006104    Cartesian   -0.03
   1063 x          7.841351      7.842152     0.000801    Cartesian    0.01
   1063 y        -15.682702    -15.682090     0.000612    Cartesian   -0.00
   1063 z          3.920675      3.921082     0.000406    Cartesian    0.01
   1064 x         -9.801689     -9.797617     0.004072    Cartesian   -0.04
   1064 y        -13.722364    -13.715298     0.007066    Cartesian   -0.05
   1064 z         -1.960338     -1.959549     0.000789    Cartesian   -0.04
   1065 x          1.960338      1.960939     0.000601    Cartesian    0.03
   1065 y         13.722364     13.721558    -0.000806    Cartesian   -0.01
   1065 z         13.722364     13.719013    -0.003352    Cartesian   -0.02
   1066 x          0.000000      0.000419     0.000419    Cartesian    0.00
   1066 y        -15.682702    -15.680814     0.001888    Cartesian   -0.01
   1066 z          7.841351      7.842170     0.000819    Cartesian    0.01
   1067 x          3.920675      3.921073     0.000397    Cartesian    0.01
   1067 y         19.603377     19.603884     0.000507    Cartesian    0.00
   1067 z          0.000000      0.000000     0.000000    Cartesian    0.00
   1068 x          9.801689      9.802678     0.000990    Cartesian    0.01
   1068 y         17.643040     17.639148    -0.003892    Cartesian   -0.02
   1068 z         -1.960338     -1.959074     0.001263    Cartesian   -0.06
   1069 x         13.722364     13.720707    -0.001657    Cartesian   -0.01
   1069 y         13.722364     13.720707    -0.001657    Cartesian   -0.01
   1069 z          5.881013      5.878638    -0.002375    Cartesian   -0.04
   1070 x        -11.762026    -11.758757     0.003270    Cartesian   -0.03
   1070 y        -11.762026    -11.758757     0.003270    Cartesian   -0.03
   1070 z          3.920675      3.919927    -0.000749    Cartesian   -0.02
   1071 x          7.841351      7.840097    -0.001254    Cartesian   -0.02
   1071 y        -11.762026    -11.759764     0.002262    Cartesian   -0.02
   1071 z         11.762026     11.760632    -0.001394    Cartesian   -0.01
   1072 x          0.000000      0.000071     0.000071    Cartesian    0.00
   1072 y         15.682702     15.682185    -0.000517    Cartesian   -0.00
   1072 z         11.762026     11.761156    -0.000871    Cartesian   -0.01
   1073 x         -3.920675     -3.919615     0.001061    Cartesian   -0.03
   1073 y         -7.841351     -7.839613     0.001738    Cartesian   -0.02
   1073 z         15.682702     15.680199    -0.002503    Cartesian   -0.02
   1074 x          3.920675      3.920873     0.000198    Cartesian    0.01
   1074 y        -15.682702    -15.681237     0.001465    Cartesian   -0.01
   1074 z          7.841351      7.841926     0.000575    Cartesian    0.01
   1075 x         15.682702     15.683480     0.000778    Cartesian    0.00
   1075 y         -7.841351     -7.841633    -0.000282    Cartesian    0.00
   1075 z          7.841351      7.841509     0.000158    Cartesian    0.00
   1076 x          5.881013      5.881064     0.000051    Cartesian    0.00
   1076 y          5.881013      5.881064     0.000051    Cartesian    0.00
   1076 z         17.643040     17.635862    -0.007178    Cartesian   -0.04
   1077 x         13.722364     13.720438    -0.001927    Cartesian   -0.01
   1077 y         -1.960338     -1.958748     0.001590    Cartesian   -0.08
   1077 z         13.722364     13.717644    -0.004720    Cartesian   -0.03
   1078 x         17.643040     17.637613    -0.005427    Cartesian   -0.03
   1078 y         -5.881013     -5.877923     0.003091    Cartesian   -0.05
   1078 z          5.881013      5.879121    -0.001892    Cartesian   -0.03
   1079 x          0.000000      0.000307     0.000307    Cartesian    0.00
   1079 y         19.603377     19.603348    -0.000029    Cartesian   -0.00
   1079 z          3.920675      3.920995     0.000319    Cartesian    0.01
   1080 x          3.920675      3.920903     0.000227    Cartesian    0.01
   1080 y         15.682702     15.682750     0.000048    Cartesian    0.00
   1080 z         11.762026     11.761790    -0.000236    Cartesian   -0.00
   1081 x         -5.881013     -5.876524     0.004490    Cartesian   -0.08
   1081 y         -9.801689     -9.794182     0.007506    Cartesian   -0.08
   1081 z         13.722364     13.714940    -0.007424    Cartesian   -0.05
   1082 x          1.960338      1.960605     0.000267    Cartesian    0.01
   1082 y        -17.643040    -17.635491     0.007549    Cartesian   -0.04
   1082 z         -1.960338     -1.959612     0.000726    Cartesian   -0.04
   1083 x          0.000000     -0.000143    -0.000143    Cartesian    0.00
   1083 y         11.762026     11.762077     0.000051    Cartesian    0.00
   1083 z         15.682702     15.681060    -0.001642    Cartesian   -0.01
   1084 x          1.960338      1.960436     0.000098    Cartesian    0.01
   1084 y         -5.881013     -5.877528     0.003485    Cartesian   -0.06
   1084 z         17.643040     17.634516    -0.008524    Cartesian   -0.05
   1085 x          3.920675      3.921000     0.000324    Cartesian    0.01
   1085 y         19.603377     19.603776     0.000398    Cartesian    0.00
   1085 z          3.920675      3.921142     0.000466    Cartesian    0.01
   1086 x         11.762026     11.761715    -0.000311    Cartesian   -0.00
   1086 y         11.762026     11.761715    -0.000311    Cartesian   -0.00
   1086 z         11.762026     11.760864    -0.001163    Cartesian   -0.01
   1087 x         -7.841351     -7.839281     0.002070    Cartesian   -0.03
   1087 y        -15.682702    -15.679033     0.003669    Cartesian   -0.02
   1087 z          0.000000      0.000000     0.000000    Cartesian    0.00
   1088 x         19.603377     19.602847    -0.000530    Cartesian   -0.00
   1088 y         -3.920675     -3.920312     0.000364    Cartesian   -0.01
   1088 z          0.000000      0.000000     0.000000    Cartesian    0.00
   1089 x          3.920675      3.921019     0.000344    Cartesian    0.01
   1089 y         11.762026     11.762069     0.000043    Cartesian    0.00
   1089 z         15.682702     15.682138    -0.000564    Cartesian   -0.00
   1090 x         -1.960338     -1.958699     0.001639    Cartesian   -0.08
   1090 y        -17.643040    -17.634436     0.008603    Cartesian   -0.05
   1090 z         -1.960338     -1.959470     0.000867    Cartesian   -0.04
   1091 x         -5.881013     -5.877156     0.003857    Cartesian   -0.07
   1091 y        -13.722364    -13.714725     0.007639    Cartesian   -0.06
   1091 z          9.801689      9.796999    -0.004690    Cartesian   -0.05
   1092 x          5.881013      5.880275    -0.000738    Cartesian   -0.01
   1092 y         13.722364     13.720629    -0.001735    Cartesian   -0.01
   1092 z         13.722364     13.718711    -0.003653    Cartesian   -0.03
   1093 x          1.960338      1.961192     0.000854    Cartesian    0.04
   1093 y         17.643040     17.636533    -0.006507    Cartesian   -0.04
   1093 z          9.801689      9.798037    -0.003651    Cartesian   -0.04
   1094 x         -1.960338     -1.958579     0.001758    Cartesian   -0.09
   1094 y         -5.881013     -5.877032     0.003981    Cartesian   -0.07
   1094 z         17.643040     17.633471    -0.009568    Cartesian   -0.05
   1095 x         -3.920675     -3.920130     0.000546    Cartesian   -0.01
   1095 y        -15.682702    -15.679850     0.002852    Cartesian   -0.02
   1095 z          7.841351      7.839940    -0.001411    Cartesian   -0.02
   1096 x          7.841351      7.839248    -0.002103    Cartesian   -0.03
   1096 y         -7.841351     -7.839340     0.002011    Cartesian   -0.03
   1096 z         15.682702     15.679033    -0.003669    Cartesian   -0.02
   1097 x         13.722364     13.719253    -0.003111    Cartesian   -0.02
   1097 y         -9.801689     -9.797818     0.003871    Cartesian   -0.04
   1097 z          9.801689      9.798925    -0.002764    Cartesian   -0.03
   1098 x         15.682702     15.681787    -0.000915    Cartesian   -0.01
   1098 y         -3.920675     -3.920588     0.000088    Cartesian   -0.00
   1098 z         11.762026     11.760467    -0.001560    Cartesian   -0.01
   1099 x         -9.801689     -9.794931     0.006758    Cartesian   -0.07
   1099 y        -13.722364    -13.713611     0.008753    Cartesian   -0.06
   1099 z          5.881013      5.877736    -0.003277    Cartesian   -0.06
   1100 x         17.643040     17.635478    -0.007562    Cartesian   -0.04
   1100 y         -1.960338     -1.958069     0.002269    Cartesian   -0.12
   1100 z          9.801689      9.797233    -0.004456    Cartesian   -0.05
   1101 x         15.682702     15.680817    -0.001885    Cartesian   -0.01
   1101 y        -11.762026    -11.760330     0.001697    Cartesian   -0.01
   1101 z          0.000000      0.000000     0.000000    Cartesian    0.00
   1102 x          5.881013      5.879539    -0.001474    Cartesian   -0.03
   1102 y        -17.643040    -17.633611     0.009429    Cartesian   -0.05
   1102 z         -1.960338     -1.959509     0.000828    Cartesian   -0.04
   1103 x          9.801689      9.800610    -0.001079    Cartesian   -0.01
   1103 y         17.643040     17.637672    -0.005368    Cartesian   -0.03
   1103 z          5.881013      5.878730    -0.002283    Cartesian   -0.04
   1104 x         -7.841351     -7.838681     0.002670    Cartesian   -0.03
   1104 y        -15.682702    -15.677845     0.004857    Cartesian   -0.03
   1104 z          3.920675      3.919174    -0.001502    Cartesian   -0.04
   1105 x         19.603377     19.599564    -0.003814    Cartesian   -0.02
   1105 y         -3.920675     -3.918792     0.001883    Cartesian   -0.05
   1105 z          3.920675      3.919126    -0.001550    Cartesian   -0.04
   1106 x          5.881013      5.878479    -0.002534    Cartesian   -0.04
   1106 y         -5.881013     -5.877375     0.003638    Cartesian   -0.06
   1106 z         17.643040     17.633348    -0.009692    Cartesian   -0.05
   1107 x          9.801689      9.797636    -0.004053    Cartesian   -0.04
   1107 y         -9.801689     -9.796103     0.005586    Cartesian   -0.06
   1107 z         13.722364     13.715167    -0.007197    Cartesian   -0.05
   1108 x         13.722364     13.717843    -0.004522    Cartesian   -0.03
   1108 y        -13.722364    -13.715192     0.007172    Cartesian   -0.05
   1108 z         -1.960338     -1.959323     0.001014    Cartesian   -0.05
   1109 x         11.762026     11.760120    -0.001906    Cartesian   -0.02
   1109 y         -3.920675     -3.919395     0.001281    Cartesian   -0.03
   1109 z         15.682702     15.679401    -0.003301    Cartesian   -0.02
   1110 x          7.841351      7.840128    -0.001223    Cartesian   -0.02
   1110 y         19.603377     19.601716    -0.001662    Cartesian   -0.01
   1110 z          0.000000      0.000000     0.000000    Cartesian    0.00
   1111 x         11.762026     11.760621    -0.001406    Cartesian   -0.01
   1111 y         15.682702     15.680603    -0.002099    Cartesian   -0.01
   1111 z          7.841351      7.838558    -0.002793    Cartesian   -0.04
   1112 x          1.960338      1.959976    -0.000361    Cartesian   -0.02
   1112 y          9.801689      9.799033    -0.002656    Cartesian   -0.03
   1112 z         17.643040     17.633739    -0.009301    Cartesian   -0.05
   1113 x         -7.841351     -7.837154     0.004197    Cartesian   -0.05
   1113 y        -11.762026    -11.756682     0.005344    Cartesian   -0.05
   1113 z         11.762026     11.757609    -0.004417    Cartesian   -0.04
   1114 x          0.000000     -0.000132    -0.000132    Cartesian    0.00
   1114 y          0.000000     -0.000132    -0.000132    Cartesian *******
   1114 z         19.603377     19.601778    -0.001599    Cartesian   -0.01
   1115 x          1.960338      1.959871    -0.000467    Cartesian   -0.02
   1115 y        -17.643040    -17.632531     0.010509    Cartesian   -0.06
   1115 z          5.881013      5.878214    -0.002800    Cartesian   -0.05
   1116 x          5.881013      5.879974    -0.001039    Cartesian   -0.02
   1116 y         17.643040     17.635707    -0.007332    Cartesian   -0.04
   1116 z          9.801689      9.797205    -0.004483    Cartesian   -0.05
   1117 x          7.841351      7.839429    -0.001922    Cartesian   -0.02
   1117 y        -15.682702    -15.678209     0.004493    Cartesian   -0.03
   1117 z          7.841351      7.839555    -0.001796    Cartesian   -0.02
   1118 x          9.801689      9.797884    -0.003805    Cartesian   -0.04
   1118 y        -13.722364    -13.713787     0.008578    Cartesian   -0.06
   1118 z          9.801689      9.797532    -0.004157    Cartesian   -0.04
   1119 x          0.000000      0.001136     0.001136    Cartesian    0.00
   1119 y          3.920675      3.919421    -0.001254    Cartesian   -0.03
   1119 z         19.603377     19.598590    -0.004788    Cartesian   -0.02
   1120 x         15.682702     15.679572    -0.003130    Cartesian   -0.02
   1120 y        -11.762026    -11.758750     0.003276    Cartesian   -0.03
   1120 z          3.920675      3.918985    -0.001690    Cartesian   -0.04
   1121 x          7.841351      7.839705    -0.001646    Cartesian   -0.02
   1121 y         15.682702     15.680134    -0.002568    Cartesian   -0.02
   1121 z         11.762026     11.759402    -0.002624    Cartesian   -0.02
   1122 x          9.801689      9.797988    -0.003701    Cartesian   -0.04
   1122 y         -1.960338     -1.958382     0.001956    Cartesian   -0.10
   1122 z         17.643040     17.633382    -0.009658    Cartesian   -0.05
   1123 x         13.722364     13.717449    -0.004915    Cartesian   -0.04
   1123 y         -5.881013     -5.877502     0.003511    Cartesian   -0.06
   1123 z         13.722364     13.715490    -0.006875    Cartesian   -0.05
   1124 x         17.643040     17.634887    -0.008153    Cartesian   -0.05
   1124 y         -9.801689     -9.795649     0.006040    Cartesian   -0.06
   1124 z         -1.960338     -1.958995     0.001343    Cartesian   -0.07
   1125 x        -11.762026    -11.756886     0.005140    Cartesian   -0.04
   1125 y        -11.762026    -11.756886     0.005140    Cartesian   -0.04
   1125 z          7.841351      7.838331    -0.003020    Cartesian   -0.04
   1126 x         11.762026     11.759445    -0.002582    Cartesian   -0.02
   1126 y        -15.682702    -15.677725     0.004977    Cartesian   -0.03
   1126 z          0.000000      0.000000     0.000000    Cartesian    0.00
   1127 x         -1.960338     -1.958302     0.002036    Cartesian   -0.10
   1127 y        -17.643040    -17.631887     0.011153    Cartesian   -0.06
   1127 z          5.881013      5.877861    -0.003152    Cartesian   -0.05
   1128 x          3.920675      3.919469    -0.001206    Cartesian   -0.03
   1128 y          3.920675      3.919469    -0.001206    Cartesian   -0.03
   1128 z         19.603377     19.598417    -0.004961    Cartesian   -0.03
   1129 x          7.841351      7.839896    -0.001455    Cartesian   -0.02
   1129 y         19.603377     19.599686    -0.003692    Cartesian   -0.02
   1129 z          3.920675      3.918965    -0.001710    Cartesian   -0.04
--------------------------------------------------------------------------------


  Time to end of optimisation  =      751.5634 seconds


  Peak dynamic memory used =    1242.25 MB 


  Timing analysis for GULP :

--------------------------------------------------------------------------------
  Task / Subroutine                                          Time (Seconds)
--------------------------------------------------------------------------------
  Calculation of reciprocal space energy and derivatives          0.0003
  Calculation of reciprocal space energy using symmetry           0.0005
  Calculation of real space energy and derivatives                0.0027
  Calculation of real space energy using symmetry                 0.0056
  Calculation for region 1 energy and derivatives (2-b)         223.6954
  Calculation for region 2a energy                               73.2388
  Calculation for region 2b energy                                0.0073
  Calculation and manipulation of Hessian matrix                403.0604
  Calculation of matrix inversion                                49.8770
  Symmetry generation of equivalent positions                     0.0029
--------------------------------------------------------------------------------
  Total CPU time                                                751.5635
--------------------------------------------------------------------------------


  Dump file written as Li3OCl.grs


  Job Finished at 14:25.41 28th October    2020                               

