********************************************************************************
*                       GENERAL UTILITY LATTICE PROGRAM                        *
*                                 Julian Gale                                  *
*                       Curtin Institute for Computation                       *
*                    School of Molecular and Life Sciences                     *
*                    Curtin University, Western Australia                      *
********************************************************************************
* Version = 5.2.0 * Last modified =  10th September 2020                       *
********************************************************************************
*  optimise     - perform optimisation run                                     *
*  conp         - constant pressure calculation                                *
*  property     - calculate properties for final geometry                      *
*  defect       - perform defect calculation after bulk run                    *
*  compare      - compare initial and final structures                         *
********************************************************************************

  Job Started  at 14:25.41 28th October    2020                               

  Number of CPUs =     1


  Total number of configurations input =      1

********************************************************************************
*  Input for Configuration =   1                                               *
********************************************************************************

  Formula = ClOLi3                                                      

  Number of irreducible atoms/shells =       5


  Total number atoms/shells =       7

  Dimensionality = 3               :  Bulk   


  Symmetry :

  Crystal family                   :  Cubic       
  Crystal class  (Groth - 1921)    :  Cubic Hexakisoctahedral              

  Space group (centrosymmetric)    :  P M 3 M         

  Patterson group                  :  P m -3 m 

  Cartesian lattice vectors (Angstroms) :

        3.918873    0.000000    0.000000
        0.000000    3.918873    0.000000
        0.000000    0.000000    3.918873

  Cell parameters (Angstroms/Degrees):

  a =       3.9189    alpha =  90.0000
  b =       3.9189    beta  =  90.0000
  c =       3.9189    gamma =  90.0000

  Initial cell volume =          60.184349 Angs**3

  Temperature of configuration =   0.00     K 

  Pressure of configuration =         0.000 GPa 

  Fractional coordinates of asymmetric unit :

--------------------------------------------------------------------------------
   No.  Atomic       x           y          z         Charge      Occupancy
        Label      (Frac)      (Frac)     (Frac)        (e)         (Frac)  
--------------------------------------------------------------------------------
      1 Cl    c    0.500000    0.500000    0.500000     1.48500    1.000000    
      2 O     c    0.000000    0.000000    0.000000     0.18300    1.000000    
      3 Li    c    0.500000    0.000000    0.000000     1.00000    1.000000    
      4 Cl    s    0.500000    0.500000    0.500000    -2.48500    1.000000    
      5 O     s    0.000000    0.000000    0.000000    -2.18300    1.000000    
--------------------------------------------------------------------------------


  Constraints : 

--------------------------------------------------------------------------------
  Constraint no.      Unconstrained     Constrained    Coefficient    Offset
                         Variable         Variable
--------------------------------------------------------------------------------
           1              Strain 1        Strain 2       1.00000      0.0000
           2              Strain 1        Strain 3       1.00000      0.0000
--------------------------------------------------------------------------------


********************************************************************************
*  General input information                                                   *
********************************************************************************

  Species output for all configurations : 

--------------------------------------------------------------------------------
  Species    Type    Atomic    Atomic    Charge       Radii (Angs)     Library
                     Number     Mass       (e)     Cova   Ionic  VDW   Symbol
--------------------------------------------------------------------------------
    Li       Core        3       6.94   1.000000   0.680  0.000  1.800          
    O        Core        8      16.00   0.183000   0.730  0.000  1.360          
    O        Shell       8       0.00  -2.183000   0.730  0.000  1.360          
    Cl       Core       17      35.45   1.485000   0.990  0.000  1.650          
    Cl       Shell      17       0.00  -2.485000   0.990  0.000  1.650          
--------------------------------------------------------------------------------


  Lattice summation method               =    Ewald          (3-D)
                                         =    Parry          (2-D)
                                         =    Saunders et al (1-D)
  Accuracy factor for lattice sums       =   12.000


  Analytic derivatives to be used

  Time limit = Infinity

  Maximum range for interatomic potentials =    100000.000000 Angstroms

  General interatomic potentials :

--------------------------------------------------------------------------------
Atom  Types   Potential      Parameter       Value         Units   Cutoffs(Ang)
  1     2                                                            Min /  Max 
--------------------------------------------------------------------------------
O    c O    s Spring (c-s)  Spring k 2       593.72000    eV*Ang^-2 0.000  0.800
                            Spring k 4       0.0000000    eV*Ang^-4 
--------------------------------------------------------------------------------
Cl   c Cl   s Spring (c-s)  Spring k 2       29.380000    eV*Ang^-2 0.000  0.800
                            Spring k 4       0.0000000    eV*Ang^-4 
--------------------------------------------------------------------------------
Li   c Li   c Buckingham    Buckingham A     360.53000    eV        0.000 12.000
                            Buckingham rho  0.16100000    Ang       
                            Buckingham C     0.0000000    eV*Ang^6  
--------------------------------------------------------------------------------
Li   c O    s Buckingham    Buckingham A     292.30000    eV        0.000 12.000
                            Buckingham rho  0.34720000    Ang       
                            Buckingham C     0.0000000    eV*Ang^6  
--------------------------------------------------------------------------------
Li   c Cl   s Buckingham    Buckingham A     421.04000    eV        0.000 12.000
                            Buckingham rho  0.33400000    Ang       
                            Buckingham C     0.0000000    eV*Ang^6  
--------------------------------------------------------------------------------
O    s O    s Buckingham    Buckingham A     22764.300    eV        0.000 12.000
                            Buckingham rho  0.14900000    Ang       
                            Buckingham C     13.190000    eV*Ang^6  
--------------------------------------------------------------------------------
O    s Cl   s Buckingham    Buckingham A     8286.9100    eV        0.000 12.000
                            Buckingham rho  0.25900000    Ang       
                            Buckingham C     62.200000    eV*Ang^6  
--------------------------------------------------------------------------------
Cl   s Cl   s Buckingham    Buckingham A     1227.2000    eV        0.000 12.000
                            Buckingham rho  0.32100000    Ang       
                            Buckingham C     14.530000    eV*Ang^6  
--------------------------------------------------------------------------------

********************************************************************************
*  Output for configuration   1                                                *
********************************************************************************


  Components of energy : 

--------------------------------------------------------------------------------
  Interatomic potentials     =           7.26836263 eV    
  Monopole - monopole (real) =         -11.53475722 eV    
  Monopole - monopole (recip)=         -33.94580548 eV    
  Monopole - monopole (total)=         -45.48056271 eV    
--------------------------------------------------------------------------------
  Total lattice energy       =         -38.21220008 eV    
--------------------------------------------------------------------------------
  Total lattice energy       =           -3686.8932 kJ/(mole unit cells)
--------------------------------------------------------------------------------


  Number of variables =        1

  Maximum number of calculations  =          1000
  Maximum Hessian update interval =            10
  Maximum step size               =   1.000000000
  Maximum parameter tolerance     =   0.000010000
  Maximum function  tolerance     =   0.000010000
  Maximum gradient  tolerance     =   0.001000000
  Maximum gradient  component     =   0.010000000

  Symmetry constrained optimisation

  Symmetry used for second derivatives

  Cell parameters to be optimised using strains

  Newton-Raphson optimiser to be used

  BFGS hessian update to be used

  Lower half triangular hessian to be used

  Start of bulk optimisation :

  Cycle:      0 Energy:       -38.212200  Gnorm:      0.095699  CPU:    0.006
  ** Hessian calculated **
  Cycle:      1 Energy:       -38.212222  Gnorm:      0.000105  CPU:    0.007


  **** Optimisation achieved ****


  Final energy =     -38.21222207 eV
  Final Gnorm  =       0.00000001

  Components of energy : 

--------------------------------------------------------------------------------
  Interatomic potentials     =           7.24743137 eV    
  Monopole - monopole (real) =         -11.52945422 eV    
  Monopole - monopole (recip)=         -33.93019921 eV    
  Monopole - monopole (total)=         -45.45965344 eV    
--------------------------------------------------------------------------------
  Total lattice energy       =         -38.21222207 eV    
--------------------------------------------------------------------------------
  Total lattice energy       =           -3686.8953 kJ/(mole unit cells)
--------------------------------------------------------------------------------

  Final asymmetric unit coordinates :

--------------------------------------------------------------------------------
   No.  Atomic        x           y           z         Radius
        Label       (Frac)      (Frac)      (Frac)       (Angs) 
--------------------------------------------------------------------------------
     1  Cl    c     0.500000    0.500000    0.500000    0.000000
     2  O     c     0.000000    0.000000    0.000000    0.000000
     3  Li    c     0.500000    0.000000    0.000000    0.000000
     4  Cl    s     0.500000    0.500000    0.500000    0.000000
     5  O     s     0.000000    0.000000    0.000000    0.000000
--------------------------------------------------------------------------------

  Final Cartesian lattice vectors (Angstroms) :

        3.920675    0.000000    0.000000
        0.000000    3.920675    0.000000
        0.000000    0.000000    3.920675


  Final cell parameters and derivatives :

--------------------------------------------------------------------------------
       a            3.920675 Angstrom     dE/de1(xx)     0.000000 eV/strain
       b            3.920675 Angstrom     dE/de2(yy)     0.000000 eV/strain
       c            3.920675 Angstrom     dE/de3(zz)     0.000000 eV/strain
       alpha       90.000000 Degrees      dE/de4(yz)     0.000000 eV/strain
       beta        90.000000 Degrees      dE/de5(xz)     0.000000 eV/strain
       gamma       90.000000 Degrees      dE/de6(xy)     0.000000 eV/strain
--------------------------------------------------------------------------------

  Primitive cell volume =            60.267433 Angs**3

  Density of cell =      1.991276 g/cm**3

  Non-primitive cell volume =            60.267433 Angs**3


  Final internal derivatives :

--------------------------------------------------------------------------------
   No.  Atomic          a             b             c           Radius
        Label          (eV)          (eV)          (eV)        (eV/Angs)
--------------------------------------------------------------------------------
      1 Cl    c       0.000000      0.000000      0.000000      0.000000
      2 O     c       0.000000      0.000000      0.000000      0.000000
      3 Li    c       0.000000      0.000000      0.000000      0.000000
      4 Cl    s       0.000000      0.000000      0.000000      0.000000
      5 O     s       0.000000      0.000000      0.000000      0.000000
--------------------------------------------------------------------------------
  Maximum abs         0.000000      0.000000      0.000000      0.000000
--------------------------------------------------------------------------------

  Comparison of initial and final structures : 

--------------------------------------------------------------------------------
  Parameter   Initial value   Final value   Difference    Units      Percent
--------------------------------------------------------------------------------
    Volume        60.184349     60.267433     0.083084    Angs**3      0.14
    a              3.918873      3.920675     0.001802    Angstroms    0.05
    b              3.918873      3.920675     0.001802    Angstroms    0.05
    c              3.918873      3.920675     0.001802    Angstroms    0.05
    alpha         90.000000     90.000000     0.000000    Degrees      0.00
    beta          90.000000     90.000000     0.000000    Degrees      0.00
    gamma         90.000000     90.000000     0.000000    Degrees      0.00
      1 x          0.500000      0.500000     0.000000    Fractional   0.00
      1 y          0.500000      0.500000     0.000000    Fractional   0.00
      1 z          0.500000      0.500000     0.000000    Fractional   0.00
      2 x          0.000000      0.000000     0.000000    Fractional   0.00
      2 y          0.000000      0.000000     0.000000    Fractional   0.00
      2 z          0.000000      0.000000     0.000000    Fractional   0.00
      3 x          0.500000      0.500000     0.000000    Fractional   0.00
      3 y          0.000000      0.000000     0.000000    Fractional   0.00
      3 z          0.000000      0.000000     0.000000    Fractional   0.00
      4 x          0.500000      0.500000     0.000000    Fractional   0.00
      4 y          0.500000      0.500000     0.000000    Fractional   0.00
      4 z          0.500000      0.500000     0.000000    Fractional   0.00
      5 x          0.000000      0.000000     0.000000    Fractional   0.00
      5 y          0.000000      0.000000     0.000000    Fractional   0.00
      5 z          0.000000      0.000000     0.000000    Fractional   0.00
--------------------------------------------------------------------------------


  Born effective charge tensors : 

-------------------------------------------------------------------------------
  Atom             x           y             z
-------------------------------------------------------------------------------
    1 Cl    x      -0.9489      0.0000     -0.0000
            y       0.0000     -0.9489     -0.0000
            z      -0.0000     -0.0000     -0.9489
-------------------------------------------------------------------------------
    2 O     x      -2.4688      0.0000     -0.0000
            y       0.0000     -2.4688     -0.0000
            z      -0.0000     -0.0000     -2.4688
-------------------------------------------------------------------------------
    3 Li    x       0.7919     -0.0000      0.0000
            y      -0.0000      1.3129      0.0000
            z      -0.0000      0.0000      1.3129
-------------------------------------------------------------------------------




  Elastic Constant Matrix: (Units=GPa)

-------------------------------------------------------------------------------
  Indices      1         2         3         4         5         6    
-------------------------------------------------------------------------------
       1     94.3368   44.9178   44.9178   -0.0000   -0.0000    0.0000
       2     44.9178   94.3368   44.9178    0.0000   -0.0000    0.0000
       3     44.9178   44.9178   94.3368    0.0000    0.0000   -0.0000
       4     -0.0000    0.0000    0.0000   44.9178   -0.0000    0.0000
       5     -0.0000   -0.0000    0.0000   -0.0000   44.9178    0.0000
       6      0.0000    0.0000   -0.0000    0.0000    0.0000   44.9178
-------------------------------------------------------------------------------


  Elastic Compliance Matrix: (Units=1/GPa)

-------------------------------------------------------------------------------
  Indices      1         2         3         4         5         6    
-------------------------------------------------------------------------------
       1    0.015300 -0.004935 -0.004935  0.000000  0.000000 -0.000000
       2   -0.004935  0.015300 -0.004935  0.000000 -0.000000 -0.000000
       3   -0.004935 -0.004935  0.015300 -0.000000 -0.000000  0.000000
       4    0.000000  0.000000 -0.000000  0.022263  0.000000 -0.000000
       5    0.000000 -0.000000 -0.000000  0.000000  0.022263 -0.000000
       6   -0.000000 -0.000000  0.000000 -0.000000 -0.000000  0.022263
-------------------------------------------------------------------------------

  Mechanical properties :

-------------------------------------------------------------------------------
  Convention :                    Reuss         Voigt         Hill
-------------------------------------------------------------------------------
  Bulk  Modulus (GPa)     =      61.39080      61.39080      61.39080
  Shear Modulus (GPa)     =      33.84570      36.83448      35.34009
-------------------------------------------------------------------------------
  Velocity S-wave (km/s)  =       4.12274       4.30092       4.21277
  Velocity P-wave (km/s)  =       7.31386       7.44942       7.38195
-------------------------------------------------------------------------------
  Compressibility (1/GPa) =    0.01628909
-------------------------------------------------------------------------------
  Stress axis :                     x             y             z
-------------------------------------------------------------------------------
  Youngs Moduli (GPa)     =      65.35947      65.35947      65.35947
-------------------------------------------------------------------------------
  Poissons Ratio (x)      =                     0.32256       0.32256
  Poissons Ratio (y)      =       0.32256                     0.32256
  Poissons Ratio (z)      =       0.32256       0.32256
-------------------------------------------------------------------------------


  Piezoelectric Strain Matrix: (Units=C/m**2)

-------------------------------------------------------------------------------
  Indices      1         2         3         4         5         6    
-------------------------------------------------------------------------------
       x     0.00000  -0.00000  -0.00000   0.00000   0.00000  -0.00000
       y    -0.00000   0.00000   0.00000  -0.00000   0.00000  -0.00000
       z    -0.00000   0.00000   0.00000   0.00000  -0.00000   0.00000
-------------------------------------------------------------------------------


  Piezoelectric Stress Matrix: (Units=10**-11 C/N)

-------------------------------------------------------------------------------
  Indices      1         2         3         4         5         6    
-------------------------------------------------------------------------------
       x     0.00000  -0.00000  -0.00000   0.00000   0.00000  -0.00000
       y    -0.00000   0.00000   0.00000  -0.00000   0.00000  -0.00000
       z    -0.00000  -0.00000   0.00000   0.00000  -0.00000   0.00000
-------------------------------------------------------------------------------


  Static dielectric constant tensor : 

-------------------------------------------------------------------------------
              x         y         z
-------------------------------------------------------------------------------
       x    12.11703  -0.00000   0.00000
       y    -0.00000  12.11703   0.00000
       z     0.00000   0.00000  12.11703
--------------------------------------------------------------------------------

  High frequency dielectric constant tensor : 

-------------------------------------------------------------------------------
              x         y         z
-------------------------------------------------------------------------------
       x     1.74104  -0.00000   0.00000
       y    -0.00000   1.74104   0.00000
       z     0.00000   0.00000   1.74104
-------------------------------------------------------------------------------

  Static refractive indices : 

-------------------------------------------------------------------------------
    1 =    3.48095      2 =    3.48095      3 =    3.48095
-------------------------------------------------------------------------------

  High frequency refractive indices : 

-------------------------------------------------------------------------------
    1 =    1.31948      2 =    1.31948      3 =    1.31948
-------------------------------------------------------------------------------


  Time to end of optimisation =       0.0101 seconds

********************************************************************************
*  Defect calculation for configuration   1 :                                  *
********************************************************************************

  Total number of defects =      3

  Total charge on defect  =   2.00

  Defect centre is at   1.3716   1.3716   0.0000  Angs

  Region 1 radius =  20.0000      Number of ions =   3906

  Number of symmetry inequivalent region 1 ions  =   1131

  Region 2 radius =  24.0000      Number of ions =   2774

  Number of symmetry inequivalent region 2a ions =    764

  Region 2a mode = 4 : screened electrostatics due to region 1 
                       neglect correction to region 1 forces from 2a
                       region 2a displacements based on defects only

  Region 2a ions will only interact with defects in region 1

  Vacancies:

--------------------------------------------------------------------------------
    Specification type     Symbol/Number         x          y          z
--------------------------------------------------------------------------------
    Cartesian                                0.000000   0.000000   0.000000
    Cartesian                                3.918873   3.918873   0.000000
--------------------------------------------------------------------------------

  Interstitials:

--------------------------------------------------------------------------------
    Specification type     Symbol/Number         x          y          z
--------------------------------------------------------------------------------
    Atom/Cartesian          O                1.371606   1.371606   0.000000
--------------------------------------------------------------------------------


  Symmetry reduced region 1 (Relative to defect centre) :

--------------------------------------------------------------------------------
   No.   Atomic       x            y             z       Radius  Multiplicity   
         Label      (Angs)       (Angs)        (Angs)    (Angs)     
--------------------------------------------------------------------------------
     1  O     c      0.0000       0.0000       0.0000    0.0000     1    Defect
     2  Li    c      0.5887 *    -1.3716 *     0.0000    0.0000     2          
     3  Cl    c      0.5887 *     0.5887      -1.9603 *  0.0000     2          
     4  Li    c      0.5887 *     2.5491 *     0.0000    0.0000     2          
     5  Li    c     -1.3716 *    -1.3716      -1.9603 *  0.0000     2          
     6  O     c     -1.3716 *     2.5491 *     0.0000    0.0000     2          
     7  Li    c     -1.3716 *     2.5491 *    -1.9603 *  0.0000     4          
     8  Li    c     -3.3319 *    -1.3716 *     0.0000    0.0000     2          
     9  Cl    c      0.5887 *    -3.3319 *    -1.9603 *  0.0000     4          
    10  Li    c      2.5491 *     2.5491      -1.9603 *  0.0000     2          
    11  Li    c      0.5887 *    -1.3716 *     3.9207 *  0.0000     4          
    12  Li    c     -3.3319 *     2.5491 *     0.0000    0.0000     2          
    13  O     c     -1.3716 *    -1.3716       3.9207 *  0.0000     2          
    14  Li    c      0.5887 *     2.5491 *     3.9207 *  0.0000     4          
    15  Li    c      4.5094 *    -1.3716 *     0.0000    0.0000     2          
    16  O     c     -1.3716 *     2.5491 *     3.9207 *  0.0000     4          
    17  Cl    c      0.5887 *     4.5094 *    -1.9603 *  0.0000     4          
    18  Cl    c     -3.3319 *    -3.3319      -1.9603 *  0.0000     2          
    19  Li    c      4.5094 *     2.5491 *     0.0000    0.0000     2          
    20  Li    c      0.5887 *    -5.2923 *     0.0000    0.0000     2          
    21  Li    c     -3.3319 *    -1.3716 *     3.9207 *  0.0000     4          
    22  O     c      2.5491 *     2.5491       3.9207 *  0.0000     2          
    23  O     c     -1.3716 *    -5.2923 *     0.0000    0.0000     2          
    24  Li    c     -3.3319 *     2.5491 *     3.9207 *  0.0000     4          
    25  Li    c     -1.3716 *    -5.2923 *    -1.9603 *  0.0000     4          
    26  O     c      2.5491 *    -5.2923 *     0.0000    0.0000     2          
    27  Cl    c      0.5887 *     0.5887       5.8810 *  0.0000     2          
    28  Cl    c      4.5094 *    -3.3319 *    -1.9603 *  0.0000     4          
    29  Li    c      4.5094 *    -1.3716 *     3.9207 *  0.0000     4          
    30  Li    c      2.5491 *    -5.2923 *    -1.9603 *  0.0000     4          
    31  Li    c     -1.3716 *    -1.3716       5.8810 *  0.0000     2          
    32  Li    c     -3.3319 *    -5.2923 *     0.0000    0.0000     2          
    33  Li    c      0.5887 *     6.4697 *     0.0000    0.0000     2          
    34  Li    c      4.5094 *     2.5491 *     3.9207 *  0.0000     4          
    35  Li    c     -1.3716 *     2.5491 *     5.8810 *  0.0000     4          
    36  Li    c      0.5887 *    -5.2923 *     3.9207 *  0.0000     4          
    37  O     c     -1.3716 *     6.4697 *     0.0000    0.0000     2          
    38  Cl    c      4.5094 *     4.5094      -1.9603 *  0.0000     2          
    39  O     c     -1.3716 *    -5.2923 *     3.9207 *  0.0000     4          
    40  Cl    c      0.5887 *    -3.3319 *     5.8810 *  0.0000     4          
    41  Li    c     -1.3716 *     6.4697 *    -1.9603 *  0.0000     4          
    42  Li    c      2.5491 *     2.5491       5.8810 *  0.0000     2          
    43  Li    c      4.5094 *    -5.2923 *     0.0000    0.0000     2          
    44  O     c      2.5491 *     6.4697 *     0.0000    0.0000     2          
    45  O     c      2.5491 *    -5.2923 *     3.9207 *  0.0000     4          
    46  Li    c      2.5491 *     6.4697 *    -1.9603 *  0.0000     4          
    47  Li    c     -3.3319 *     6.4697 *     0.0000    0.0000     2          
    48  Li    c     -3.3319 *    -5.2923 *     3.9207 *  0.0000     4          
    49  Li    c     -7.2526 *    -1.3716 *     0.0000    0.0000     2          
    50  Cl    c      0.5887 *     4.5094 *     5.8810 *  0.0000     4          
    51  O     c     -5.2923 *    -5.2923       0.0000    0.0000     1          
    52  Cl    c      0.5887 *    -7.2526 *    -1.9603 *  0.0000     4          
    53  Cl    c     -3.3319 *    -3.3319       5.8810 *  0.0000     2          
    54  Li    c      0.5887 *     6.4697 *     3.9207 *  0.0000     4          
    55  Li    c     -7.2526 *     2.5491 *     0.0000    0.0000     2          
    56  O     c     -1.3716 *     6.4697 *     3.9207 *  0.0000     4          
    57  Li    c     -5.2923 *    -5.2923      -1.9603 *  0.0000     2          
    58  Li    c      4.5094 *     6.4697 *     0.0000    0.0000     2          
    59  Li    c      4.5094 *    -5.2923 *     3.9207 *  0.0000     4          
    60  Li    c      0.5887 *    -1.3716 *     7.8414 *  0.0000     4          
    61  O     c      2.5491 *     6.4697 *     3.9207 *  0.0000     4          
    62  Li    c     -1.3716 *    -5.2923 *     5.8810 *  0.0000     4          
    63  O     c     -1.3716 *    -1.3716       7.8414 *  0.0000     2          
    64  Cl    c      4.5094 *    -3.3319 *     5.8810 *  0.0000     4          
    65  Cl    c     -3.3319 *    -7.2526 *    -1.9603 *  0.0000     4          
    66  Li    c      0.5887 *     2.5491 *     7.8414 *  0.0000     4          
    67  Li    c     -3.3319 *     6.4697 *     3.9207 *  0.0000     4          
    68  Li    c      2.5491 *    -5.2923 *     5.8810 *  0.0000     4          
    69  Li    c     -7.2526 *    -1.3716 *     3.9207 *  0.0000     4          
    70  O     c      6.4697 *    -5.2923 *     0.0000    0.0000     2          
    71  O     c     -1.3716 *     2.5491 *     7.8414 *  0.0000     4          
    72  O     c     -5.2923 *    -5.2923       3.9207 *  0.0000     2          
    73  Li    c      8.4301 *    -1.3716 *     0.0000    0.0000     2          
    74  Li    c      6.4697 *    -5.2923 *    -1.9603 *  0.0000     4          
    75  Li    c     -7.2526 *     2.5491 *     3.9207 *  0.0000     4          
    76  Li    c     -3.3319 *    -1.3716 *     7.8414 *  0.0000     4          
    77  O     c      2.5491 *     2.5491       7.8414 *  0.0000     2          
    78  Cl    c      0.5887 *     8.4301 *    -1.9603 *  0.0000     4          
    79  Cl    c      4.5094 *     4.5094       5.8810 *  0.0000     2          
    80  Cl    c      4.5094 *    -7.2526 *    -1.9603 *  0.0000     4          
    81  Li    c      4.5094 *     6.4697 *     3.9207 *  0.0000     4          
    82  Li    c      8.4301 *     2.5491 *     0.0000    0.0000     2          
    83  Li    c     -1.3716 *     6.4697 *     5.8810 *  0.0000     4          
    84  Li    c     -3.3319 *     2.5491 *     7.8414 *  0.0000     4          
    85  Li    c     -7.2526 *    -5.2923 *     0.0000    0.0000     2          
    86  Li    c      2.5491 *     6.4697 *     5.8810 *  0.0000     4          
    87  Li    c      4.5094 *    -1.3716 *     7.8414 *  0.0000     4          
    88  O     c      6.4697 *     6.4697       0.0000    0.0000     1          
    89  Li    c      0.5887 *    -9.2130 *     0.0000    0.0000     2          
    90  O     c      6.4697 *    -5.2923 *     3.9207 *  0.0000     4          
    91  Cl    c      8.4301 *    -3.3319 *    -1.9603 *  0.0000     4          
    92  O     c     -1.3716 *    -9.2130 *     0.0000    0.0000     2          
    93  Cl    c      0.5887 *    -7.2526 *     5.8810 *  0.0000     4          
    94  Li    c      6.4697 *     6.4697      -1.9603 *  0.0000     2          
    95  Li    c      4.5094 *     2.5491 *     7.8414 *  0.0000     4          
    96  Li    c      8.4301 *    -1.3716 *     3.9207 *  0.0000     4          
    97  Li    c      0.5887 *    -5.2923 *     7.8414 *  0.0000     4          
    98  Li    c     -1.3716 *    -9.2130 *    -1.9603 *  0.0000     4          
    99  Li    c     -5.2923 *    -5.2923       5.8810 *  0.0000     2          
   100  O     c      2.5491 *    -9.2130 *     0.0000    0.0000     2          
   101  O     c     -1.3716 *    -5.2923 *     7.8414 *  0.0000     4          
   102  Li    c      8.4301 *     2.5491 *     3.9207 *  0.0000     4          
   103  Li    c     -7.2526 *     6.4697 *     0.0000    0.0000     2          
   104  Li    c      2.5491 *    -9.2130 *    -1.9603 *  0.0000     4          
   105  Cl    c      4.5094 *     8.4301 *    -1.9603 *  0.0000     4          
   106  Li    c     -3.3319 *    -9.2130 *     0.0000    0.0000     2          
   107  Li    c     -7.2526 *    -5.2923 *     3.9207 *  0.0000     4          
   108  O     c      2.5491 *    -5.2923 *     7.8414 *  0.0000     4          
   109  Cl    c      0.5887 *     0.5887       9.8017 *  0.0000     2          
   110  Cl    c     -3.3319 *    -7.2526 *     5.8810 *  0.0000     4          
   111  Li    c      8.4301 *    -5.2923 *     0.0000    0.0000     2          
   112  O     c      6.4697 *     6.4697       3.9207 *  0.0000     2          
   113  Li    c     -1.3716 *    -1.3716       9.8017 *  0.0000     2          
   114  Li    c      0.5887 *    -9.2130 *     3.9207 *  0.0000     4          
   115  Li    c     -3.3319 *    -5.2923 *     7.8414 *  0.0000     4          
   116  O     c     -1.3716 *    -9.2130 *     3.9207 *  0.0000     4          
   117  Li    c      0.5887 *     6.4697 *     7.8414 *  0.0000     4          
   118  Li    c     -1.3716 *     2.5491 *     9.8017 *  0.0000     4          
   119  Li    c      6.4697 *    -5.2923 *     5.8810 *  0.0000     4          
   120  Li    c      4.5094 *    -9.2130 *     0.0000    0.0000     2          
   121  O     c     -1.3716 *     6.4697 *     7.8414 *  0.0000     4          
   122  Cl    c      0.5887 *     8.4301 *     5.8810 *  0.0000     4          
   123  O     c      2.5491 *    -9.2130 *     3.9207 *  0.0000     4          
   124  Cl    c      0.5887 *    -3.3319 *     9.8017 *  0.0000     4          
   125  Cl    c      4.5094 *    -7.2526 *     5.8810 *  0.0000     4          
   126  Li    c      0.5887 *    10.3904 *     0.0000    0.0000     2          
   127  Cl    c     -7.2526 *    -7.2526      -1.9603 *  0.0000     2          
   128  Li    c      2.5491 *     2.5491       9.8017 *  0.0000     2          
   129  Li    c     -7.2526 *     6.4697 *     3.9207 *  0.0000     4          
   130  Li    c      4.5094 *    -5.2923 *     7.8414 *  0.0000     4          
   131  O     c      2.5491 *     6.4697 *     7.8414 *  0.0000     4          
   132  O     c     -1.3716 *    10.3904 *     0.0000    0.0000     2          
   133  Li    c     -3.3319 *    -9.2130 *     3.9207 *  0.0000     4          
   134  O     c     -5.2923 *    -9.2130 *     0.0000    0.0000     2          
   135  Li    c      8.4301 *     6.4697 *     0.0000    0.0000     2          
   136  Li    c     -1.3716 *    10.3904 *    -1.9603 *  0.0000     4          
   137  Li    c     -3.3319 *     6.4697 *     7.8414 *  0.0000     4          
   138  Li    c      8.4301 *    -5.2923 *     3.9207 *  0.0000     4          
   139  O     c      2.5491 *    10.3904 *     0.0000    0.0000     2          
   140  Li    c     -7.2526 *    -1.3716 *     7.8414 *  0.0000     4          
   141  Li    c     -5.2923 *    -9.2130 *    -1.9603 *  0.0000     4          
   142  Cl    c      0.5887 *     4.5094 *     9.8017 *  0.0000     4          
   143  Cl    c      8.4301 *    -3.3319 *     5.8810 *  0.0000     4          
   144  O     c     -5.2923 *    -5.2923       7.8414 *  0.0000     2          
   145  Cl    c     -3.3319 *    -3.3319       9.8017 *  0.0000     2          
   146  Li    c      2.5491 *    10.3904 *    -1.9603 *  0.0000     4          
   147  Li    c      6.4697 *     6.4697       5.8810 *  0.0000     2          
   148  Li    c     -3.3319 *    10.3904 *     0.0000    0.0000     2          
   149  Li    c      4.5094 *    -9.2130 *     3.9207 *  0.0000     4          
   150  Li    c     -7.2526 *     2.5491 *     7.8414 *  0.0000     4          
   151  Li    c     -1.3716 *    -9.2130 *     5.8810 *  0.0000     4          
   152  Li    c      0.5887 *    10.3904 *     3.9207 *  0.0000     4          
   153  Li    c      4.5094 *     6.4697 *     7.8414 *  0.0000     4          
   154  O     c     -1.3716 *    10.3904 *     3.9207 *  0.0000     4          
   155  Li    c     -1.3716 *    -5.2923 *     9.8017 *  0.0000     4          
   156  Li    c      2.5491 *    -9.2130 *     5.8810 *  0.0000     4          
   157  Cl    c      4.5094 *     8.4301 *     5.8810 *  0.0000     4          
   158  Li    c    -11.1733 *    -1.3716 *     0.0000    0.0000     2          
   159  O     c      6.4697 *    -9.2130 *     0.0000    0.0000     2          
   160  Cl    c      4.5094 *    -3.3319 *     9.8017 *  0.0000     4          
   161  Cl    c      8.4301 *    -7.2526 *    -1.9603 *  0.0000     4          
   162  O     c     -5.2923 *    -9.2130 *     3.9207 *  0.0000     4          
   163  Li    c      4.5094 *    10.3904 *     0.0000    0.0000     2          
   164  Li    c      8.4301 *     6.4697 *     3.9207 *  0.0000     4          
   165  Cl    c      0.5887 *   -11.1733 *    -1.9603 *  0.0000     4          
   166  O     c      2.5491 *    10.3904 *     3.9207 *  0.0000     4          
   167  Li    c      2.5491 *    -5.2923 *     9.8017 *  0.0000     4          
   168  Li    c      6.4697 *    -9.2130 *    -1.9603 *  0.0000     4          
   169  Li    c    -11.1733 *     2.5491 *     0.0000    0.0000     2          
   170  O     c      6.4697 *    -5.2923 *     7.8414 *  0.0000     4          
   171  Li    c     -3.3319 *    10.3904 *     3.9207 *  0.0000     4          
   172  Li    c      8.4301 *    -1.3716 *     7.8414 *  0.0000     4          
   173  O     c     10.3904 *    -5.2923 *     0.0000    0.0000     2          
   174  Cl    c      4.5094 *     4.5094       9.8017 *  0.0000     2          
   175  Li    c     -7.2526 *    -9.2130 *     0.0000    0.0000     2          
   176  Li    c      8.4301 *     2.5491 *     7.8414 *  0.0000     4          
   177  Cl    c     -7.2526 *    -7.2526       5.8810 *  0.0000     2          
   178  Cl    c     -3.3319 *   -11.1733 *    -1.9603 *  0.0000     4          
   179  Li    c     -1.3716 *     6.4697 *     9.8017 *  0.0000     4          
   180  Li    c     10.3904 *    -5.2923 *    -1.9603 *  0.0000     4          
   181  Li    c      0.5887 *    -1.3716 *    11.7620 *  0.0000     4          
   182  Li    c     -7.2526 *    -5.2923 *     7.8414 *  0.0000     4          
   183  Li    c    -11.1733 *    -1.3716 *     3.9207 *  0.0000     4          
   184  O     c      6.4697 *    -9.2130 *     3.9207 *  0.0000     4          
   185  O     c     -1.3716 *    -1.3716      11.7620 *  0.0000     2          
   186  Li    c      4.5094 *    10.3904 *     3.9207 *  0.0000     4          
   187  Li    c      2.5491 *     6.4697 *     9.8017 *  0.0000     4          
   188  Li    c     -1.3716 *    10.3904 *     5.8810 *  0.0000     4          
   189  Li    c      0.5887 *     2.5491 *    11.7620 *  0.0000     4          
   190  O     c      6.4697 *     6.4697       7.8414 *  0.0000     2          
   191  Cl    c      8.4301 *     8.4301      -1.9603 *  0.0000     2          
   192  Li    c      0.5887 *    -9.2130 *     7.8414 *  0.0000     4          
   193  Li    c    -11.1733 *     2.5491 *     3.9207 *  0.0000     4          
   194  O     c     -1.3716 *     2.5491 *    11.7620 *  0.0000     4          
   195  Li    c     -5.2923 *    -9.2130 *     5.8810 *  0.0000     4          
   196  O     c     -1.3716 *    -9.2130 *     7.8414 *  0.0000     4          
   197  Cl    c      0.5887 *    -7.2526 *     9.8017 *  0.0000     4          
   198  Cl    c      4.5094 *   -11.1733 *    -1.9603 *  0.0000     4          
   199  Li    c      2.5491 *    10.3904 *     5.8810 *  0.0000     4          
   200  O     c      6.4697 *    10.3904 *     0.0000    0.0000     2          
   201  Li    c     -3.3319 *    -1.3716 *    11.7620 *  0.0000     4          
   202  O     c      2.5491 *     2.5491      11.7620 *  0.0000     2          
   203  O     c     10.3904 *    -5.2923 *     3.9207 *  0.0000     4          
   204  Li    c     -5.2923 *    -5.2923       9.8017 *  0.0000     2          
   205  Li    c     -7.2526 *    -9.2130 *     3.9207 *  0.0000     4          
   206  Li    c    -11.1733 *    -5.2923 *     0.0000    0.0000     2          
   207  O     c      2.5491 *    -9.2130 *     7.8414 *  0.0000     4          
   208  Li    c      6.4697 *    10.3904 *    -1.9603 *  0.0000     4          
   209  Li    c     12.3508 *    -1.3716 *     0.0000    0.0000     2          
   210  Li    c     -3.3319 *     2.5491 *    11.7620 *  0.0000     4          
   211  Li    c     -7.2526 *     6.4697 *     7.8414 *  0.0000     4          
   212  Li    c      8.4301 *    -9.2130 *     0.0000    0.0000     2          
   213  Cl    c      0.5887 *    12.3508 *    -1.9603 *  0.0000     4          
   214  Li    c     -3.3319 *    -9.2130 *     7.8414 *  0.0000     4          
   215  Cl    c      8.4301 *    -7.2526 *     5.8810 *  0.0000     4          
   216  Li    c     12.3508 *     2.5491 *     0.0000    0.0000     2          
   217  Cl    c     -3.3319 *    -7.2526 *     9.8017 *  0.0000     4          
   218  Cl    c      0.5887 *   -11.1733 *     5.8810 *  0.0000     4          
   219  Li    c      4.5094 *    -1.3716 *    11.7620 *  0.0000     4          
   220  Li    c      8.4301 *    -5.2923 *     7.8414 *  0.0000     4          
   221  Li    c     -7.2526 *    10.3904 *     0.0000    0.0000     2          
   222  Li    c      6.4697 *    -9.2130 *     5.8810 *  0.0000     4          
   223  Li    c      4.5094 *     2.5491 *    11.7620 *  0.0000     4          
   224  O     c      6.4697 *    10.3904 *     3.9207 *  0.0000     4          
   225  Li    c      6.4697 *    -5.2923 *     9.8017 *  0.0000     4          
   226  Li    c      4.5094 *    -9.2130 *     7.8414 *  0.0000     4          
   227  Li    c      0.5887 *    -5.2923 *    11.7620 *  0.0000     4          
   228  Li    c    -11.1733 *     6.4697 *     0.0000    0.0000     2          
   229  Cl    c      0.5887 *     8.4301 *     9.8017 *  0.0000     4          
   230  Cl    c     12.3508 *    -3.3319 *    -1.9603 *  0.0000     4          
   231  Li    c    -11.1733 *    -5.2923 *     3.9207 *  0.0000     4          
   232  O     c     -1.3716 *    -5.2923 *    11.7620 *  0.0000     4          
   233  Cl    c      4.5094 *    -7.2526 *     9.8017 *  0.0000     4          
   234  O     c     -9.2130 *    -9.2130       0.0000    0.0000     1          
   235  Li    c      0.5887 *    10.3904 *     7.8414 *  0.0000     4          
   236  Li    c     12.3508 *    -1.3716 *     3.9207 *  0.0000     4          
   237  Cl    c     -3.3319 *   -11.1733 *     5.8810 *  0.0000     4          
   238  Li    c     10.3904 *    -5.2923 *     5.8810 *  0.0000     4          
   239  Li    c      8.4301 *    -9.2130 *     3.9207 *  0.0000     4          
   240  O     c     -1.3716 *    10.3904 *     7.8414 *  0.0000     4          
   241  Li    c      0.5887 *   -13.1336 *     0.0000    0.0000     2          
   242  O     c      2.5491 *    -5.2923 *    11.7620 *  0.0000     4          
   243  Li    c     -9.2130 *    -9.2130      -1.9603 *  0.0000     2          
   244  O     c     -1.3716 *   -13.1336 *     0.0000    0.0000     2          
   245  O     c     -5.2923 *    -9.2130 *     7.8414 *  0.0000     4          
   246  Li    c      8.4301 *     6.4697 *     7.8414 *  0.0000     4          
   247  Li    c     12.3508 *     2.5491 *     3.9207 *  0.0000     4          
   248  Li    c     -7.2526 *    10.3904 *     3.9207 *  0.0000     4          
   249  O     c      2.5491 *    10.3904 *     7.8414 *  0.0000     4          
   250  Cl    c      4.5094 *    12.3508 *    -1.9603 *  0.0000     4          
   251  Cl    c      8.4301 *     8.4301       5.8810 *  0.0000     2          
   252  Li    c     -3.3319 *    -5.2923 *    11.7620 *  0.0000     4          
   253  Li    c     -1.3716 *   -13.1336 *    -1.9603 *  0.0000     4          
   254  Cl    c      8.4301 *    -3.3319 *     9.8017 *  0.0000     4          
   255  O     c      2.5491 *   -13.1336 *     0.0000    0.0000     2          
   256  Li    c      8.4301 *    10.3904 *     0.0000    0.0000     2          
   257  Cl    c      4.5094 *   -11.1733 *     5.8810 *  0.0000     4          
   258  Li    c      6.4697 *     6.4697       9.8017 *  0.0000     2          
   259  Li    c      0.5887 *     6.4697 *    11.7620 *  0.0000     4          
   260  Li    c     -3.3319 *    10.3904 *     7.8414 *  0.0000     4          
   261  Li    c     12.3508 *    -5.2923 *     0.0000    0.0000     2          
   262  Cl    c     -7.2526 *   -11.1733 *    -1.9603 *  0.0000     4          
   263  Li    c    -11.1733 *     6.4697 *     3.9207 *  0.0000     4          
   264  O     c     -1.3716 *     6.4697 *    11.7620 *  0.0000     4          
   265  Li    c     -1.3716 *    -9.2130 *     9.8017 *  0.0000     4          
   266  Li    c      2.5491 *   -13.1336 *    -1.9603 *  0.0000     4          
   267  Li    c     -3.3319 *   -13.1336 *     0.0000    0.0000     2          
   268  Li    c      6.4697 *    10.3904 *     5.8810 *  0.0000     4          
   269  O     c     -9.2130 *    -9.2130       3.9207 *  0.0000     2          
   270  Li    c      4.5094 *    -5.2923 *    11.7620 *  0.0000     4          
   271  O     c      2.5491 *     6.4697 *    11.7620 *  0.0000     4          
   272  Li    c      2.5491 *    -9.2130 *     9.8017 *  0.0000     4          
   273  Cl    c      4.5094 *     8.4301 *     9.8017 *  0.0000     4          
   274  Cl    c      0.5887 *    12.3508 *     5.8810 *  0.0000     4          
   275  Li    c      0.5887 *   -13.1336 *     3.9207 *  0.0000     4          
   276  Li    c    -11.1733 *    -1.3716 *     7.8414 *  0.0000     4          
   277  O     c      6.4697 *    -9.2130 *     7.8414 *  0.0000     4          
   278  Cl    c      0.5887 *     0.5887      13.7224 *  0.0000     2          
   279  O     c     -1.3716 *   -13.1336 *     3.9207 *  0.0000     4          
   280  Li    c      4.5094 *    10.3904 *     7.8414 *  0.0000     4          
   281  Li    c     -3.3319 *     6.4697 *    11.7620 *  0.0000     4          
   282  Li    c     -1.3716 *    -1.3716      13.7224 *  0.0000     2          
   283  Li    c     -7.2526 *    -1.3716 *    11.7620 *  0.0000     4          
   284  Li    c      4.5094 *   -13.1336 *     0.0000    0.0000     2          
   285  Li    c    -11.1733 *     2.5491 *     7.8414 *  0.0000     4          
   286  O     c     10.3904 *    -9.2130 *     0.0000    0.0000     2          
   287  O     c      2.5491 *   -13.1336 *     3.9207 *  0.0000     4          
   288  O     c     -5.2923 *    -5.2923      11.7620 *  0.0000     2          
   289  Li    c      8.4301 *    10.3904 *     3.9207 *  0.0000     4          
   290  Li    c     12.3508 *     6.4697 *     0.0000    0.0000     2          
   291  Li    c     12.3508 *    -5.2923 *     3.9207 *  0.0000     4          
   292  Li    c     -1.3716 *     2.5491 *    13.7224 *  0.0000     4          
   293  Li    c     10.3904 *    -9.2130 *    -1.9603 *  0.0000     4          
   294  Li    c     -7.2526 *     2.5491 *    11.7620 *  0.0000     4          
   295  O     c     10.3904 *    -5.2923 *     7.8414 *  0.0000     4          
   296  Cl    c     12.3508 *    -3.3319 *     5.8810 *  0.0000     4          
   297  Li    c     -3.3319 *   -13.1336 *     3.9207 *  0.0000     4          
   298  Li    c     -7.2526 *    -9.2130 *     7.8414 *  0.0000     4          
   299  Cl    c      0.5887 *    -3.3319 *    13.7224 *  0.0000     4          
   300  Cl    c      8.4301 *   -11.1733 *    -1.9603 *  0.0000     4          
   301  O     c     -5.2923 *   -13.1336 *     0.0000    0.0000     2          
   302  Li    c      4.5094 *     6.4697 *    11.7620 *  0.0000     4          
   303  Cl    c     -7.2526 *    -7.2526       9.8017 *  0.0000     2          
   304  Li    c      2.5491 *     2.5491      13.7224 *  0.0000     2          
   305  Li    c     -9.2130 *    -9.2130       5.8810 *  0.0000     2          
   306  Li    c     -5.2923 *   -13.1336 *    -1.9603 *  0.0000     4          
   307  Li    c      0.5887 *    14.3111 *     0.0000    0.0000     2          
   308  Li    c     -1.3716 *    10.3904 *     9.8017 *  0.0000     4          
   309  O     c     -1.3716 *    14.3111 *     0.0000    0.0000     2          
   310  Cl    c      4.5094 *    12.3508 *     5.8810 *  0.0000     4          
   311  Li    c      4.5094 *   -13.1336 *     3.9207 *  0.0000     4          
   312  O     c      6.4697 *    -5.2923 *    11.7620 *  0.0000     4          
   313  O     c     10.3904 *    -9.2130 *     3.9207 *  0.0000     4          
   314  Li    c     -5.2923 *    -9.2130 *     9.8017 *  0.0000     4          
   315  Li    c     -1.3716 *   -13.1336 *     5.8810 *  0.0000     4          
   316  Cl    c      0.5887 *     4.5094 *    13.7224 *  0.0000     4          
   317  Cl    c     12.3508 *    -7.2526 *    -1.9603 *  0.0000     4          
   318  Li    c    -11.1733 *    -9.2130 *     0.0000    0.0000     2          
   319  Li    c     12.3508 *     6.4697 *     3.9207 *  0.0000     4          
   320  Cl    c     -3.3319 *    -3.3319      13.7224 *  0.0000     2          
   321  Li    c     -1.3716 *    14.3111 *    -1.9603 *  0.0000     4          
   322  Li    c      2.5491 *    10.3904 *     9.8017 *  0.0000     4          
   323  Li    c      8.4301 *    -1.3716 *    11.7620 *  0.0000     4          
   324  O     c      2.5491 *    14.3111 *     0.0000    0.0000     2          
   325  O     c      6.4697 *    10.3904 *     7.8414 *  0.0000     4          
   326  Cl    c     -7.2526 *   -11.1733 *     5.8810 *  0.0000     4          
   327  Li    c      2.5491 *   -13.1336 *     5.8810 *  0.0000     4          
   328  Li    c    -11.1733 *    -5.2923 *     7.8414 *  0.0000     4          
   329  O     c      6.4697 *   -13.1336 *     0.0000    0.0000     2          
   330  Li    c      2.5491 *    14.3111 *    -1.9603 *  0.0000     4          
   331  O     c     -5.2923 *   -13.1336 *     3.9207 *  0.0000     4          
   332  Li    c      8.4301 *     2.5491 *    11.7620 *  0.0000     4          
   333  Li    c     -3.3319 *    14.3111 *     0.0000    0.0000     2          
   334  Li    c     12.3508 *    -1.3716 *     7.8414 *  0.0000     4          
   335  O     c     10.3904 *    10.3904       0.0000    0.0000     1          
   336  Li    c      8.4301 *    -9.2130 *     7.8414 *  0.0000     4          
   337  Li    c     -1.3716 *    -5.2923 *    13.7224 *  0.0000     4          
   338  Li    c      6.4697 *   -13.1336 *    -1.9603 *  0.0000     4          
   339  Li    c     -7.2526 *    -5.2923 *    11.7620 *  0.0000     4          
   340  Cl    c      4.5094 *    -3.3319 *    13.7224 *  0.0000     4          
   341  Cl    c      8.4301 *    -7.2526 *     9.8017 *  0.0000     4          
   342  Li    c     10.3904 *    10.3904      -1.9603 *  0.0000     2          
   343  Li    c      0.5887 *    14.3111 *     3.9207 *  0.0000     4          
   344  Li    c     12.3508 *     2.5491 *     7.8414 *  0.0000     4          
   345  Cl    c      0.5887 *   -11.1733 *     9.8017 *  0.0000     4          
   346  Li    c     -7.2526 *    10.3904 *     7.8414 *  0.0000     4          
   347  O     c     -1.3716 *    14.3111 *     3.9207 *  0.0000     4          
   348  O     c      6.4697 *     6.4697      11.7620 *  0.0000     2          
   349  Li    c      2.5491 *    -5.2923 *    13.7224 *  0.0000     4          
   350  Li    c      6.4697 *    -9.2130 *     9.8017 *  0.0000     4          
   351  Li    c      0.5887 *    -9.2130 *    11.7620 *  0.0000     4          
   352  Li    c     -7.2526 *   -13.1336 *     0.0000    0.0000     2          
   353  Li    c    -11.1733 *    -9.2130 *     3.9207 *  0.0000     4          
   354  O     c     -1.3716 *    -9.2130 *    11.7620 *  0.0000     4          
   355  Li    c      4.5094 *    14.3111 *     0.0000    0.0000     2          
   356  O     c      2.5491 *    14.3111 *     3.9207 *  0.0000     4          
   357  Li    c     10.3904 *    -9.2130 *     5.8810 *  0.0000     4          
   358  Cl    c      8.4301 *    12.3508 *    -1.9603 *  0.0000     4          
   359  Li    c    -11.1733 *     6.4697 *     7.8414 *  0.0000     4          
   360  Cl    c      4.5094 *     4.5094      13.7224 *  0.0000     2          
   361  Li    c    -15.0940 *    -1.3716 *     0.0000    0.0000     2          
   362  O     c      2.5491 *    -9.2130 *    11.7620 *  0.0000     4          
   363  O     c      6.4697 *   -13.1336 *     3.9207 *  0.0000     4          
   364  Cl    c      8.4301 *   -11.1733 *     5.8810 *  0.0000     4          
   365  O     c     -9.2130 *    -9.2130       7.8414 *  0.0000     2          
   366  Li    c     -3.3319 *    14.3111 *     3.9207 *  0.0000     4          
   367  O     c     10.3904 *    10.3904       3.9207 *  0.0000     2          
   368  Cl    c     -3.3319 *   -11.1733 *     9.8017 *  0.0000     4          
   369  Cl    c      0.5887 *   -15.0940 *    -1.9603 *  0.0000     4          
   370  Li    c     -1.3716 *     6.4697 *    13.7224 *  0.0000     4          
   371  Li    c     10.3904 *    -5.2923 *     9.8017 *  0.0000     4          
   372  Li    c     -7.2526 *     6.4697 *    11.7620 *  0.0000     4          
   373  Li    c    -11.1733 *    10.3904 *     0.0000    0.0000     2          
   374  O     c     14.3111 *    -5.2923 *     0.0000    0.0000     2          
   375  Li    c     -3.3319 *    -9.2130 *    11.7620 *  0.0000     4          
   376  Li    c      0.5887 *   -13.1336 *     7.8414 *  0.0000     4          
   377  Li    c    -15.0940 *     2.5491 *     0.0000    0.0000     2          
   378  Li    c     -5.2923 *   -13.1336 *     5.8810 *  0.0000     4          
   379  O     c     -1.3716 *   -13.1336 *     7.8414 *  0.0000     4          
   380  Li    c      2.5491 *     6.4697 *    13.7224 *  0.0000     4          
   381  Li    c     14.3111 *    -5.2923 *    -1.9603 *  0.0000     4          
   382  Li    c      8.4301 *    -5.2923 *    11.7620 *  0.0000     4          
   383  Li    c     12.3508 *    -9.2130 *     0.0000    0.0000     2          
   384  Cl    c      8.4301 *     8.4301       9.8017 *  0.0000     2          
   385  Cl    c     12.3508 *    -7.2526 *     5.8810 *  0.0000     4          
   386  Li    c     -7.2526 *   -13.1336 *     3.9207 *  0.0000     4          
   387  O     c      2.5491 *   -13.1336 *     7.8414 *  0.0000     4          
   388  Li    c      4.5094 *    14.3111 *     3.9207 *  0.0000     4          
   389  Li    c      8.4301 *    10.3904 *     7.8414 *  0.0000     4          
   390  Cl    c      0.5887 *    -7.2526 *    13.7224 *  0.0000     4          
   391  Cl    c      4.5094 *   -11.1733 *     9.8017 *  0.0000     4          
   392  Li    c     -1.3716 *    14.3111 *     5.8810 *  0.0000     4          
   393  Li    c     12.3508 *    -5.2923 *     7.8414 *  0.0000     4          
   394  Cl    c     -3.3319 *   -15.0940 *    -1.9603 *  0.0000     4          
   395  Li    c      4.5094 *    -9.2130 *    11.7620 *  0.0000     4          
   396  Li    c      8.4301 *   -13.1336 *     0.0000    0.0000     2          
   397  Li    c     -5.2923 *    -5.2923      13.7224 *  0.0000     2          
   398  Li    c     -3.3319 *   -13.1336 *     7.8414 *  0.0000     4          
   399  Li    c    -15.0940 *    -1.3716 *     3.9207 *  0.0000     4          
   400  Li    c      6.4697 *    10.3904 *     9.8017 *  0.0000     4          
   401  Li    c      2.5491 *    14.3111 *     5.8810 *  0.0000     4          
   402  Li    c      0.5887 *    10.3904 *    11.7620 *  0.0000     4          
   403  O     c      6.4697 *    14.3111 *     0.0000    0.0000     2          
   404  Li    c      0.5887 *    -1.3716 *    15.6827 *  0.0000     4          
   405  Li    c    -11.1733 *    10.3904 *     3.9207 *  0.0000     4          
   406  O     c     -1.3716 *    10.3904 *    11.7620 *  0.0000     4          
   407  O     c     14.3111 *    -5.2923 *     3.9207 *  0.0000     4          
   408  Li    c      6.4697 *   -13.1336 *     5.8810 *  0.0000     4          
   409  Cl    c      0.5887 *    12.3508 *     9.8017 *  0.0000     4          
   410  Li    c    -15.0940 *     2.5491 *     3.9207 *  0.0000     4          
   411  O     c     -1.3716 *    -1.3716      15.6827 *  0.0000     2          
   412  Li    c      6.4697 *    14.3111 *    -1.9603 *  0.0000     4          
   413  Li    c     10.3904 *    10.3904       5.8810 *  0.0000     2          
   414  O     c     -5.2923 *    -9.2130 *    11.7620 *  0.0000     4          
   415  Li    c      8.4301 *     6.4697 *    11.7620 *  0.0000     4          
   416  Cl    c     -3.3319 *    -7.2526 *    13.7224 *  0.0000     4          
   417  Cl    c      4.5094 *   -15.0940 *    -1.9603 *  0.0000     4          
   418  Li    c      0.5887 *     2.5491 *    15.6827 *  0.0000     4          
   419  Li    c     12.3508 *    -9.2130 *     3.9207 *  0.0000     4          
   420  O     c      2.5491 *    10.3904 *    11.7620 *  0.0000     4          
   421  Cl    c    -11.1733 *   -11.1733      -1.9603 *  0.0000     2          
   422  Li    c      4.5094 *   -13.1336 *     7.8414 *  0.0000     4          
   423  O     c     -1.3716 *     2.5491 *    15.6827 *  0.0000     4          
   424  O     c     10.3904 *    -9.2130 *     7.8414 *  0.0000     4          
   425  Li    c    -15.0940 *    -5.2923 *     0.0000    0.0000     2          
   426  Li    c     12.3508 *     6.4697 *     7.8414 *  0.0000     4          
   427  O     c     -9.2130 *   -13.1336 *     0.0000    0.0000     2          
   428  Li    c     -3.3319 *    10.3904 *    11.7620 *  0.0000     4          
   429  Li    c     -7.2526 *    14.3111 *     0.0000    0.0000     2          
   430  Li    c      6.4697 *    -5.2923 *    13.7224 *  0.0000     4          
   431  Cl    c      8.4301 *    12.3508 *     5.8810 *  0.0000     4          
   432  Li    c      8.4301 *   -13.1336 *     3.9207 *  0.0000     4          
   433  Li    c     -3.3319 *    -1.3716 *    15.6827 *  0.0000     4          
   434  O     c      2.5491 *     2.5491      15.6827 *  0.0000     2          
   435  Cl    c      0.5887 *     8.4301 *    13.7224 *  0.0000     4          
   436  Cl    c     12.3508 *    -3.3319 *     9.8017 *  0.0000     4          
   437  Li    c     12.3508 *    10.3904 *     0.0000    0.0000     2          
   438  Li    c     -9.2130 *   -13.1336 *    -1.9603 *  0.0000     4          
   439  Cl    c      4.5094 *    -7.2526 *    13.7224 *  0.0000     4          
   440  O     c     -5.2923 *   -13.1336 *     7.8414 *  0.0000     4          
   441  O     c      6.4697 *    14.3111 *     3.9207 *  0.0000     4          
   442  Cl    c      0.5887 *   -15.0940 *     5.8810 *  0.0000     4          
   443  Li    c     -3.3319 *     2.5491 *    15.6827 *  0.0000     4          
   444  Li    c    -11.1733 *    -1.3716 *    11.7620 *  0.0000     4          
   445  O     c      6.4697 *    -9.2130 *    11.7620 *  0.0000     4          
   446  Li    c     -9.2130 *    -9.2130       9.8017 *  0.0000     2          
   447  Li    c      0.5887 *    14.3111 *     7.8414 *  0.0000     4          
   448  Li    c      4.5094 *    10.3904 *    11.7620 *  0.0000     4          
   449  Li    c     16.2714 *    -1.3716 *     0.0000    0.0000     2          
   450  Li    c     14.3111 *    -5.2923 *     5.8810 *  0.0000     4          
   451  Li    c      4.5094 *    -1.3716 *    15.6827 *  0.0000     4          
   452  O     c     -1.3716 *    14.3111 *     7.8414 *  0.0000     4          
   453  Cl    c      0.5887 *    16.2714 *    -1.9603 *  0.0000     4          
   454  Cl    c      4.5094 *    12.3508 *     9.8017 *  0.0000     4          
   455  Li    c    -11.1733 *     2.5491 *    11.7620 *  0.0000     4          
   456  Li    c    -15.0940 *     6.4697 *     0.0000    0.0000     2          
   457  Li    c     -1.3716 *   -13.1336 *     9.8017 *  0.0000     4          
   458  Cl    c      8.4301 *    -3.3319 *    13.7224 *  0.0000     4          
   459  Li    c    -11.1733 *    -9.2130 *     7.8414 *  0.0000     4          
   460  Li    c    -15.0940 *    -5.2923 *     3.9207 *  0.0000     4          
   461  Li    c     16.2714 *     2.5491 *     0.0000    0.0000     2          
   462  Li    c      6.4697 *     6.4697      13.7224 *  0.0000     2          
   463  O     c     -9.2130 *   -13.1336 *     3.9207 *  0.0000     4          
   464  Li    c      4.5094 *     2.5491 *    15.6827 *  0.0000     4          
   465  Li    c     -7.2526 *    14.3111 *     3.9207 *  0.0000     4          
   466  O     c      2.5491 *    14.3111 *     7.8414 *  0.0000     4          
   467  Cl    c     -3.3319 *   -15.0940 *     5.8810 *  0.0000     4          
   468  Cl    c     -7.2526 *   -11.1733 *     9.8017 *  0.0000     4          
   469  Li    c      0.5887 *    -5.2923 *    15.6827 *  0.0000     4          
   470  O     c     10.3904 *    -5.2923 *    11.7620 *  0.0000     4          
   471  Li    c     -1.3716 *    -9.2130 *    13.7224 *  0.0000     4          
   472  Li    c      2.5491 *   -13.1336 *     9.8017 *  0.0000     4          
   473  Li    c     -7.2526 *    -9.2130 *    11.7620 *  0.0000     4          
   474  O     c     -1.3716 *    -5.2923 *    15.6827 *  0.0000     4          
   475  O     c      6.4697 *   -13.1336 *     7.8414 *  0.0000     4          
   476  Li    c      8.4301 *    14.3111 *     0.0000    0.0000     2          
   477  Li    c     12.3508 *    10.3904 *     3.9207 *  0.0000     4          
   478  Li    c     -3.3319 *    14.3111 *     7.8414 *  0.0000     4          
   479  O     c     10.3904 *    10.3904       7.8414 *  0.0000     2          
   480  Li    c      2.5491 *    -9.2130 *    13.7224 *  0.0000     4          
   481  Cl    c      4.5094 *     8.4301 *    13.7224 *  0.0000     4          
   482  Cl    c     16.2714 *    -3.3319 *    -1.9603 *  0.0000     4          
   483  O     c      2.5491 *    -5.2923 *    15.6827 *  0.0000     4          
   484  O     c     10.3904 *   -13.1336 *     0.0000    0.0000     2          
   485  Cl    c     12.3508 *   -11.1733 *    -1.9603 *  0.0000     4          
   486  Li    c      6.4697 *    14.3111 *     5.8810 *  0.0000     4          
   487  Li    c     16.2714 *    -1.3716 *     3.9207 *  0.0000     4          
   488  Cl    c      4.5094 *   -15.0940 *     5.8810 *  0.0000     4          
   489  Cl    c     -7.2526 *   -15.0940 *    -1.9603 *  0.0000     4          
   490  Cl    c    -11.1733 *   -11.1733       5.8810 *  0.0000     2          
   491  Li    c     10.3904 *   -13.1336 *    -1.9603 *  0.0000     4          
   492  Li    c     -3.3319 *    -5.2923 *    15.6827 *  0.0000     4          
   493  Li    c    -15.0940 *     6.4697 *     3.9207 *  0.0000     4          
   494  Li    c     -7.2526 *   -13.1336 *     7.8414 *  0.0000     4          
   495  Li    c      4.5094 *    14.3111 *     7.8414 *  0.0000     4          
   496  Li    c     16.2714 *     2.5491 *     3.9207 *  0.0000     4          
   497  Li    c      0.5887 *     6.4697 *    15.6827 *  0.0000     4          
   498  O     c      6.4697 *    10.3904 *    11.7620 *  0.0000     4          
   499  Li    c     10.3904 *    -9.2130 *     9.8017 *  0.0000     4          
   500  Cl    c      4.5094 *    16.2714 *    -1.9603 *  0.0000     4          
   501  O     c     -1.3716 *     6.4697 *    15.6827 *  0.0000     4          
   502  O     c     14.3111 *    -9.2130 *     0.0000    0.0000     2          
   503  Li    c      0.5887 *   -17.0543 *     0.0000    0.0000     2          
   504  Li    c    -11.1733 *    -5.2923 *    11.7620 *  0.0000     4          
   505  Li    c    -15.0940 *    -1.3716 *     7.8414 *  0.0000     4          
   506  Li    c      8.4301 *    14.3111 *     3.9207 *  0.0000     4          
   507  Li    c     -9.2130 *   -13.1336 *     5.8810 *  0.0000     4          
   508  Cl    c      8.4301 *   -11.1733 *     9.8017 *  0.0000     4          
   509  O     c     -1.3716 *   -17.0543 *     0.0000    0.0000     2          
   510  Li    c     12.3508 *    -1.3716 *    11.7620 *  0.0000     4          
   511  Li    c     16.2714 *    -5.2923 *     0.0000    0.0000     2          
   512  Cl    c     -7.2526 *    -7.2526      13.7224 *  0.0000     2          
   513  Li    c     14.3111 *    -9.2130 *    -1.9603 *  0.0000     4          
   514  Li    c      4.5094 *    -5.2923 *    15.6827 *  0.0000     4          
   515  Li    c      8.4301 *    -9.2130 *    11.7620 *  0.0000     4          
   516  Li    c    -11.1733 *    10.3904 *     7.8414 *  0.0000     4          
   517  O     c     14.3111 *    -5.2923 *     7.8414 *  0.0000     4          
   518  O     c      2.5491 *     6.4697 *    15.6827 *  0.0000     4          
   519  Li    c    -15.0940 *     2.5491 *     7.8414 *  0.0000     4          
   520  O     c     10.3904 *   -13.1336 *     3.9207 *  0.0000     4          
   521  Li    c     -1.3716 *   -17.0543 *    -1.9603 *  0.0000     4          
   522  Li    c     -5.2923 *   -13.1336 *     9.8017 *  0.0000     4          
   523  Li    c    -11.1733 *   -13.1336 *     0.0000    0.0000     2          
   524  O     c      2.5491 *   -17.0543 *     0.0000    0.0000     2          
   525  Li    c     12.3508 *     2.5491 *    11.7620 *  0.0000     4          
   526  Li    c     -1.3716 *    10.3904 *    13.7224 *  0.0000     4          
   527  Li    c     -3.3319 *     6.4697 *    15.6827 *  0.0000     4          
   528  Li    c     -7.2526 *    10.3904 *    11.7620 *  0.0000     4          
   529  Li    c     12.3508 *    -9.2130 *     7.8414 *  0.0000     4          
   530  Cl    c      0.5887 *    16.2714 *     5.8810 *  0.0000     4          
   531  Li    c     -7.2526 *    -1.3716 *    15.6827 *  0.0000     4          
   532  Li    c      2.5491 *   -17.0543 *    -1.9603 *  0.0000     4          
   533  Li    c     -5.2923 *    -9.2130 *    13.7224 *  0.0000     4          
   534  Cl    c     12.3508 *    -7.2526 *     9.8017 *  0.0000     4          
   535  Li    c     -3.3319 *   -17.0543 *     0.0000    0.0000     2          
   536  O     c     -5.2923 *    -5.2923      15.6827 *  0.0000     2          
   537  Cl    c      8.4301 *   -15.0940 *    -1.9603 *  0.0000     4          
   538  Li    c     -1.3716 *    14.3111 *     9.8017 *  0.0000     4          
   539  Li    c      2.5491 *    10.3904 *    13.7224 *  0.0000     4          
   540  Li    c      8.4301 *   -13.1336 *     7.8414 *  0.0000     4          
   541  Li    c     -7.2526 *     2.5491 *    15.6827 *  0.0000     4          
   542  Li    c    -11.1733 *     6.4697 *    11.7620 *  0.0000     4          
   543  O     c     14.3111 *    -9.2130 *     3.9207 *  0.0000     4          
   544  Li    c      0.5887 *   -17.0543 *     3.9207 *  0.0000     4          
   545  Li    c     16.2714 *     6.4697 *     0.0000    0.0000     2          
   546  Li    c      2.5491 *    14.3111 *     9.8017 *  0.0000     4          
   547  O     c     -1.3716 *   -17.0543 *     3.9207 *  0.0000     4          
   548  O     c     -9.2130 *    -9.2130      11.7620 *  0.0000     2          
   549  Li    c      4.5094 *     6.4697 *    15.6827 *  0.0000     4          
   550  Li    c     16.2714 *    -5.2923 *     3.9207 *  0.0000     4          
   551  O     c      6.4697 *    14.3111 *     7.8414 *  0.0000     4          
   552  Cl    c     12.3508 *    12.3508      -1.9603 *  0.0000     2          
   553  Li    c      6.4697 *   -13.1336 *     9.8017 *  0.0000     4          
   554  Cl    c     16.2714 *    -3.3319 *     5.8810 *  0.0000     4          
   555  Li    c      4.5094 *   -17.0543 *     0.0000    0.0000     2          
   556  Li    c      0.5887 *   -13.1336 *    11.7620 *  0.0000     4          
   557  Cl    c      0.5887 *     0.5887      17.6430 *  0.0000     2          
   558  Cl    c      8.4301 *    -7.2526 *    13.7224 *  0.0000     4          
   559  Cl    c     12.3508 *   -11.1733 *     5.8810 *  0.0000     4          
   560  Li    c     10.3904 *    10.3904       9.8017 *  0.0000     2          
   561  Li    c    -11.1733 *   -13.1336 *     3.9207 *  0.0000     4          
   562  Li    c    -15.0940 *    -9.2130 *     0.0000    0.0000     2          
   563  O     c      2.5491 *   -17.0543 *     3.9207 *  0.0000     4          
   564  O     c     -1.3716 *   -13.1336 *    11.7620 *  0.0000     4          
   565  O     c     10.3904 *    14.3111 *     0.0000    0.0000     2          
   566  Cl    c      0.5887 *   -11.1733 *    13.7224 *  0.0000     4          
   567  Cl    c     -7.2526 *   -15.0940 *     5.8810 *  0.0000     4          
   568  Li    c     -1.3716 *    -1.3716      17.6430 *  0.0000     2          
   569  Li    c      6.4697 *    -9.2130 *    13.7224 *  0.0000     4          
   570  Li    c     10.3904 *   -13.1336 *     5.8810 *  0.0000     4          
   571  O     c      6.4697 *    -5.2923 *    15.6827 *  0.0000     4          
   572  Li    c     10.3904 *    14.3111 *    -1.9603 *  0.0000     4          
   573  Li    c     -3.3319 *   -17.0543 *     3.9207 *  0.0000     4          
   574  Li    c    -15.0940 *    -5.2923 *     7.8414 *  0.0000     4          
   575  O     c      2.5491 *   -13.1336 *    11.7620 *  0.0000     4          
   576  Li    c      8.4301 *    10.3904 *    11.7620 *  0.0000     4          
   577  O     c     -5.2923 *   -17.0543 *     0.0000    0.0000     2          
   578  O     c     -9.2130 *   -13.1336 *     7.8414 *  0.0000     4          
   579  Li    c      8.4301 *    -1.3716 *    15.6827 *  0.0000     4          
   580  Li    c     12.3508 *    -5.2923 *    11.7620 *  0.0000     4          
   581  Li    c     -7.2526 *    14.3111 *     7.8414 *  0.0000     4          
   582  Li    c     -1.3716 *     2.5491 *    17.6430 *  0.0000     4          
   583  Cl    c      4.5094 *    16.2714 *     5.8810 *  0.0000     4          
   584  Cl    c      8.4301 *    12.3508 *     9.8017 *  0.0000     4          
   585  Cl    c     16.2714 *    -7.2526 *    -1.9603 *  0.0000     4          
   586  Li    c     -3.3319 *   -13.1336 *    11.7620 *  0.0000     4          
   587  Li    c     12.3508 *    10.3904 *     7.8414 *  0.0000     4          
   588  Li    c     16.2714 *     6.4697 *     3.9207 *  0.0000     4          
   589  Li    c     -5.2923 *   -17.0543 *    -1.9603 *  0.0000     4          
   590  Cl    c      0.5887 *    -3.3319 *    17.6430 *  0.0000     4          
   591  Li    c      8.4301 *     2.5491 *    15.6827 *  0.0000     4          
   592  Cl    c     -3.3319 *   -11.1733 *    13.7224 *  0.0000     4          
   593  Cl    c      0.5887 *   -15.0940 *     9.8017 *  0.0000     4          
   594  Li    c      2.5491 *     2.5491      17.6430 *  0.0000     2          
   595  Li    c     10.3904 *    -5.2923 *    13.7224 *  0.0000     4          
   596  Li    c     14.3111 *    -9.2130 *     5.8810 *  0.0000     4          
   597  Li    c     12.3508 *   -13.1336 *     0.0000    0.0000     2          
   598  Li    c      4.5094 *   -17.0543 *     3.9207 *  0.0000     4          
   599  Li    c     -7.2526 *    -5.2923 *    15.6827 *  0.0000     4          
   600  Li    c     -1.3716 *   -17.0543 *     5.8810 *  0.0000     4          
   601  Li    c    -15.0940 *    -9.2130 *     3.9207 *  0.0000     4          
   602  Li    c     16.2714 *    -1.3716 *     7.8414 *  0.0000     4          
   603  O     c     10.3904 *    14.3111 *     3.9207 *  0.0000     4          
   604  Li    c     14.3111 *    -5.2923 *     9.8017 *  0.0000     4          
   605  Li    c    -11.1733 *    14.3111 *     0.0000    0.0000     2          
   606  O     c      6.4697 *     6.4697      15.6827 *  0.0000     2          
   607  Cl    c      8.4301 *     8.4301      13.7224 *  0.0000     2          
   608  Li    c      0.5887 *    -9.2130 *    15.6827 *  0.0000     4          
   609  Li    c      4.5094 *   -13.1336 *    11.7620 *  0.0000     4          
   610  Li    c    -15.0940 *     6.4697 *     7.8414 *  0.0000     4          
   611  O     c     10.3904 *    -9.2130 *    11.7620 *  0.0000     4          
   612  Li    c      2.5491 *   -17.0543 *     5.8810 *  0.0000     4          
   613  Cl    c      0.5887 *     4.5094 *    17.6430 *  0.0000     4          
   614  O     c      6.4697 *   -17.0543 *     0.0000    0.0000     2          
   615  O     c     -1.3716 *    -9.2130 *    15.6827 *  0.0000     4          
   616  Li    c      0.5887 *    18.2318 *     0.0000    0.0000     2          
   617  Li    c     12.3508 *     6.4697 *    11.7620 *  0.0000     4          
   618  Li    c     16.2714 *     2.5491 *     7.8414 *  0.0000     4          
   619  Cl    c     -3.3319 *    -3.3319      17.6430 *  0.0000     2          
   620  Cl    c      4.5094 *   -11.1733 *    13.7224 *  0.0000     4          
   621  Cl    c      8.4301 *   -15.0940 *     5.8810 *  0.0000     4          
   622  O     c     -5.2923 *   -17.0543 *     3.9207 *  0.0000     4          
   623  O     c     -1.3716 *    18.2318 *     0.0000    0.0000     2          
   624  Cl    c     -3.3319 *   -15.0940 *     9.8017 *  0.0000     4          
   625  Li    c    -15.0940 *    10.3904 *     0.0000    0.0000     2          
   626  Li    c      6.4697 *   -17.0543 *    -1.9603 *  0.0000     4          
   627  O     c      2.5491 *    -9.2130 *    15.6827 *  0.0000     4          
   628  Li    c      8.4301 *    14.3111 *     7.8414 *  0.0000     4          
   629  Li    c      6.4697 *    10.3904 *    13.7224 *  0.0000     4          
   630  Li    c     -1.3716 *    18.2318 *    -1.9603 *  0.0000     4          
   631  O     c     -5.2923 *   -13.1336 *    11.7620 *  0.0000     4          
   632  O     c      2.5491 *    18.2318 *     0.0000    0.0000     2          
   633  Cl    c      8.4301 *    16.2714 *    -1.9603 *  0.0000     4          
   634  Cl    c     12.3508 *    12.3508       5.8810 *  0.0000     2          
   635  Li    c     -7.2526 *     6.4697 *    15.6827 *  0.0000     4          
   636  Li    c     12.3508 *   -13.1336 *     3.9207 *  0.0000     4          
   637  Li    c     -1.3716 *    -5.2923 *    17.6430 *  0.0000     4          
   638  Cl    c      0.5887 *    12.3508 *    13.7224 *  0.0000     4          
   639  Li    c     -3.3319 *    -9.2130 *    15.6827 *  0.0000     4          
   640  O     c     10.3904 *   -13.1336 *     7.8414 *  0.0000     4          
   641  Cl    c      4.5094 *    -3.3319 *    17.6430 *  0.0000     4          
   642  Li    c      2.5491 *    18.2318 *    -1.9603 *  0.0000     4          
   643  Li    c      6.4697 *    14.3111 *     9.8017 *  0.0000     4          
   644  Li    c     -7.2526 *   -17.0543 *     0.0000    0.0000     2          
   645  Li    c      0.5887 *    14.3111 *    11.7620 *  0.0000     4          
   646  Li    c     -3.3319 *    18.2318 *     0.0000    0.0000     2          
   647  Cl    c      4.5094 *   -15.0940 *     9.8017 *  0.0000     4          
   648  O     c    -13.1336 *   -13.1336       0.0000    0.0000     1          
   649  Li    c      8.4301 *    -5.2923 *    15.6827 *  0.0000     4          
   650  Li    c    -11.1733 *    14.3111 *     3.9207 *  0.0000     4          
   651  O     c     -1.3716 *    14.3111 *    11.7620 *  0.0000     4          
   652  Cl    c    -11.1733 *   -11.1733       9.8017 *  0.0000     2          
   653  Li    c      2.5491 *    -5.2923 *    17.6430 *  0.0000     4          
   654  Li    c     10.3904 *    14.3111 *     5.8810 *  0.0000     4          
   655  Li    c    -11.1733 *    -9.2130 *    11.7620 *  0.0000     4          
   656  O     c      6.4697 *   -17.0543 *     3.9207 *  0.0000     4          
   657  Li    c      0.5887 *    18.2318 *     3.9207 *  0.0000     4          
   658  Li    c    -13.1336 *   -13.1336      -1.9603 *  0.0000     2          
   659  Li    c     16.2714 *    -9.2130 *     0.0000    0.0000     2          
   660  O     c     -1.3716 *    18.2318 *     3.9207 *  0.0000     4          
   661  O     c      2.5491 *    14.3111 *    11.7620 *  0.0000     4          
   662  Li    c      4.5094 *    -9.2130 *    15.6827 *  0.0000     4          
   663  Li    c    -15.0940 *    10.3904 *     3.9207 *  0.0000     4          
   664  O     c     14.3111 *    -9.2130 *     7.8414 *  0.0000     4          
   665  Cl    c      4.5094 *     4.5094      17.6430 *  0.0000     2          
   666  Cl    c     12.3508 *    -3.3319 *    13.7224 *  0.0000     4          
   667  Cl    c     16.2714 *    -7.2526 *     5.8810 *  0.0000     4          
   668  Li    c      0.5887 *   -17.0543 *     7.8414 *  0.0000     4          
   669  O     c      6.4697 *   -13.1336 *    11.7620 *  0.0000     4          
   670  Li    c      4.5094 *    18.2318 *     0.0000    0.0000     2          
   671  Li    c     -5.2923 *   -17.0543 *     5.8810 *  0.0000     4          
   672  Li    c     -9.2130 *   -13.1336 *     9.8017 *  0.0000     4          
   673  O     c     -1.3716 *   -17.0543 *     7.8414 *  0.0000     4          
   674  Li    c      0.5887 *    10.3904 *    15.6827 *  0.0000     4          
   675  Li    c     16.2714 *    -5.2923 *     7.8414 *  0.0000     4          
   676  Li    c     -3.3319 *    14.3111 *    11.7620 *  0.0000     4          
   677  O     c      2.5491 *    18.2318 *     3.9207 *  0.0000     4          
   678  O     c     10.3904 *    10.3904      11.7620 *  0.0000     2          
   679  Li    c     -1.3716 *     6.4697 *    17.6430 *  0.0000     4          
   680  O     c     -1.3716 *    10.3904 *    15.6827 *  0.0000     4          
   681  Cl    c    -11.1733 *   -15.0940 *    -1.9603 *  0.0000     4          
   682  Li    c     12.3508 *    14.3111 *     0.0000    0.0000     2          
   683  Li    c     -9.2130 *    -9.2130      13.7224 *  0.0000     2          
   684  Li    c     -7.2526 *   -17.0543 *     3.9207 *  0.0000     4          
   685  Li    c    -11.1733 *   -13.1336 *     7.8414 *  0.0000     4          
   686  O     c      2.5491 *   -17.0543 *     7.8414 *  0.0000     4          
   687  O     c     -5.2923 *    -9.2130 *    15.6827 *  0.0000     4          
   688  Li    c      8.4301 *     6.4697 *    15.6827 *  0.0000     4          
   689  Li    c     -3.3319 *    18.2318 *     3.9207 *  0.0000     4          
   690  Li    c      2.5491 *     6.4697 *    17.6430 *  0.0000     4          
   691  O     c    -13.1336 *   -13.1336       3.9207 *  0.0000     2          
   692  O     c      2.5491 *    10.3904 *    15.6827 *  0.0000     4          
   693  O     c     18.2318 *    -5.2923 *     0.0000    0.0000     2          
   694  Cl    c      0.5887 *    16.2714 *     9.8017 *  0.0000     4          
   695  Cl    c      4.5094 *    12.3508 *    13.7224 *  0.0000     4          
   696  Li    c      8.4301 *   -17.0543 *     0.0000    0.0000     2          
   697  Li    c     -1.3716 *   -13.1336 *    13.7224 *  0.0000     4          
   698  Li    c     -3.3319 *   -17.0543 *     7.8414 *  0.0000     4          
   699  Li    c    -19.0146 *    -1.3716 *     0.0000    0.0000     2          
[...]
   1051 y         -7.841351     -7.841840    -0.000489    Cartesian    0.01
   1051 z         15.682702     15.681812    -0.000890    Cartesian   -0.01
   1052 x         -1.960338     -1.959929     0.000409    Cartesian   -0.02
   1052 y         -1.960338     -1.959929     0.000409    Cartesian   -0.02
   1052 z         17.643040     17.637451    -0.005589    Cartesian   -0.03
   1053 x          5.881013      5.879182    -0.001831    Cartesian   -0.03
   1053 y         -9.801689     -9.798096     0.003593    Cartesian   -0.04
   1053 z         13.722364     13.717242    -0.005123    Cartesian   -0.04
   1054 x          9.801689      9.801106    -0.000583    Cartesian   -0.01
   1054 y        -13.722364    -13.717183     0.005181    Cartesian   -0.04
   1054 z          5.881013      5.879168    -0.001845    Cartesian   -0.03
   1055 x         -3.920675     -3.919688     0.000987    Cartesian   -0.03
   1055 y        -15.682702    -15.680132     0.002570    Cartesian   -0.02
   1055 z          3.920675      3.920330    -0.000345    Cartesian   -0.01
   1056 x          0.000000      0.000039     0.000039    Cartesian    0.00
   1056 y         19.603377     19.603327    -0.000051    Cartesian   -0.00
   1056 z          0.000000      0.000000     0.000000    Cartesian    0.00
   1057 x         -1.960338     -1.958525     0.001813    Cartesian   -0.09
   1057 y        -13.722364    -13.715686     0.006678    Cartesian   -0.05
   1057 z          9.801689      9.798857    -0.002832    Cartesian   -0.03
   1058 x          3.920675      3.919571    -0.001105    Cartesian   -0.03
   1058 y         -7.841351     -7.841951    -0.000600    Cartesian    0.01
   1058 z         15.682702     15.681608    -0.001094    Cartesian   -0.01
   1059 x         -3.920675     -3.918881     0.001795    Cartesian   -0.05
   1059 y        -11.762026    -11.759416     0.002610    Cartesian   -0.02
   1059 z         11.762026     11.760738    -0.001289    Cartesian   -0.01
   1060 x          3.920675      3.921143     0.000468    Cartesian    0.01
   1060 y         19.603377     19.603837     0.000460    Cartesian    0.00
   1060 z          0.000000      0.000000     0.000000    Cartesian    0.00
   1061 x          9.801689      9.802566     0.000877    Cartesian    0.01
   1061 y         17.643040     17.639208    -0.003832    Cartesian   -0.02
   1061 z         -1.960338     -1.959101     0.001236    Cartesian   -0.06
   1062 x         13.722364     13.721340    -0.001024    Cartesian   -0.01
   1062 y         13.722364     13.721340    -0.001024    Cartesian   -0.01
   1062 z          5.881013      5.878818    -0.002195    Cartesian   -0.04
   1063 x          1.960338      1.960661     0.000323    Cartesian    0.02
   1063 y         13.722364     13.722711     0.000347    Cartesian    0.00
   1063 z         13.722364     13.721164    -0.001201    Cartesian   -0.01
   1064 x         11.762026     11.764065     0.002038    Cartesian    0.02
   1064 y        -11.762026    -11.762891    -0.000865    Cartesian    0.01
   1064 z          7.841351      7.841828     0.000477    Cartesian    0.01
   1065 x          5.881013      5.880618    -0.000396    Cartesian   -0.01
   1065 y         -1.960338     -1.959888     0.000450    Cartesian   -0.02
   1065 z         17.643040     17.637544    -0.005495    Cartesian   -0.03
   1066 x          5.881013      5.879584    -0.001429    Cartesian   -0.02
   1066 y        -13.722364    -13.715915     0.006450    Cartesian   -0.05
   1066 z          9.801689      9.799774    -0.001915    Cartesian   -0.02
   1067 x        -11.762026    -11.758787     0.003239    Cartesian   -0.03
   1067 y        -11.762026    -11.758787     0.003239    Cartesian   -0.03
   1067 z          0.000000      0.000000     0.000000    Cartesian    0.00
   1068 x          0.000000     -0.000213    -0.000213    Cartesian    0.00
   1068 y         15.682702     15.684910     0.002208    Cartesian    0.01
   1068 z         11.762026     11.764113     0.002087    Cartesian    0.02
   1069 x         -9.801689     -9.794241     0.007448    Cartesian   -0.08
   1069 y         -9.801689     -9.794241     0.007448    Cartesian   -0.08
   1069 z          9.801689      9.794433    -0.007255    Cartesian   -0.07
   1070 x          7.841351      7.841999     0.000648    Cartesian    0.01
   1070 y        -15.682702    -15.681573     0.001129    Cartesian   -0.01
   1070 z          3.920675      3.921069     0.000394    Cartesian    0.01
   1071 x          0.000000      0.000551     0.000551    Cartesian    0.00
   1071 y         19.603377     19.602922    -0.000456    Cartesian   -0.00
   1071 z          3.920675      3.920813     0.000137    Cartesian    0.00
   1072 x          3.920675      3.921044     0.000368    Cartesian    0.01
   1072 y         15.682702     15.685831     0.003129    Cartesian    0.02
   1072 z         11.762026     11.765244     0.003218    Cartesian    0.03
   1073 x         15.682702     15.683601     0.000899    Cartesian    0.01
   1073 y         -7.841351     -7.841536    -0.000185    Cartesian    0.00
   1073 z          7.841351      7.841392     0.000041    Cartesian    0.00
   1074 x          5.881013      5.881178     0.000165    Cartesian    0.00
   1074 y          5.881013      5.881178     0.000165    Cartesian    0.00
   1074 z         17.643040     17.637721    -0.005319    Cartesian   -0.03
   1075 x         13.722364     13.721864    -0.000501    Cartesian   -0.00
   1075 y         -1.960338     -1.959980     0.000358    Cartesian   -0.02
   1075 z         13.722364     13.719050    -0.003314    Cartesian   -0.02
   1076 x         17.643040     17.638452    -0.004588    Cartesian   -0.03
   1076 y         -5.881013     -5.878308     0.002705    Cartesian   -0.05
   1076 z          5.881013      5.879340    -0.001673    Cartesian   -0.03
   1077 x          7.841351      7.840306    -0.001045    Cartesian   -0.01
   1077 y        -11.762026    -11.759977     0.002049    Cartesian   -0.02
   1077 z         11.762026     11.760636    -0.001390    Cartesian   -0.01
   1078 x          0.000000      0.000187     0.000187    Cartesian    0.00
   1078 y        -15.682702    -15.680779     0.001923    Cartesian   -0.01
   1078 z          7.841351      7.841576     0.000225    Cartesian    0.00
   1079 x          3.920675      3.921011     0.000335    Cartesian    0.01
   1079 y         19.603377     19.603675     0.000298    Cartesian    0.00
   1079 z          3.920675      3.920869     0.000193    Cartesian    0.00
   1080 x         11.762026     11.766748     0.004721    Cartesian    0.04
   1080 y         11.762026     11.766748     0.004721    Cartesian    0.04
   1080 z         11.762026     11.765074     0.003047    Cartesian    0.03
   1081 x          0.000000     -0.000339    -0.000339    Cartesian    0.00
   1081 y         11.762026     11.762445     0.000419    Cartesian    0.00
   1081 z         15.682702     15.681979    -0.000723    Cartesian   -0.00
   1082 x         -9.801689     -9.796901     0.004787    Cartesian   -0.05
   1082 y        -13.722364    -13.714082     0.008282    Cartesian   -0.06
   1082 z         -1.960338     -1.959045     0.001293    Cartesian   -0.07
   1083 x          3.920675      3.920928     0.000252    Cartesian    0.01
   1083 y        -15.682702    -15.681004     0.001698    Cartesian   -0.01
   1083 z          7.841351      7.841909     0.000558    Cartesian    0.01
   1084 x         -3.920675     -3.919832     0.000843    Cartesian   -0.02
   1084 y         -7.841351     -7.839964     0.001387    Cartesian   -0.02
   1084 z         15.682702     15.680581    -0.002121    Cartesian   -0.01
   1085 x        -11.762026    -11.758586     0.003440    Cartesian   -0.03
   1085 y        -11.762026    -11.758586     0.003440    Cartesian   -0.03
   1085 z          3.920675      3.920308    -0.000367    Cartesian   -0.01
   1086 x          3.920675      3.921047     0.000371    Cartesian    0.01
   1086 y         11.762026     11.762318     0.000291    Cartesian    0.00
   1086 z         15.682702     15.682819     0.000117    Cartesian    0.00
   1087 x         19.603377     19.602943    -0.000434    Cartesian   -0.00
   1087 y         -3.920675     -3.920167     0.000508    Cartesian   -0.01
   1087 z          0.000000      0.000000     0.000000    Cartesian    0.00
   1088 x          1.960338      1.961588     0.001251    Cartesian    0.06
   1088 y         17.643040     17.638019    -0.005021    Cartesian   -0.03
   1088 z          9.801689      9.799457    -0.002232    Cartesian   -0.02
   1089 x          5.881013      5.881411     0.000398    Cartesian    0.01
   1089 y         13.722364     13.722647     0.000283    Cartesian    0.00
   1089 z         13.722364     13.720024    -0.002341    Cartesian   -0.02
   1090 x          1.960338      1.960537     0.000200    Cartesian    0.01
   1090 y         -5.881013     -5.877906     0.003107    Cartesian   -0.05
   1090 z         17.643040     17.634966    -0.008074    Cartesian   -0.05
   1091 x          1.960338      1.960552     0.000214    Cartesian    0.01
   1091 y        -17.643040    -17.634810     0.008229    Cartesian   -0.05
   1091 z         -1.960338     -1.959608     0.000730    Cartesian   -0.04
   1092 x         -5.881013     -5.876806     0.004207    Cartesian   -0.07
   1092 y         -9.801689     -9.794519     0.007170    Cartesian   -0.07
   1092 z         13.722364     13.715041    -0.007323    Cartesian   -0.05
   1093 x          9.801689      9.800666    -0.001023    Cartesian   -0.01
   1093 y         17.643040     17.637891    -0.005148    Cartesian   -0.03
   1093 z          5.881013      5.878812    -0.002202    Cartesian   -0.04
   1094 x         15.682702     15.682427    -0.000275    Cartesian   -0.00
   1094 y         -3.920675     -3.920613     0.000063    Cartesian   -0.00
   1094 z         11.762026     11.760683    -0.001343    Cartesian   -0.01
   1095 x         17.643040     17.636854    -0.006185    Cartesian   -0.04
   1095 y         -1.960338     -1.957955     0.002383    Cartesian   -0.12
   1095 z          9.801689      9.797656    -0.004033    Cartesian   -0.04
   1096 x          7.841351      7.839496    -0.001855    Cartesian   -0.02
   1096 y         -7.841351     -7.839663     0.001688    Cartesian   -0.02
   1096 z         15.682702     15.679337    -0.003365    Cartesian   -0.02
   1097 x         13.722364     13.719599    -0.002765    Cartesian   -0.02
   1097 y         -9.801689     -9.798031     0.003658    Cartesian   -0.04
   1097 z          9.801689      9.798774    -0.002914    Cartesian   -0.03
   1098 x         11.762026     11.760996    -0.001030    Cartesian   -0.01
   1098 y         15.682702     15.681082    -0.001620    Cartesian   -0.01
   1098 z          7.841351      7.838863    -0.002488    Cartesian   -0.03
   1099 x          7.841351      7.840166    -0.001185    Cartesian   -0.02
   1099 y         19.603377     19.601726    -0.001652    Cartesian   -0.01
   1099 z          0.000000      0.000000     0.000000    Cartesian    0.00
   1100 x         -1.960338     -1.958732     0.001606    Cartesian   -0.08
   1100 y         -5.881013     -5.877371     0.003642    Cartesian   -0.06
   1100 z         17.643040     17.633901    -0.009139    Cartesian   -0.05
   1101 x         -7.841351     -7.839020     0.002331    Cartesian   -0.03
   1101 y        -15.682702    -15.678369     0.004332    Cartesian   -0.03
   1101 z          0.000000      0.000000     0.000000    Cartesian    0.00
   1102 x         19.603377     19.601527    -0.001851    Cartesian   -0.01
   1102 y         -3.920675     -3.919272     0.001403    Cartesian   -0.04
   1102 z          3.920675      3.920695     0.000019    Cartesian    0.00
   1103 x         -1.960338     -1.958425     0.001913    Cartesian   -0.10
   1103 y        -17.643040    -17.632880     0.010160    Cartesian   -0.06
   1103 z         -1.960338     -1.959326     0.001012    Cartesian   -0.05
   1104 x         -5.881013     -5.876739     0.004274    Cartesian   -0.07
   1104 y        -13.722364    -13.713890     0.008474    Cartesian   -0.06
   1104 z          9.801689      9.796325    -0.005364    Cartesian   -0.05
   1105 x         15.682702     15.680798    -0.001904    Cartesian   -0.01
   1105 y        -11.762026    -11.760120     0.001906    Cartesian   -0.02
   1105 z          0.000000      0.000000     0.000000    Cartesian    0.00
   1106 x         -3.920675     -3.918550     0.002125    Cartesian   -0.05
   1106 y        -15.682702    -15.677843     0.004859    Cartesian   -0.03
   1106 z          7.841351      7.839059    -0.002292    Cartesian   -0.03
   1107 x          5.881013      5.880063    -0.000950    Cartesian   -0.02
   1107 y         17.643040     17.636422    -0.006617    Cartesian   -0.04
   1107 z          9.801689      9.797771    -0.003918    Cartesian   -0.04
   1108 x         11.762026     11.760485    -0.001541    Cartesian   -0.01
   1108 y         -3.920675     -3.919653     0.001023    Cartesian   -0.03
   1108 z         15.682702     15.679855    -0.002847    Cartesian   -0.02
   1109 x          1.960338      1.960023    -0.000315    Cartesian   -0.02
   1109 y          9.801689      9.799539    -0.002150    Cartesian   -0.02
   1109 z         17.643040     17.634649    -0.008391    Cartesian   -0.05
   1110 x          5.881013      5.878738    -0.002275    Cartesian   -0.04
   1110 y         -5.881013     -5.877751     0.003262    Cartesian   -0.06
   1110 z         17.643040     17.633779    -0.009260    Cartesian   -0.05
   1111 x          9.801689      9.797986    -0.003703    Cartesian   -0.04
   1111 y         -9.801689     -9.796561     0.005128    Cartesian   -0.05
   1111 z         13.722364     13.715322    -0.007042    Cartesian   -0.05
   1112 x         13.722364     13.717721    -0.004643    Cartesian   -0.03
   1112 y        -13.722364    -13.714899     0.007466    Cartesian   -0.05
   1112 z         -1.960338     -1.959296     0.001041    Cartesian   -0.05
   1113 x          7.841351      7.840044    -0.001307    Cartesian   -0.02
   1113 y         15.682702     15.680930    -0.001772    Cartesian   -0.01
   1113 z         11.762026     11.760185    -0.001841    Cartesian   -0.02
   1114 x          5.881013      5.879195    -0.001818    Cartesian   -0.03
   1114 y        -17.643040    -17.632615     0.010425    Cartesian   -0.06
   1114 z         -1.960338     -1.959091     0.001247    Cartesian   -0.06
   1115 x         -9.801689     -9.794790     0.006899    Cartesian   -0.07
   1115 y        -13.722364    -13.712464     0.009901    Cartesian   -0.07
   1115 z          5.881013      5.877809    -0.003204    Cartesian   -0.05
   1116 x          0.000000     -0.000139    -0.000139    Cartesian    0.00
   1116 y          0.000000     -0.000139    -0.000139    Cartesian    0.00
   1116 z         19.603377     19.602090    -0.001287    Cartesian   -0.01
   1117 x          7.841351      7.839910    -0.001441    Cartesian   -0.02
   1117 y         19.603377     19.599750    -0.003627    Cartesian   -0.02
   1117 z          3.920675      3.919004    -0.001671    Cartesian   -0.04
   1118 x         -7.841351     -7.838459     0.002892    Cartesian   -0.04
   1118 y        -15.682702    -15.677178     0.005524    Cartesian   -0.04
   1118 z          3.920675      3.919049    -0.001627    Cartesian   -0.04
   1119 x          0.000000      0.001119     0.001119    Cartesian    0.00
   1119 y          3.920675      3.919448    -0.001227    Cartesian   -0.03
   1119 z         19.603377     19.598895    -0.004483    Cartesian   -0.02
   1120 x         15.682702     15.679575    -0.003127    Cartesian   -0.02
   1120 y        -11.762026    -11.758671     0.003356    Cartesian   -0.03
   1120 z          3.920675      3.918914    -0.001762    Cartesian   -0.04
   1121 x          9.801689      9.798416    -0.003272    Cartesian   -0.03
   1121 y         -1.960338     -1.958627     0.001711    Cartesian   -0.09
   1121 z         17.643040     17.633983    -0.009057    Cartesian   -0.05
   1122 x         13.722364     13.718122    -0.004243    Cartesian   -0.03
   1122 y         -5.881013     -5.877826     0.003187    Cartesian   -0.05
   1122 z         13.722364     13.715704    -0.006661    Cartesian   -0.05
   1123 x         17.643040     17.634887    -0.008153    Cartesian   -0.05
   1123 y         -9.801689     -9.795458     0.006231    Cartesian   -0.06
   1123 z         -1.960338     -1.958975     0.001363    Cartesian   -0.07
   1124 x          7.841351      7.839431    -0.001920    Cartesian   -0.02
   1124 y        -15.682702    -15.678101     0.004601    Cartesian   -0.03
   1124 z          7.841351      7.839441    -0.001910    Cartesian   -0.02
   1125 x          9.801689      9.798008    -0.003681    Cartesian   -0.04
   1125 y        -13.722364    -13.713793     0.008571    Cartesian   -0.06
   1125 z          9.801689      9.797322    -0.004367    Cartesian   -0.04
   1126 x         -7.841351     -7.837128     0.004223    Cartesian   -0.05
   1126 y        -11.762026    -11.756572     0.005455    Cartesian   -0.05
   1126 z         11.762026     11.757517    -0.004509    Cartesian   -0.04
   1127 x          0.000000      0.001637     0.001637    Cartesian    0.00
   1127 y         19.603377     19.599761    -0.003616    Cartesian   -0.02
   1127 z          7.841351      7.839490    -0.001861    Cartesian   -0.02
   1128 x          7.841351      7.839706    -0.001645    Cartesian   -0.02
   1128 y         11.762026     11.760398    -0.001628    Cartesian   -0.01
   1128 z         15.682702     15.680373    -0.002329    Cartesian   -0.01
   1129 x          1.960338      1.960348     0.000010    Cartesian    0.00
   1129 y        -17.643040    -17.631615     0.011425    Cartesian   -0.06
   1129 z          5.881013      5.877932    -0.003081    Cartesian   -0.05
   1130 x          3.920675      3.919470    -0.001205    Cartesian   -0.03
   1130 y          3.920675      3.919470    -0.001205    Cartesian   -0.03
   1130 z         19.603377     19.598864    -0.004513    Cartesian   -0.02
   1131 x         11.762026     11.759325    -0.002702    Cartesian   -0.02
   1131 y        -15.682702    -15.677421     0.005281    Cartesian   -0.03
   1131 z          0.000000      0.000000     0.000000    Cartesian    0.00
--------------------------------------------------------------------------------


  Time to end of optimisation  =      672.8759 seconds


  Peak dynamic memory used =    1249.24 MB 


  Timing analysis for GULP :

--------------------------------------------------------------------------------
  Task / Subroutine                                          Time (Seconds)
--------------------------------------------------------------------------------
  Calculation of reciprocal space energy and derivatives          0.0002
  Calculation of reciprocal space energy using symmetry           0.0003
  Calculation of real space energy and derivatives                0.0016
  Calculation of real space energy using symmetry                 0.0032
  Calculation for region 1 energy and derivatives (2-b)         163.7382
  Calculation for region 2a energy                               50.8758
  Calculation for region 2b energy                                0.0050
  Calculation and manipulation of Hessian matrix                407.6039
  Calculation of matrix inversion                                49.0832
  Symmetry generation of equivalent positions                     0.0016
--------------------------------------------------------------------------------
  Total CPU time                                                672.8759
--------------------------------------------------------------------------------


  Dump file written as Li3OCl.grs


  Job Finished at 14:36.54 28th October    2020                               

