********************************************************************************
*                       GENERAL UTILITY LATTICE PROGRAM                        *
*                                 Julian Gale                                  *
*                       Curtin Institute for Computation                       *
*                    School of Molecular and Life Sciences                     *
*                    Curtin University, Western Australia                      *
********************************************************************************
* Version = 5.2.0 * Last modified =  10th September 2020                       *
********************************************************************************
*  optimise     - perform optimisation run                                     *
*  conp         - constant pressure calculation                                *
*  property     - calculate properties for final geometry                      *
*  defect       - perform defect calculation after bulk run                    *
*  compare      - compare initial and final structures                         *
********************************************************************************

  Job Started  at 14:53.01 28th October    2020                               

  Number of CPUs =     1


  Total number of configurations input =      1

********************************************************************************
*  Input for Configuration =   1                                               *
********************************************************************************

  Formula = ClOLi3                                                      

  Number of irreducible atoms/shells =       5


  Total number atoms/shells =       7

  Dimensionality = 3               :  Bulk   


  Symmetry :

  Crystal family                   :  Cubic       
  Crystal class  (Groth - 1921)    :  Cubic Hexakisoctahedral              

  Space group (centrosymmetric)    :  P M 3 M         

  Patterson group                  :  P m -3 m 

  Cartesian lattice vectors (Angstroms) :

        3.918873    0.000000    0.000000
        0.000000    3.918873    0.000000
        0.000000    0.000000    3.918873

  Cell parameters (Angstroms/Degrees):

  a =       3.9189    alpha =  90.0000
  b =       3.9189    beta  =  90.0000
  c =       3.9189    gamma =  90.0000

  Initial cell volume =          60.184349 Angs**3

  Temperature of configuration =   0.00     K 

  Pressure of configuration =         0.000 GPa 

  Fractional coordinates of asymmetric unit :

--------------------------------------------------------------------------------
   No.  Atomic       x           y          z         Charge      Occupancy
        Label      (Frac)      (Frac)     (Frac)        (e)         (Frac)  
--------------------------------------------------------------------------------
      1 Cl    c    0.500000    0.500000    0.500000     1.48500    1.000000    
      2 O     c    0.000000    0.000000    0.000000     0.18300    1.000000    
      3 Li    c    0.500000    0.000000    0.000000     1.00000    1.000000    
      4 Cl    s    0.500000    0.500000    0.500000    -2.48500    1.000000    
      5 O     s    0.000000    0.000000    0.000000    -2.18300    1.000000    
--------------------------------------------------------------------------------


  Constraints : 

--------------------------------------------------------------------------------
  Constraint no.      Unconstrained     Constrained    Coefficient    Offset
                         Variable         Variable
--------------------------------------------------------------------------------
           1              Strain 1        Strain 2       1.00000      0.0000
           2              Strain 1        Strain 3       1.00000      0.0000
--------------------------------------------------------------------------------


********************************************************************************
*  General input information                                                   *
********************************************************************************

  Species output for all configurations : 

--------------------------------------------------------------------------------
  Species    Type    Atomic    Atomic    Charge       Radii (Angs)     Library
                     Number     Mass       (e)     Cova   Ionic  VDW   Symbol
--------------------------------------------------------------------------------
    Li       Core        3       6.94   1.000000   0.680  0.000  1.800          
    O        Core        8      16.00   0.183000   0.730  0.000  1.360          
    O        Shell       8       0.00  -2.183000   0.730  0.000  1.360          
    Cl       Core       17      35.45   1.485000   0.990  0.000  1.650          
    Cl       Shell      17       0.00  -2.485000   0.990  0.000  1.650          
--------------------------------------------------------------------------------


  Lattice summation method               =    Ewald          (3-D)
                                         =    Parry          (2-D)
                                         =    Saunders et al (1-D)
  Accuracy factor for lattice sums       =   12.000


  Analytic derivatives to be used

  Time limit = Infinity

  Maximum range for interatomic potentials =    100000.000000 Angstroms

  General interatomic potentials :

--------------------------------------------------------------------------------
Atom  Types   Potential      Parameter       Value         Units   Cutoffs(Ang)
  1     2                                                            Min /  Max 
--------------------------------------------------------------------------------
O    c O    s Spring (c-s)  Spring k 2       593.72000    eV*Ang^-2 0.000  0.800
                            Spring k 4       0.0000000    eV*Ang^-4 
--------------------------------------------------------------------------------
Cl   c Cl   s Spring (c-s)  Spring k 2       29.380000    eV*Ang^-2 0.000  0.800
                            Spring k 4       0.0000000    eV*Ang^-4 
--------------------------------------------------------------------------------
Li   c Li   c Buckingham    Buckingham A     360.53000    eV        0.000 12.000
                            Buckingham rho  0.16100000    Ang       
                            Buckingham C     0.0000000    eV*Ang^6  
--------------------------------------------------------------------------------
Li   c O    s Buckingham    Buckingham A     292.30000    eV        0.000 12.000
                            Buckingham rho  0.34720000    Ang       
                            Buckingham C     0.0000000    eV*Ang^6  
--------------------------------------------------------------------------------
Li   c Cl   s Buckingham    Buckingham A     421.04000    eV        0.000 12.000
                            Buckingham rho  0.33400000    Ang       
                            Buckingham C     0.0000000    eV*Ang^6  
--------------------------------------------------------------------------------
O    s O    s Buckingham    Buckingham A     22764.300    eV        0.000 12.000
                            Buckingham rho  0.14900000    Ang       
                            Buckingham C     13.190000    eV*Ang^6  
--------------------------------------------------------------------------------
O    s Cl   s Buckingham    Buckingham A     8286.9100    eV        0.000 12.000
                            Buckingham rho  0.25900000    Ang       
                            Buckingham C     62.200000    eV*Ang^6  
--------------------------------------------------------------------------------
Cl   s Cl   s Buckingham    Buckingham A     1227.2000    eV        0.000 12.000
                            Buckingham rho  0.32100000    Ang       
                            Buckingham C     14.530000    eV*Ang^6  
--------------------------------------------------------------------------------

********************************************************************************
*  Output for configuration   1                                                *
********************************************************************************


  Components of energy : 

--------------------------------------------------------------------------------
  Interatomic potentials     =           7.26836263 eV    
  Monopole - monopole (real) =         -11.53475722 eV    
  Monopole - monopole (recip)=         -33.94580548 eV    
  Monopole - monopole (total)=         -45.48056271 eV    
--------------------------------------------------------------------------------
  Total lattice energy       =         -38.21220008 eV    
--------------------------------------------------------------------------------
  Total lattice energy       =           -3686.8932 kJ/(mole unit cells)
--------------------------------------------------------------------------------


  Number of variables =        1

  Maximum number of calculations  =          1000
  Maximum Hessian update interval =            10
  Maximum step size               =   1.000000000
  Maximum parameter tolerance     =   0.000010000
  Maximum function  tolerance     =   0.000010000
  Maximum gradient  tolerance     =   0.001000000
  Maximum gradient  component     =   0.010000000

  Symmetry constrained optimisation

  Symmetry used for second derivatives

  Cell parameters to be optimised using strains

  Newton-Raphson optimiser to be used

  BFGS hessian update to be used

  Lower half triangular hessian to be used

  Start of bulk optimisation :

  Cycle:      0 Energy:       -38.212200  Gnorm:      0.095699  CPU:    0.006
  ** Hessian calculated **
  Cycle:      1 Energy:       -38.212222  Gnorm:      0.000105  CPU:    0.007


  **** Optimisation achieved ****


  Final energy =     -38.21222207 eV
  Final Gnorm  =       0.00000001

  Components of energy : 

--------------------------------------------------------------------------------
  Interatomic potentials     =           7.24743137 eV    
  Monopole - monopole (real) =         -11.52945422 eV    
  Monopole - monopole (recip)=         -33.93019921 eV    
  Monopole - monopole (total)=         -45.45965344 eV    
--------------------------------------------------------------------------------
  Total lattice energy       =         -38.21222207 eV    
--------------------------------------------------------------------------------
  Total lattice energy       =           -3686.8953 kJ/(mole unit cells)
--------------------------------------------------------------------------------

  Final asymmetric unit coordinates :

--------------------------------------------------------------------------------
   No.  Atomic        x           y           z         Radius
        Label       (Frac)      (Frac)      (Frac)       (Angs) 
--------------------------------------------------------------------------------
     1  Cl    c     0.500000    0.500000    0.500000    0.000000
     2  O     c     0.000000    0.000000    0.000000    0.000000
     3  Li    c     0.500000    0.000000    0.000000    0.000000
     4  Cl    s     0.500000    0.500000    0.500000    0.000000
     5  O     s     0.000000    0.000000    0.000000    0.000000
--------------------------------------------------------------------------------

  Final Cartesian lattice vectors (Angstroms) :

        3.920675    0.000000    0.000000
        0.000000    3.920675    0.000000
        0.000000    0.000000    3.920675


  Final cell parameters and derivatives :

--------------------------------------------------------------------------------
       a            3.920675 Angstrom     dE/de1(xx)     0.000000 eV/strain
       b            3.920675 Angstrom     dE/de2(yy)     0.000000 eV/strain
       c            3.920675 Angstrom     dE/de3(zz)     0.000000 eV/strain
       alpha       90.000000 Degrees      dE/de4(yz)     0.000000 eV/strain
       beta        90.000000 Degrees      dE/de5(xz)     0.000000 eV/strain
       gamma       90.000000 Degrees      dE/de6(xy)     0.000000 eV/strain
--------------------------------------------------------------------------------

  Primitive cell volume =            60.267433 Angs**3

  Density of cell =      1.991276 g/cm**3

  Non-primitive cell volume =            60.267433 Angs**3


  Final internal derivatives :

--------------------------------------------------------------------------------
   No.  Atomic          a             b             c           Radius
        Label          (eV)          (eV)          (eV)        (eV/Angs)
--------------------------------------------------------------------------------
      1 Cl    c       0.000000      0.000000      0.000000      0.000000
      2 O     c       0.000000      0.000000      0.000000      0.000000
      3 Li    c       0.000000      0.000000      0.000000      0.000000
      4 Cl    s       0.000000      0.000000      0.000000      0.000000
      5 O     s       0.000000      0.000000      0.000000      0.000000
--------------------------------------------------------------------------------
  Maximum abs         0.000000      0.000000      0.000000      0.000000
--------------------------------------------------------------------------------

  Comparison of initial and final structures : 

--------------------------------------------------------------------------------
  Parameter   Initial value   Final value   Difference    Units      Percent
--------------------------------------------------------------------------------
    Volume        60.184349     60.267433     0.083084    Angs**3      0.14
    a              3.918873      3.920675     0.001802    Angstroms    0.05
    b              3.918873      3.920675     0.001802    Angstroms    0.05
    c              3.918873      3.920675     0.001802    Angstroms    0.05
    alpha         90.000000     90.000000     0.000000    Degrees      0.00
    beta          90.000000     90.000000     0.000000    Degrees      0.00
    gamma         90.000000     90.000000     0.000000    Degrees      0.00
      1 x          0.500000      0.500000     0.000000    Fractional   0.00
      1 y          0.500000      0.500000     0.000000    Fractional   0.00
      1 z          0.500000      0.500000     0.000000    Fractional   0.00
      2 x          0.000000      0.000000     0.000000    Fractional   0.00
      2 y          0.000000      0.000000     0.000000    Fractional   0.00
      2 z          0.000000      0.000000     0.000000    Fractional   0.00
      3 x          0.500000      0.500000     0.000000    Fractional   0.00
      3 y          0.000000      0.000000     0.000000    Fractional   0.00
      3 z          0.000000      0.000000     0.000000    Fractional   0.00
      4 x          0.500000      0.500000     0.000000    Fractional   0.00
      4 y          0.500000      0.500000     0.000000    Fractional   0.00
      4 z          0.500000      0.500000     0.000000    Fractional   0.00
      5 x          0.000000      0.000000     0.000000    Fractional   0.00
      5 y          0.000000      0.000000     0.000000    Fractional   0.00
      5 z          0.000000      0.000000     0.000000    Fractional   0.00
--------------------------------------------------------------------------------


  Born effective charge tensors : 

-------------------------------------------------------------------------------
  Atom             x           y             z
-------------------------------------------------------------------------------
    1 Cl    x      -0.9489      0.0000     -0.0000
            y       0.0000     -0.9489     -0.0000
            z      -0.0000     -0.0000     -0.9489
-------------------------------------------------------------------------------
    2 O     x      -2.4688      0.0000     -0.0000
            y       0.0000     -2.4688     -0.0000
            z      -0.0000     -0.0000     -2.4688
-------------------------------------------------------------------------------
    3 Li    x       0.7919     -0.0000      0.0000
            y      -0.0000      1.3129      0.0000
            z      -0.0000      0.0000      1.3129
-------------------------------------------------------------------------------




  Elastic Constant Matrix: (Units=GPa)

-------------------------------------------------------------------------------
  Indices      1         2         3         4         5         6    
-------------------------------------------------------------------------------
       1     94.3368   44.9178   44.9178   -0.0000   -0.0000    0.0000
       2     44.9178   94.3368   44.9178    0.0000   -0.0000    0.0000
       3     44.9178   44.9178   94.3368    0.0000    0.0000   -0.0000
       4     -0.0000    0.0000    0.0000   44.9178   -0.0000    0.0000
       5     -0.0000   -0.0000    0.0000   -0.0000   44.9178    0.0000
       6      0.0000    0.0000   -0.0000    0.0000    0.0000   44.9178
-------------------------------------------------------------------------------


  Elastic Compliance Matrix: (Units=1/GPa)

-------------------------------------------------------------------------------
  Indices      1         2         3         4         5         6    
-------------------------------------------------------------------------------
       1    0.015300 -0.004935 -0.004935  0.000000  0.000000 -0.000000
       2   -0.004935  0.015300 -0.004935  0.000000 -0.000000 -0.000000
       3   -0.004935 -0.004935  0.015300 -0.000000 -0.000000  0.000000
       4    0.000000  0.000000 -0.000000  0.022263  0.000000 -0.000000
       5    0.000000 -0.000000 -0.000000  0.000000  0.022263 -0.000000
       6   -0.000000 -0.000000  0.000000 -0.000000 -0.000000  0.022263
-------------------------------------------------------------------------------

  Mechanical properties :

-------------------------------------------------------------------------------
  Convention :                    Reuss         Voigt         Hill
-------------------------------------------------------------------------------
  Bulk  Modulus (GPa)     =      61.39080      61.39080      61.39080
  Shear Modulus (GPa)     =      33.84570      36.83448      35.34009
-------------------------------------------------------------------------------
  Velocity S-wave (km/s)  =       4.12274       4.30092       4.21277
  Velocity P-wave (km/s)  =       7.31386       7.44942       7.38195
-------------------------------------------------------------------------------
  Compressibility (1/GPa) =    0.01628909
-------------------------------------------------------------------------------
  Stress axis :                     x             y             z
-------------------------------------------------------------------------------
  Youngs Moduli (GPa)     =      65.35947      65.35947      65.35947
-------------------------------------------------------------------------------
  Poissons Ratio (x)      =                     0.32256       0.32256
  Poissons Ratio (y)      =       0.32256                     0.32256
  Poissons Ratio (z)      =       0.32256       0.32256
-------------------------------------------------------------------------------


  Piezoelectric Strain Matrix: (Units=C/m**2)

-------------------------------------------------------------------------------
  Indices      1         2         3         4         5         6    
-------------------------------------------------------------------------------
       x     0.00000  -0.00000  -0.00000   0.00000   0.00000  -0.00000
       y    -0.00000   0.00000   0.00000  -0.00000   0.00000  -0.00000
       z    -0.00000   0.00000   0.00000   0.00000  -0.00000   0.00000
-------------------------------------------------------------------------------


  Piezoelectric Stress Matrix: (Units=10**-11 C/N)

-------------------------------------------------------------------------------
  Indices      1         2         3         4         5         6    
-------------------------------------------------------------------------------
       x     0.00000  -0.00000  -0.00000   0.00000   0.00000  -0.00000
       y    -0.00000   0.00000   0.00000  -0.00000   0.00000  -0.00000
       z    -0.00000  -0.00000   0.00000   0.00000  -0.00000   0.00000
-------------------------------------------------------------------------------


  Static dielectric constant tensor : 

-------------------------------------------------------------------------------
              x         y         z
-------------------------------------------------------------------------------
       x    12.11703  -0.00000   0.00000
       y    -0.00000  12.11703   0.00000
       z     0.00000   0.00000  12.11703
--------------------------------------------------------------------------------

  High frequency dielectric constant tensor : 

-------------------------------------------------------------------------------
              x         y         z
-------------------------------------------------------------------------------
       x     1.74104  -0.00000   0.00000
       y    -0.00000   1.74104   0.00000
       z     0.00000   0.00000   1.74104
-------------------------------------------------------------------------------

  Static refractive indices : 

-------------------------------------------------------------------------------
    1 =    3.48095      2 =    3.48095      3 =    3.48095
-------------------------------------------------------------------------------

  High frequency refractive indices : 

-------------------------------------------------------------------------------
    1 =    1.31948      2 =    1.31948      3 =    1.31948
-------------------------------------------------------------------------------


  Time to end of optimisation =       0.0102 seconds

********************************************************************************
*  Defect calculation for configuration   1 :                                  *
********************************************************************************

  Total number of defects =      3

  Total charge on defect  =   2.00

  Defect centre is at   1.7635   1.7635   0.0000  Angs

  Region 1 radius =  20.0000      Number of ions =   3918

  Number of symmetry inequivalent region 1 ions  =   1137

  Region 2 radius =  24.0000      Number of ions =   2798

  Number of symmetry inequivalent region 2a ions =    767

  Region 2a mode = 4 : screened electrostatics due to region 1 
                       neglect correction to region 1 forces from 2a
                       region 2a displacements based on defects only

  Region 2a ions will only interact with defects in region 1

  Vacancies:

--------------------------------------------------------------------------------
    Specification type     Symbol/Number         x          y          z
--------------------------------------------------------------------------------
    Cartesian                                0.000000   0.000000   0.000000
    Cartesian                                3.918873   3.918873   0.000000
--------------------------------------------------------------------------------

  Interstitials:

--------------------------------------------------------------------------------
    Specification type     Symbol/Number         x          y          z
--------------------------------------------------------------------------------
    Atom/Cartesian          O                1.763493   1.763493   0.000000
--------------------------------------------------------------------------------


  Symmetry reduced region 1 (Relative to defect centre) :

--------------------------------------------------------------------------------
   No.   Atomic       x            y             z       Radius  Multiplicity   
         Label      (Angs)       (Angs)        (Angs)    (Angs)     
--------------------------------------------------------------------------------
     1  O     c      0.0000       0.0000       0.0000    0.0000     1    Defect
     2  Li    c      0.1968 *    -1.7635 *     0.0000    0.0000     2          
     3  Cl    c      0.1968 *     0.1968      -1.9603 *  0.0000     2          
     4  Li    c      0.1968 *     2.1572 *     0.0000    0.0000     2          
     5  O     c      2.1572 *    -1.7635 *     0.0000    0.0000     2          
     6  Li    c     -1.7635 *    -1.7635      -1.9603 *  0.0000     2          
     7  Li    c      2.1572 *    -1.7635 *    -1.9603 *  0.0000     4          
     8  Li    c      2.1572 *     2.1572      -1.9603 *  0.0000     2          
     9  Li    c     -3.7238 *    -1.7635 *     0.0000    0.0000     2          
    10  Cl    c      0.1968 *    -3.7238 *    -1.9603 *  0.0000     4          
    11  Li    c     -3.7238 *     2.1572 *     0.0000    0.0000     2          
    12  Li    c      0.1968 *    -1.7635 *     3.9207 *  0.0000     4          
    13  Li    c      0.1968 *     2.1572 *     3.9207 *  0.0000     4          
    14  Li    c      4.1175 *    -1.7635 *     0.0000    0.0000     2          
    15  Cl    c      0.1968 *     4.1175 *    -1.9603 *  0.0000     4          
    16  O     c     -1.7635 *    -1.7635       3.9207 *  0.0000     2          
    17  Li    c      4.1175 *     2.1572 *     0.0000    0.0000     2          
    18  O     c      2.1572 *    -1.7635 *     3.9207 *  0.0000     4          
    19  O     c      2.1572 *     2.1572       3.9207 *  0.0000     2          
    20  Cl    c     -3.7238 *    -3.7238      -1.9603 *  0.0000     2          
    21  Li    c     -3.7238 *    -1.7635 *     3.9207 *  0.0000     4          
    22  Li    c      0.1968 *    -5.6842 *     0.0000    0.0000     2          
    23  Li    c     -3.7238 *     2.1572 *     3.9207 *  0.0000     4          
    24  Cl    c      0.1968 *     0.1968       5.8810 *  0.0000     2          
    25  Cl    c      4.1175 *    -3.7238 *    -1.9603 *  0.0000     4          
    26  O     c     -1.7635 *    -5.6842 *     0.0000    0.0000     2          
    27  Li    c      4.1175 *    -1.7635 *     3.9207 *  0.0000     4          
    28  O     c      2.1572 *    -5.6842 *     0.0000    0.0000     2          
    29  Li    c      0.1968 *     6.0779 *     0.0000    0.0000     2          
    30  Li    c      4.1175 *     2.1572 *     3.9207 *  0.0000     4          
    31  Cl    c      4.1175 *     4.1175      -1.9603 *  0.0000     2          
    32  Li    c     -1.7635 *    -5.6842 *    -1.9603 *  0.0000     4          
    33  O     c      6.0779 *    -1.7635 *     0.0000    0.0000     2          
    34  Li    c     -1.7635 *    -1.7635       5.8810 *  0.0000     2          
    35  Li    c      2.1572 *    -5.6842 *    -1.9603 *  0.0000     4          
    36  O     c      2.1572 *     6.0779 *     0.0000    0.0000     2          
    37  Li    c      2.1572 *    -1.7635 *     5.8810 *  0.0000     4          
    38  Li    c      2.1572 *     2.1572       5.8810 *  0.0000     2          
    39  Li    c      6.0779 *    -1.7635 *    -1.9603 *  0.0000     4          
    40  Li    c      2.1572 *     6.0779 *    -1.9603 *  0.0000     4          
    41  Li    c     -3.7238 *    -5.6842 *     0.0000    0.0000     2          
    42  Li    c      0.1968 *    -5.6842 *     3.9207 *  0.0000     4          
    43  Cl    c      0.1968 *    -3.7238 *     5.8810 *  0.0000     4          
    44  Li    c      4.1175 *    -5.6842 *     0.0000    0.0000     2          
    45  O     c     -1.7635 *    -5.6842 *     3.9207 *  0.0000     4          
    46  Li    c     -3.7238 *     6.0779 *     0.0000    0.0000     2          
    47  Cl    c      0.1968 *     4.1175 *     5.8810 *  0.0000     4          
    48  O     c      2.1572 *    -5.6842 *     3.9207 *  0.0000     4          
    49  Li    c      0.1968 *     6.0779 *     3.9207 *  0.0000     4          
    50  Li    c      4.1175 *     6.0779 *     0.0000    0.0000     2          
    51  O     c      6.0779 *    -1.7635 *     3.9207 *  0.0000     4          
    52  O     c      2.1572 *     6.0779 *     3.9207 *  0.0000     4          
    53  Li    c     -7.6445 *    -1.7635 *     0.0000    0.0000     2          
    54  Li    c     -3.7238 *    -5.6842 *     3.9207 *  0.0000     4          
    55  Cl    c      0.1968 *    -7.6445 *    -1.9603 *  0.0000     4          
    56  Cl    c     -3.7238 *    -3.7238       5.8810 *  0.0000     2          
    57  Li    c     -7.6445 *     2.1572 *     0.0000    0.0000     2          
    58  O     c     -5.6842 *    -5.6842       0.0000    0.0000     1          
    59  Li    c      0.1968 *    -1.7635 *     7.8414 *  0.0000     4          
    60  Li    c      4.1175 *    -5.6842 *     3.9207 *  0.0000     4          
    61  Cl    c      4.1175 *    -3.7238 *     5.8810 *  0.0000     4          
    62  Li    c     -3.7238 *     6.0779 *     3.9207 *  0.0000     4          
    63  Li    c      0.1968 *     2.1572 *     7.8414 *  0.0000     4          
    64  O     c     -1.7635 *    -1.7635       7.8414 *  0.0000     2          
    65  Li    c      8.0382 *    -1.7635 *     0.0000    0.0000     2          
    66  Li    c     -5.6842 *    -5.6842      -1.9603 *  0.0000     2          
    67  Cl    c      0.1968 *     8.0382 *    -1.9603 *  0.0000     4          
    68  Cl    c      4.1175 *     4.1175       5.8810 *  0.0000     2          
    69  O     c      2.1572 *    -1.7635 *     7.8414 *  0.0000     4          
    70  O     c      6.0779 *    -5.6842 *     0.0000    0.0000     2          
    71  Li    c      4.1175 *     6.0779 *     3.9207 *  0.0000     4          
    72  Li    c      8.0382 *     2.1572 *     0.0000    0.0000     2          
    73  Li    c     -1.7635 *    -5.6842 *     5.8810 *  0.0000     4          
    74  O     c      2.1572 *     2.1572       7.8414 *  0.0000     2          
    75  Li    c      2.1572 *    -5.6842 *     5.8810 *  0.0000     4          
    76  Li    c      6.0779 *    -5.6842 *    -1.9603 *  0.0000     4          
    77  O     c      6.0779 *     6.0779       0.0000    0.0000     1          
    78  Li    c      6.0779 *    -1.7635 *     5.8810 *  0.0000     4          
    79  Cl    c     -3.7238 *    -7.6445 *    -1.9603 *  0.0000     4          
    80  Li    c      2.1572 *     6.0779 *     5.8810 *  0.0000     4          
    81  Li    c     -7.6445 *    -1.7635 *     3.9207 *  0.0000     4          
    82  Li    c      6.0779 *     6.0779      -1.9603 *  0.0000     2          
    83  Li    c     -3.7238 *    -1.7635 *     7.8414 *  0.0000     4          
    84  Li    c     -7.6445 *     2.1572 *     3.9207 *  0.0000     4          
    85  Cl    c      4.1175 *    -7.6445 *    -1.9603 *  0.0000     4          
    86  O     c     -5.6842 *    -5.6842       3.9207 *  0.0000     2          
    87  Li    c     -3.7238 *     2.1572 *     7.8414 *  0.0000     4          
    88  Li    c      4.1175 *    -1.7635 *     7.8414 *  0.0000     4          
    89  Cl    c      8.0382 *    -3.7238 *    -1.9603 *  0.0000     4          
    90  Li    c      4.1175 *     2.1572 *     7.8414 *  0.0000     4          
    91  Li    c      8.0382 *    -1.7635 *     3.9207 *  0.0000     4          
    92  O     c      6.0779 *    -5.6842 *     3.9207 *  0.0000     4          
    93  Li    c      8.0382 *     2.1572 *     3.9207 *  0.0000     4          
    94  Cl    c      4.1175 *     8.0382 *    -1.9603 *  0.0000     4          
    95  O     c      6.0779 *     6.0779       3.9207 *  0.0000     2          
    96  Li    c     -7.6445 *    -5.6842 *     0.0000    0.0000     2          
    97  Li    c      0.1968 *    -9.6048 *     0.0000    0.0000     2          
    98  Cl    c      0.1968 *    -7.6445 *     5.8810 *  0.0000     4          
    99  Li    c      0.1968 *    -5.6842 *     7.8414 *  0.0000     4          
   100  O     c     -1.7635 *    -9.6048 *     0.0000    0.0000     2          
   101  Li    c     -7.6445 *     6.0779 *     0.0000    0.0000     2          
   102  Cl    c      0.1968 *     0.1968       9.8017 *  0.0000     2          
   103  O     c      2.1572 *    -9.6048 *     0.0000    0.0000     2          
   104  O     c     -1.7635 *    -5.6842 *     7.8414 *  0.0000     4          
   105  Li    c      8.0382 *    -5.6842 *     0.0000    0.0000     2          
   106  O     c      2.1572 *    -5.6842 *     7.8414 *  0.0000     4          
   107  Li    c      0.1968 *     6.0779 *     7.8414 *  0.0000     4          
   108  Li    c     -1.7635 *    -9.6048 *    -1.9603 *  0.0000     4          
   109  Li    c     -5.6842 *    -5.6842       5.8810 *  0.0000     2          
   110  Cl    c      0.1968 *     8.0382 *     5.8810 *  0.0000     4          
   111  Li    c      0.1968 *     9.9985 *     0.0000    0.0000     2          
   112  Li    c      2.1572 *    -9.6048 *    -1.9603 *  0.0000     4          
   113  O     c      6.0779 *    -1.7635 *     7.8414 *  0.0000     4          
   114  Li    c      8.0382 *     6.0779 *     0.0000    0.0000     2          
   115  Li    c     -1.7635 *    -1.7635       9.8017 *  0.0000     2          
   116  O     c      2.1572 *     6.0779 *     7.8414 *  0.0000     4          
   117  O     c      9.9985 *    -1.7635 *     0.0000    0.0000     2          
   118  Li    c      2.1572 *    -1.7635 *     9.8017 *  0.0000     4          
   119  Li    c      6.0779 *    -5.6842 *     5.8810 *  0.0000     4          
   120  O     c      2.1572 *     9.9985 *     0.0000    0.0000     2          
   121  Li    c      2.1572 *     2.1572       9.8017 *  0.0000     2          
   122  Li    c     -3.7238 *    -9.6048 *     0.0000    0.0000     2          
   123  Li    c     -7.6445 *    -5.6842 *     3.9207 *  0.0000     4          
   124  Cl    c     -3.7238 *    -7.6445 *     5.8810 *  0.0000     4          
   125  Li    c      9.9985 *    -1.7635 *    -1.9603 *  0.0000     4          
   126  Li    c      0.1968 *    -9.6048 *     3.9207 *  0.0000     4          
   127  Li    c     -3.7238 *    -5.6842 *     7.8414 *  0.0000     4          
   128  Li    c      2.1572 *     9.9985 *    -1.9603 *  0.0000     4          
   129  Li    c      6.0779 *     6.0779       5.8810 *  0.0000     2          
   130  Li    c      4.1175 *    -9.6048 *     0.0000    0.0000     2          
   131  Cl    c      0.1968 *    -3.7238 *     9.8017 *  0.0000     4          
   132  Cl    c      4.1175 *    -7.6445 *     5.8810 *  0.0000     4          
   133  O     c     -1.7635 *    -9.6048 *     3.9207 *  0.0000     4          
   134  Li    c     -7.6445 *     6.0779 *     3.9207 *  0.0000     4          
   135  Li    c      4.1175 *    -5.6842 *     7.8414 *  0.0000     4          
   136  O     c      2.1572 *    -9.6048 *     3.9207 *  0.0000     4          
   137  Li    c     -3.7238 *     6.0779 *     7.8414 *  0.0000     4          
   138  Li    c      8.0382 *    -5.6842 *     3.9207 *  0.0000     4          
   139  Cl    c      0.1968 *     4.1175 *     9.8017 *  0.0000     4          
   140  Cl    c      8.0382 *    -3.7238 *     5.8810 *  0.0000     4          
   141  Li    c     -3.7238 *     9.9985 *     0.0000    0.0000     2          
   142  Li    c      0.1968 *     9.9985 *     3.9207 *  0.0000     4          
   143  Li    c      4.1175 *     6.0779 *     7.8414 *  0.0000     4          
   144  Cl    c      4.1175 *     8.0382 *     5.8810 *  0.0000     4          
   145  Li    c      4.1175 *     9.9985 *     0.0000    0.0000     2          
   146  Li    c      8.0382 *     6.0779 *     3.9207 *  0.0000     4          
   147  O     c      9.9985 *    -1.7635 *     3.9207 *  0.0000     4          
   148  O     c      2.1572 *     9.9985 *     3.9207 *  0.0000     4          
   149  Cl    c     -7.6445 *    -7.6445      -1.9603 *  0.0000     2          
   150  Li    c     -3.7238 *    -9.6048 *     3.9207 *  0.0000     4          
   151  Li    c     -7.6445 *    -1.7635 *     7.8414 *  0.0000     4          
   152  Cl    c     -3.7238 *    -3.7238       9.8017 *  0.0000     2          
   153  O     c     -5.6842 *    -9.6048 *     0.0000    0.0000     2          
   154  Li    c     -7.6445 *     2.1572 *     7.8414 *  0.0000     4          
   155  Li    c      4.1175 *    -9.6048 *     3.9207 *  0.0000     4          
   156  O     c     -5.6842 *    -5.6842       7.8414 *  0.0000     2          
   157  Cl    c      4.1175 *    -3.7238 *     9.8017 *  0.0000     4          
   158  Cl    c      8.0382 *    -7.6445 *    -1.9603 *  0.0000     4          
   159  Li    c     -5.6842 *    -9.6048 *    -1.9603 *  0.0000     4          
   160  O     c      6.0779 *    -9.6048 *     0.0000    0.0000     2          
   161  Li    c     -3.7238 *     9.9985 *     3.9207 *  0.0000     4          
   162  Li    c      8.0382 *    -1.7635 *     7.8414 *  0.0000     4          
   163  Li    c     -1.7635 *    -9.6048 *     5.8810 *  0.0000     4          
   164  Cl    c      4.1175 *     4.1175       9.8017 *  0.0000     2          
   165  O     c      6.0779 *    -5.6842 *     7.8414 *  0.0000     4          
   166  Li    c      8.0382 *     2.1572 *     7.8414 *  0.0000     4          
   167  Li    c      2.1572 *    -9.6048 *     5.8810 *  0.0000     4          
   168  Li    c     -1.7635 *    -5.6842 *     9.8017 *  0.0000     4          
   169  O     c      9.9985 *    -5.6842 *     0.0000    0.0000     2          
   170  Li    c      4.1175 *     9.9985 *     3.9207 *  0.0000     4          
   171  Li    c      2.1572 *    -5.6842 *     9.8017 *  0.0000     4          
   172  Li    c      6.0779 *    -9.6048 *    -1.9603 *  0.0000     4          
   173  Cl    c      8.0382 *     8.0382      -1.9603 *  0.0000     2          
   174  O     c      6.0779 *     6.0779       7.8414 *  0.0000     2          
   175  Li    c      6.0779 *    -1.7635 *     9.8017 *  0.0000     4          
   176  Li    c      9.9985 *    -5.6842 *    -1.9603 *  0.0000     4          
   177  Li    c    -11.5652 *    -1.7635 *     0.0000    0.0000     2          
   178  O     c      6.0779 *     9.9985 *     0.0000    0.0000     2          
   179  Cl    c      0.1968 *   -11.5652 *    -1.9603 *  0.0000     4          
   180  Li    c      2.1572 *     6.0779 *     9.8017 *  0.0000     4          
   181  Li    c      9.9985 *    -1.7635 *     5.8810 *  0.0000     4          
   182  Li    c    -11.5652 *     2.1572 *     0.0000    0.0000     2          
   183  Li    c      2.1572 *     9.9985 *     5.8810 *  0.0000     4          
   184  O     c     -5.6842 *    -9.6048 *     3.9207 *  0.0000     4          
   185  Li    c      6.0779 *     9.9985 *    -1.9603 *  0.0000     4          
   186  Li    c      0.1968 *    -1.7635 *    11.7620 *  0.0000     4          
   187  Li    c      0.1968 *     2.1572 *    11.7620 *  0.0000     4          
   188  O     c      6.0779 *    -9.6048 *     3.9207 *  0.0000     4          
   189  O     c     -1.7635 *    -1.7635      11.7620 *  0.0000     2          
   190  O     c      2.1572 *    -1.7635 *    11.7620 *  0.0000     4          
   191  Li    c     11.9589 *    -1.7635 *     0.0000    0.0000     2          
   192  Cl    c      0.1968 *    11.9589 *    -1.9603 *  0.0000     4          
   193  O     c      2.1572 *     2.1572      11.7620 *  0.0000     2          
   194  O     c      9.9985 *    -5.6842 *     3.9207 *  0.0000     4          
   195  Li    c     11.9589 *     2.1572 *     0.0000    0.0000     2          
   196  Li    c     -7.6445 *    -9.6048 *     0.0000    0.0000     2          
   197  Cl    c     -3.7238 *   -11.5652 *    -1.9603 *  0.0000     4          
   198  Cl    c     -7.6445 *    -7.6445       5.8810 *  0.0000     2          
   199  Li    c    -11.5652 *    -1.7635 *     3.9207 *  0.0000     4          
   200  Li    c     -7.6445 *    -5.6842 *     7.8414 *  0.0000     4          
   201  O     c      6.0779 *     9.9985 *     3.9207 *  0.0000     4          
   202  Li    c      0.1968 *    -9.6048 *     7.8414 *  0.0000     4          
   203  Li    c    -11.5652 *     2.1572 *     3.9207 *  0.0000     4          
   204  Cl    c      0.1968 *    -7.6445 *     9.8017 *  0.0000     4          
   205  Cl    c      4.1175 *   -11.5652 *    -1.9603 *  0.0000     4          
   206  Li    c     -3.7238 *    -1.7635 *    11.7620 *  0.0000     4          
   207  O     c     -1.7635 *    -9.6048 *     7.8414 *  0.0000     4          
   208  Li    c      8.0382 *    -9.6048 *     0.0000    0.0000     2          
   209  Li    c     -3.7238 *     2.1572 *    11.7620 *  0.0000     4          
   210  Li    c     -7.6445 *     6.0779 *     7.8414 *  0.0000     4          
   211  Cl    c      8.0382 *    -7.6445 *     5.8810 *  0.0000     4          
   212  O     c      2.1572 *    -9.6048 *     7.8414 *  0.0000     4          
   213  Li    c     -7.6445 *     9.9985 *     0.0000    0.0000     2          
   214  Li    c      4.1175 *    -1.7635 *    11.7620 *  0.0000     4          
   215  Li    c      8.0382 *    -5.6842 *     7.8414 *  0.0000     4          
   216  Li    c     -5.6842 *    -9.6048 *     5.8810 *  0.0000     4          
   217  Li    c      4.1175 *     2.1572 *    11.7620 *  0.0000     4          
   218  Li    c     -5.6842 *    -5.6842       9.8017 *  0.0000     2          
   219  Cl    c      0.1968 *     8.0382 *     9.8017 *  0.0000     4          
   220  Cl    c     11.9589 *    -3.7238 *    -1.9603 *  0.0000     4          
   221  Li    c      0.1968 *     9.9985 *     7.8414 *  0.0000     4          
   222  Li    c     11.9589 *    -1.7635 *     3.9207 *  0.0000     4          
   223  Li    c      8.0382 *     6.0779 *     7.8414 *  0.0000     4          
   224  Li    c     11.9589 *     2.1572 *     3.9207 *  0.0000     4          
   225  Li    c      6.0779 *    -9.6048 *     5.8810 *  0.0000     4          
   226  Cl    c      4.1175 *    11.9589 *    -1.9603 *  0.0000     4          
   227  Cl    c      8.0382 *     8.0382       5.8810 *  0.0000     2          
   228  O     c      9.9985 *    -1.7635 *     7.8414 *  0.0000     4          
   229  Li    c      8.0382 *     9.9985 *     0.0000    0.0000     2          
   230  Li    c      6.0779 *    -5.6842 *     9.8017 *  0.0000     4          
   231  Li    c     -7.6445 *    -9.6048 *     3.9207 *  0.0000     4          
   232  Li    c    -11.5652 *    -5.6842 *     0.0000    0.0000     2          
   233  O     c      2.1572 *     9.9985 *     7.8414 *  0.0000     4          
   234  Li    c      9.9985 *    -5.6842 *     5.8810 *  0.0000     4          
   235  Li    c     -3.7238 *    -9.6048 *     7.8414 *  0.0000     4          
   236  Cl    c      0.1968 *   -11.5652 *     5.8810 *  0.0000     4          
   237  Cl    c     -3.7238 *    -7.6445 *     9.8017 *  0.0000     4          
   238  Li    c      6.0779 *     6.0779       9.8017 *  0.0000     2          
   239  Li    c    -11.5652 *     6.0779 *     0.0000    0.0000     2          
   240  Li    c      0.1968 *    -5.6842 *    11.7620 *  0.0000     4          
   241  Li    c      4.1175 *    -9.6048 *     7.8414 *  0.0000     4          
   242  Cl    c      4.1175 *    -7.6445 *     9.8017 *  0.0000     4          
   243  Li    c      6.0779 *     9.9985 *     5.8810 *  0.0000     4          
   244  Li    c      8.0382 *    -9.6048 *     3.9207 *  0.0000     4          
   245  O     c     -1.7635 *    -5.6842 *    11.7620 *  0.0000     4          
   246  Li    c     -7.6445 *     9.9985 *     3.9207 *  0.0000     4          
   247  Cl    c      8.0382 *    -3.7238 *     9.8017 *  0.0000     4          
   248  O     c      2.1572 *    -5.6842 *    11.7620 *  0.0000     4          
   249  Li    c      0.1968 *     6.0779 *    11.7620 *  0.0000     4          
   250  Li    c     11.9589 *    -5.6842 *     0.0000    0.0000     2          
   251  Li    c     -3.7238 *     9.9985 *     7.8414 *  0.0000     4          
   252  Cl    c      4.1175 *     8.0382 *     9.8017 *  0.0000     4          
   253  Cl    c      0.1968 *    11.9589 *     5.8810 *  0.0000     4          
   254  O     c      6.0779 *    -1.7635 *    11.7620 *  0.0000     4          
   255  Li    c      4.1175 *     9.9985 *     7.8414 *  0.0000     4          
   256  O     c      2.1572 *     6.0779 *    11.7620 *  0.0000     4          
   257  Li    c      8.0382 *     9.9985 *     3.9207 *  0.0000     4          
   258  Li    c     11.9589 *     6.0779 *     0.0000    0.0000     2          
   259  Li    c    -11.5652 *    -5.6842 *     3.9207 *  0.0000     4          
   260  Cl    c     -3.7238 *   -11.5652 *     5.8810 *  0.0000     4          
   261  Li    c      0.1968 *   -13.5255 *     0.0000    0.0000     2          
   262  O     c     -9.6048 *    -9.6048       0.0000    0.0000     1          
   263  Li    c     -3.7238 *    -5.6842 *    11.7620 *  0.0000     4          
   264  Cl    c      4.1175 *   -11.5652 *     5.8810 *  0.0000     4          
   265  O     c     -1.7635 *   -13.5255 *     0.0000    0.0000     2          
   266  O     c     -5.6842 *    -9.6048 *     7.8414 *  0.0000     4          
   267  Li    c    -11.5652 *     6.0779 *     3.9207 *  0.0000     4          
   268  O     c      2.1572 *   -13.5255 *     0.0000    0.0000     2          
   269  Li    c      4.1175 *    -5.6842 *    11.7620 *  0.0000     4          
   270  Li    c     -9.6048 *    -9.6048      -1.9603 *  0.0000     2          
   271  Cl    c      0.1968 *     0.1968      13.7224 *  0.0000     2          
   272  Li    c     -3.7238 *     6.0779 *    11.7620 *  0.0000     4          
   273  Li    c     -1.7635 *   -13.5255 *    -1.9603 *  0.0000     4          
   274  O     c      6.0779 *    -9.6048 *     7.8414 *  0.0000     4          
   275  Li    c     11.9589 *    -5.6842 *     3.9207 *  0.0000     4          
   276  Li    c     -1.7635 *    -9.6048 *     9.8017 *  0.0000     4          
   277  Li    c      2.1572 *   -13.5255 *    -1.9603 *  0.0000     4          
   278  Cl    c     11.9589 *    -3.7238 *     5.8810 *  0.0000     4          
   279  O     c      9.9985 *    -9.6048 *     0.0000    0.0000     2          
   280  Li    c      4.1175 *     6.0779 *    11.7620 *  0.0000     4          
   281  Li    c      2.1572 *    -9.6048 *     9.8017 *  0.0000     4          
   282  O     c      9.9985 *    -5.6842 *     7.8414 *  0.0000     4          
   283  Li    c      0.1968 *    13.9192 *     0.0000    0.0000     2          
   284  Li    c     -1.7635 *    -1.7635      13.7224 *  0.0000     2          
   285  Cl    c      4.1175 *    11.9589 *     5.8810 *  0.0000     4          
   286  Li    c     11.9589 *     6.0779 *     3.9207 *  0.0000     4          
   287  Cl    c     -7.6445 *   -11.5652 *    -1.9603 *  0.0000     4          
   288  Li    c      2.1572 *    -1.7635 *    13.7224 *  0.0000     4          
   289  Li    c      9.9985 *    -9.6048 *    -1.9603 *  0.0000     4          
   290  Li    c     -3.7238 *   -13.5255 *     0.0000    0.0000     2          
   291  O     c     13.9192 *    -1.7635 *     0.0000    0.0000     2          
   292  Li    c      2.1572 *     2.1572      13.7224 *  0.0000     2          
   293  Li    c      0.1968 *   -13.5255 *     3.9207 *  0.0000     4          
   294  Li    c    -11.5652 *    -1.7635 *     7.8414 *  0.0000     4          
   295  O     c      2.1572 *    13.9192 *     0.0000    0.0000     2          
   296  O     c      6.0779 *     9.9985 *     7.8414 *  0.0000     4          
   297  Li    c      9.9985 *    -1.7635 *     9.8017 *  0.0000     4          
   298  O     c     -9.6048 *    -9.6048       3.9207 *  0.0000     2          
   299  Li    c      4.1175 *   -13.5255 *     0.0000    0.0000     2          
   300  Li    c     -7.6445 *    -1.7635 *    11.7620 *  0.0000     4          
   301  Li    c    -11.5652 *     2.1572 *     7.8414 *  0.0000     4          
   302  O     c      9.9985 *     9.9985       0.0000    0.0000     1          
   303  Li    c      2.1572 *     9.9985 *     9.8017 *  0.0000     4          
   304  Li    c     13.9192 *    -1.7635 *    -1.9603 *  0.0000     4          
   305  O     c     -1.7635 *   -13.5255 *     3.9207 *  0.0000     4          
   306  Li    c     -7.6445 *     2.1572 *    11.7620 *  0.0000     4          
   307  Cl    c      0.1968 *    -3.7238 *    13.7224 *  0.0000     4          
   308  Cl    c      8.0382 *   -11.5652 *    -1.9603 *  0.0000     4          
   309  Li    c      2.1572 *    13.9192 *    -1.9603 *  0.0000     4          
   310  O     c      2.1572 *   -13.5255 *     3.9207 *  0.0000     4          
   311  O     c     -5.6842 *    -5.6842      11.7620 *  0.0000     2          
   312  Li    c      9.9985 *     9.9985      -1.9603 *  0.0000     2          
   313  Cl    c      0.1968 *     4.1175 *    13.7224 *  0.0000     4          
   314  Cl    c     11.9589 *    -7.6445 *    -1.9603 *  0.0000     4          
   315  Li    c      8.0382 *    -1.7635 *    11.7620 *  0.0000     4          
   316  O     c      6.0779 *    -5.6842 *    11.7620 *  0.0000     4          
   317  O     c      9.9985 *    -9.6048 *     3.9207 *  0.0000     4          
   318  Li    c     -3.7238 *    13.9192 *     0.0000    0.0000     2          
   319  Li    c      8.0382 *     2.1572 *    11.7620 *  0.0000     4          
   320  Li    c     11.9589 *    -1.7635 *     7.8414 *  0.0000     4          
   321  Li    c      0.1968 *    13.9192 *     3.9207 *  0.0000     4          
   322  Li    c     11.9589 *     2.1572 *     7.8414 *  0.0000     4          
   323  Li    c      4.1175 *    13.9192 *     0.0000    0.0000     2          
   324  Cl    c      8.0382 *    11.9589 *    -1.9603 *  0.0000     4          
   325  Li    c     -3.7238 *   -13.5255 *     3.9207 *  0.0000     4          
   326  Li    c     -7.6445 *    -9.6048 *     7.8414 *  0.0000     4          
   327  O     c     13.9192 *    -1.7635 *     3.9207 *  0.0000     4          
   328  O     c      6.0779 *     6.0779      11.7620 *  0.0000     2          
   329  Cl    c     -7.6445 *    -7.6445       9.8017 *  0.0000     2          
   330  O     c      2.1572 *    13.9192 *     3.9207 *  0.0000     4          
   331  O     c     -5.6842 *   -13.5255 *     0.0000    0.0000     2          
   332  Li    c      4.1175 *   -13.5255 *     3.9207 *  0.0000     4          
   333  O     c      9.9985 *     9.9985       3.9207 *  0.0000     2          
   334  Cl    c     -3.7238 *    -3.7238      13.7224 *  0.0000     2          
   335  Li    c      8.0382 *    -9.6048 *     7.8414 *  0.0000     4          
   336  Li    c     -5.6842 *   -13.5255 *    -1.9603 *  0.0000     4          
   337  Li    c     -9.6048 *    -9.6048       5.8810 *  0.0000     2          
   338  Cl    c      4.1175 *    -3.7238 *    13.7224 *  0.0000     4          
   339  Cl    c      8.0382 *    -7.6445 *     9.8017 *  0.0000     4          
   340  O     c      6.0779 *   -13.5255 *     0.0000    0.0000     2          
   341  Li    c     -7.6445 *     9.9985 *     7.8414 *  0.0000     4          
   342  Li    c     -1.7635 *   -13.5255 *     5.8810 *  0.0000     4          
   343  Li    c     -5.6842 *    -9.6048 *     9.8017 *  0.0000     4          
   344  Li    c      2.1572 *   -13.5255 *     5.8810 *  0.0000     4          
   345  Cl    c      4.1175 *     4.1175      13.7224 *  0.0000     2          
   346  Li    c     -3.7238 *    13.9192 *     3.9207 *  0.0000     4          
   347  Li    c     -1.7635 *    -5.6842 *    13.7224 *  0.0000     4          
   348  Li    c      6.0779 *   -13.5255 *    -1.9603 *  0.0000     4          
   349  Li    c      2.1572 *    -5.6842 *    13.7224 *  0.0000     4          
   350  Li    c      6.0779 *    -9.6048 *     9.8017 *  0.0000     4          
   351  Cl    c      8.0382 *     8.0382       9.8017 *  0.0000     2          
   352  Li    c    -11.5652 *    -9.6048 *     0.0000    0.0000     2          
   353  O     c     13.9192 *    -5.6842 *     0.0000    0.0000     2          
   354  Li    c      4.1175 *    13.9192 *     3.9207 *  0.0000     4          
   355  Li    c      8.0382 *     9.9985 *     7.8414 *  0.0000     4          
   356  Cl    c     -7.6445 *   -11.5652 *     5.8810 *  0.0000     4          
   357  Li    c      9.9985 *    -9.6048 *     5.8810 *  0.0000     4          
   358  Li    c    -11.5652 *    -5.6842 *     7.8414 *  0.0000     4          
   359  Li    c      6.0779 *    -1.7635 *    13.7224 *  0.0000     4          
   360  Li    c      9.9985 *    -5.6842 *     9.8017 *  0.0000     4          
   361  Li    c     -7.6445 *    -5.6842 *    11.7620 *  0.0000     4          
   362  Cl    c      0.1968 *   -11.5652 *     9.8017 *  0.0000     4          
   363  Li    c      2.1572 *     6.0779 *    13.7224 *  0.0000     4          
   364  Li    c     13.9192 *    -5.6842 *    -1.9603 *  0.0000     4          
   365  O     c     -5.6842 *   -13.5255 *     3.9207 *  0.0000     4          
   366  Li    c      0.1968 *    -9.6048 *    11.7620 *  0.0000     4          
   367  O     c      6.0779 *    13.9192 *     0.0000    0.0000     2          
   368  Li    c     13.9192 *    -1.7635 *     5.8810 *  0.0000     4          
   369  Li    c    -11.5652 *     6.0779 *     7.8414 *  0.0000     4          
   370  Cl    c      8.0382 *   -11.5652 *     5.8810 *  0.0000     4          
   371  Li    c      2.1572 *    13.9192 *     5.8810 *  0.0000     4          
   372  Li    c      6.0779 *     9.9985 *     9.8017 *  0.0000     4          
   373  O     c     -1.7635 *    -9.6048 *    11.7620 *  0.0000     4          
   374  Li    c    -11.5652 *     9.9985 *     0.0000    0.0000     2          
   375  Li    c     -7.6445 *     6.0779 *    11.7620 *  0.0000     4          
   376  Li    c      6.0779 *    13.9192 *    -1.9603 *  0.0000     4          
   377  Li    c      9.9985 *     9.9985       5.8810 *  0.0000     2          
   378  O     c      2.1572 *    -9.6048 *    11.7620 *  0.0000     4          
   379  O     c      6.0779 *   -13.5255 *     3.9207 *  0.0000     4          
   380  Li    c      8.0382 *    -5.6842 *    11.7620 *  0.0000     4          
   381  Li    c     11.9589 *    -9.6048 *     0.0000    0.0000     2          
   382  Cl    c     11.9589 *    -7.6445 *     5.8810 *  0.0000     4          
   383  Li    c     11.9589 *    -5.6842 *     7.8414 *  0.0000     4          
   384  Li    c      0.1968 *     9.9985 *    11.7620 *  0.0000     4          
   385  Cl    c      0.1968 *    11.9589 *     9.8017 *  0.0000     4          
   386  Li    c      8.0382 *     6.0779 *    11.7620 *  0.0000     4          
   387  Li    c    -11.5652 *    -9.6048 *     3.9207 *  0.0000     4          
   388  Li    c     -7.6445 *   -13.5255 *     0.0000    0.0000     2          
   389  O     c     13.9192 *    -5.6842 *     3.9207 *  0.0000     4          
   390  O     c      9.9985 *    -1.7635 *    11.7620 *  0.0000     4          
   391  Li    c     11.9589 *     6.0779 *     7.8414 *  0.0000     4          
   392  Cl    c      8.0382 *    11.9589 *     5.8810 *  0.0000     4          
   393  Li    c    -15.4859 *    -1.7635 *     0.0000    0.0000     2          
   394  O     c      2.1572 *     9.9985 *    11.7620 *  0.0000     4          
   395  Li    c     11.9589 *     9.9985 *     0.0000    0.0000     2          
   396  Cl    c     -3.7238 *   -11.5652 *     9.8017 *  0.0000     4          
   397  Cl    c      0.1968 *   -15.4859 *    -1.9603 *  0.0000     4          
   398  Li    c      0.1968 *   -13.5255 *     7.8414 *  0.0000     4          
   399  Li    c     -3.7238 *    -9.6048 *    11.7620 *  0.0000     4          
   400  Li    c    -15.4859 *     2.1572 *     0.0000    0.0000     2          
   401  O     c     -9.6048 *    -9.6048       7.8414 *  0.0000     2          
   402  O     c      6.0779 *    13.9192 *     3.9207 *  0.0000     4          
   403  Cl    c      0.1968 *    -7.6445 *    13.7224 *  0.0000     4          
   404  Cl    c      4.1175 *   -11.5652 *     9.8017 *  0.0000     4          
   405  O     c     -1.7635 *   -13.5255 *     7.8414 *  0.0000     4          
   406  Li    c      4.1175 *    -9.6048 *    11.7620 *  0.0000     4          
   407  Li    c      8.0382 *   -13.5255 *     0.0000    0.0000     2          
   408  O     c      2.1572 *   -13.5255 *     7.8414 *  0.0000     4          
   409  Li    c    -11.5652 *     9.9985 *     3.9207 *  0.0000     4          
   410  Li    c      0.1968 *    -1.7635 *    15.6827 *  0.0000     4          
   411  Li    c     -5.6842 *   -13.5255 *     5.8810 *  0.0000     4          
   412  Li    c     11.9589 *    -9.6048 *     3.9207 *  0.0000     4          
   413  Li    c      0.1968 *     2.1572 *    15.6827 *  0.0000     4          
   414  O     c     -1.7635 *    -1.7635      15.6827 *  0.0000     2          
   415  Li    c     -7.6445 *    13.9192 *     0.0000    0.0000     2          
   416  Li    c     -3.7238 *     9.9985 *    11.7620 *  0.0000     4          
   417  Li    c     -5.6842 *    -5.6842      13.7224 *  0.0000     2          
   418  Cl    c      0.1968 *     8.0382 *    13.7224 *  0.0000     4          
   419  Cl    c     11.9589 *    -3.7238 *     9.8017 *  0.0000     4          
   420  O     c      2.1572 *    -1.7635 *    15.6827 *  0.0000     4          
   421  O     c      9.9985 *    -9.6048 *     7.8414 *  0.0000     4          
   422  Li    c      6.0779 *   -13.5255 *     5.8810 *  0.0000     4          
   423  O     c      2.1572 *     2.1572      15.6827 *  0.0000     2          
   424  Li    c      0.1968 *    13.9192 *     7.8414 *  0.0000     4          
   425  Li    c     15.8795 *    -1.7635 *     0.0000    0.0000     2          
   426  Li    c      4.1175 *     9.9985 *    11.7620 *  0.0000     4          
   427  Cl    c      0.1968 *    15.8795 *    -1.9603 *  0.0000     4          
   428  Cl    c      4.1175 *    11.9589 *     9.8017 *  0.0000     4          
   429  Li    c     -7.6445 *   -13.5255 *     3.9207 *  0.0000     4          
   430  Li    c     15.8795 *     2.1572 *     0.0000    0.0000     2          
   431  Cl    c     -3.7238 *   -15.4859 *    -1.9603 *  0.0000     4          
   432  Li    c      6.0779 *    -5.6842 *    13.7224 *  0.0000     4          
   433  Li    c     -3.7238 *   -13.5255 *     7.8414 *  0.0000     4          
   434  Li    c    -15.4859 *    -1.7635 *     3.9207 *  0.0000     4          
   435  O     c     13.9192 *    -1.7635 *     7.8414 *  0.0000     4          
   436  Li    c      8.0382 *    13.9192 *     0.0000    0.0000     2          
   437  Li    c     11.9589 *     9.9985 *     3.9207 *  0.0000     4          
   438  Li    c    -15.4859 *     2.1572 *     3.9207 *  0.0000     4          
   439  O     c      2.1572 *    13.9192 *     7.8414 *  0.0000     4          
   440  Cl    c     -3.7238 *    -7.6445 *    13.7224 *  0.0000     4          
   441  Cl    c      4.1175 *   -15.4859 *    -1.9603 *  0.0000     4          
   442  Li    c     13.9192 *    -5.6842 *     5.8810 *  0.0000     4          
   443  Li    c      4.1175 *   -13.5255 *     7.8414 *  0.0000     4          
   444  O     c      9.9985 *     9.9985       7.8414 *  0.0000     2          
   445  Li    c      6.0779 *     6.0779      13.7224 *  0.0000     2          
   446  O     c     -5.6842 *    -9.6048 *    11.7620 *  0.0000     4          
   447  Li    c      8.0382 *   -13.5255 *     3.9207 *  0.0000     4          
   448  Li    c     -3.7238 *    -1.7635 *    15.6827 *  0.0000     4          
   449  Cl    c      4.1175 *    -7.6445 *    13.7224 *  0.0000     4          
   450  Li    c     -3.7238 *     2.1572 *    15.6827 *  0.0000     4          
   451  Li    c      6.0779 *    13.9192 *     5.8810 *  0.0000     4          
   452  Li    c      4.1175 *    -1.7635 *    15.6827 *  0.0000     4          
   453  Cl    c      8.0382 *    -3.7238 *    13.7224 *  0.0000     4          
   454  O     c      6.0779 *    -9.6048 *    11.7620 *  0.0000     4          
   455  Li    c     -7.6445 *    13.9192 *     3.9207 *  0.0000     4          
   456  Li    c      4.1175 *     2.1572 *    15.6827 *  0.0000     4          
   457  Li    c     -3.7238 *    13.9192 *     7.8414 *  0.0000     4          
   458  Cl    c      4.1175 *     8.0382 *    13.7224 *  0.0000     4          
   459  Cl    c     15.8795 *    -3.7238 *    -1.9603 *  0.0000     4          
   460  O     c      9.9985 *    -5.6842 *    11.7620 *  0.0000     4          
   461  Li    c     15.8795 *    -1.7635 *     3.9207 *  0.0000     4          
   462  Cl    c    -11.5652 *   -11.5652      -1.9603 *  0.0000     2          
   463  Li    c    -15.4859 *    -5.6842 *     0.0000    0.0000     2          
   464  Li    c     15.8795 *     2.1572 *     3.9207 *  0.0000     4          
   465  Li    c      4.1175 *    13.9192 *     7.8414 *  0.0000     4          
   466  Cl    c      4.1175 *    15.8795 *    -1.9603 *  0.0000     4          
   467  Li    c      8.0382 *    13.9192 *     3.9207 *  0.0000     4          
   468  Cl    c      0.1968 *   -15.4859 *     5.8810 *  0.0000     4          
   469  O     c     -9.6048 *   -13.5255 *     0.0000    0.0000     2          
   470  Li    c    -11.5652 *    -1.7635 *    11.7620 *  0.0000     4          
   471  O     c      6.0779 *     9.9985 *    11.7620 *  0.0000     4          
   472  O     c     -5.6842 *   -13.5255 *     7.8414 *  0.0000     4          
   473  Li    c    -11.5652 *     2.1572 *    11.7620 *  0.0000     4          
   474  Li    c    -15.4859 *     6.0779 *     0.0000    0.0000     2          
   475  Li    c      0.1968 *    -5.6842 *    15.6827 *  0.0000     4          
   476  Li    c     -9.6048 *   -13.5255 *    -1.9603 *  0.0000     4          
   477  Li    c     -9.6048 *    -9.6048       9.8017 *  0.0000     2          
   478  Cl    c     11.9589 *   -11.5652 *    -1.9603 *  0.0000     4          
   479  O     c      6.0779 *   -13.5255 *     7.8414 *  0.0000     4          
   480  O     c     -1.7635 *    -5.6842 *    15.6827 *  0.0000     4          
   481  Li    c     -1.7635 *   -13.5255 *     9.8017 *  0.0000     4          
   482  O     c      2.1572 *    -5.6842 *    15.6827 *  0.0000     4          
   483  O     c      9.9985 *   -13.5255 *     0.0000    0.0000     2          
   484  Li    c      0.1968 *     6.0779 *    15.6827 *  0.0000     4          
   485  Li    c      2.1572 *   -13.5255 *     9.8017 *  0.0000     4          
   486  Li    c     -1.7635 *    -9.6048 *    13.7224 *  0.0000     4          
   487  Li    c     15.8795 *    -5.6842 *     0.0000    0.0000     2          
   488  Li    c     11.9589 *    -1.7635 *    11.7620 *  0.0000     4          
   489  Li    c      2.1572 *    -9.6048 *    13.7224 *  0.0000     4          
   490  O     c     13.9192 *    -9.6048 *     0.0000    0.0000     2          
   491  O     c      6.0779 *    -1.7635 *    15.6827 *  0.0000     4          
   492  Li    c     11.9589 *     2.1572 *    11.7620 *  0.0000     4          
   493  Li    c      9.9985 *   -13.5255 *    -1.9603 *  0.0000     4          
   494  Cl    c      0.1968 *    15.8795 *     5.8810 *  0.0000     4          
   495  Li    c    -11.5652 *    -9.6048 *     7.8414 *  0.0000     4          
   496  Li    c    -15.4859 *    -5.6842 *     3.9207 *  0.0000     4          
   497  O     c      2.1572 *     6.0779 *    15.6827 *  0.0000     4          
   498  O     c     13.9192 *    -5.6842 *     7.8414 *  0.0000     4          
   499  Cl    c     -7.6445 *   -11.5652 *     9.8017 *  0.0000     4          
   500  Cl    c     -3.7238 *   -15.4859 *     5.8810 *  0.0000     4          
   501  Li    c      9.9985 *    -9.6048 *     9.8017 *  0.0000     4          
   502  Li    c     -7.6445 *    -9.6048 *    11.7620 *  0.0000     4          
   503  Li    c     15.8795 *     6.0779 *     0.0000    0.0000     2          
   504  Li    c     13.9192 *    -9.6048 *    -1.9603 *  0.0000     4          
   505  Cl    c     11.9589 *    11.9589      -1.9603 *  0.0000     2          
   506  O     c     -9.6048 *   -13.5255 *     3.9207 *  0.0000     4          
   507  Cl    c      4.1175 *   -15.4859 *     5.8810 *  0.0000     4          
   508  Li    c      9.9985 *    -1.7635 *    13.7224 *  0.0000     4          
   509  Li    c    -15.4859 *     6.0779 *     3.9207 *  0.0000     4          
   510  Li    c     -3.7238 *    -5.6842 *    15.6827 *  0.0000     4          
   511  O     c      6.0779 *    13.9192 *     7.8414 *  0.0000     4          
   512  Li    c      2.1572 *     9.9985 *    13.7224 *  0.0000     4          
   513  Li    c     13.9192 *    -1.7635 *     9.8017 *  0.0000     4          
   514  O     c      9.9985 *    13.9192 *     0.0000    0.0000     2          
   515  Cl    c      8.0382 *   -11.5652 *     9.8017 *  0.0000     4          
   516  Li    c      2.1572 *    13.9192 *     9.8017 *  0.0000     4          
   517  Li    c      4.1175 *    -5.6842 *    15.6827 *  0.0000     4          
   518  Li    c      8.0382 *    -9.6048 *    11.7620 *  0.0000     4          
   519  Li    c    -11.5652 *     9.9985 *     7.8414 *  0.0000     4          
   520  Li    c      9.9985 *     9.9985       9.8017 *  0.0000     2          
   521  Li    c     11.9589 *    -9.6048 *     7.8414 *  0.0000     4          
   522  Li    c     -3.7238 *     6.0779 *    15.6827 *  0.0000     4          
   523  Li    c     -7.6445 *     9.9985 *    11.7620 *  0.0000     4          
   524  Cl    c     11.9589 *    -7.6445 *     9.8017 *  0.0000     4          
   525  Li    c      9.9985 *    13.9192 *    -1.9603 *  0.0000     4          
   526  O     c      9.9985 *   -13.5255 *     3.9207 *  0.0000     4          
   527  Li    c     15.8795 *    -5.6842 *     3.9207 *  0.0000     4          
   528  Li    c      4.1175 *     6.0779 *    15.6827 *  0.0000     4          
   529  Cl    c     15.8795 *    -3.7238 *     5.8810 *  0.0000     4          
   530  O     c     13.9192 *    -9.6048 *     3.9207 *  0.0000     4          
   531  Cl    c     -7.6445 *   -15.4859 *    -1.9603 *  0.0000     4          
   532  Cl    c    -11.5652 *   -11.5652       5.8810 *  0.0000     2          
   533  Li    c     -7.6445 *   -13.5255 *     7.8414 *  0.0000     4          
   534  Li    c      8.0382 *     9.9985 *    11.7620 *  0.0000     4          
   535  Cl    c      4.1175 *    15.8795 *     5.8810 *  0.0000     4          
   536  Cl    c      8.0382 *    11.9589 *     9.8017 *  0.0000     4          
   537  Li    c      0.1968 *   -17.4462 *     0.0000    0.0000     2          
   538  Li    c    -11.5652 *    -5.6842 *    11.7620 *  0.0000     4          
   539  Li    c    -15.4859 *    -1.7635 *     7.8414 *  0.0000     4          
   540  Li    c     11.9589 *     9.9985 *     7.8414 *  0.0000     4          
   541  Li    c     15.8795 *     6.0779 *     3.9207 *  0.0000     4          
   542  Cl    c     -7.6445 *    -7.6445      13.7224 *  0.0000     2          
   543  Li    c    -15.4859 *     2.1572 *     7.8414 *  0.0000     4          
   544  O     c     -1.7635 *   -17.4462 *     0.0000    0.0000     2          
   545  Li    c     -7.6445 *    -1.7635 *    15.6827 *  0.0000     4          
   546  Cl    c      8.0382 *   -15.4859 *    -1.9603 *  0.0000     4          
   547  O     c      2.1572 *   -17.4462 *     0.0000    0.0000     2          
   548  Li    c      8.0382 *   -13.5255 *     7.8414 *  0.0000     4          
   549  Li    c     -7.6445 *     2.1572 *    15.6827 *  0.0000     4          
   550  Li    c    -11.5652 *     6.0779 *    11.7620 *  0.0000     4          
   551  O     c      9.9985 *    13.9192 *     3.9207 *  0.0000     4          
   552  Li    c     -9.6048 *   -13.5255 *     5.8810 *  0.0000     4          
   553  O     c     -5.6842 *    -5.6842      15.6827 *  0.0000     2          
   554  Li    c     -1.7635 *   -17.4462 *    -1.9603 *  0.0000     4          
   555  Li    c     -5.6842 *   -13.5255 *     9.8017 *  0.0000     4          
   556  Cl    c      0.1968 *     0.1968      17.6430 *  0.0000     2          
   557  Cl    c      8.0382 *    -7.6445 *    13.7224 *  0.0000     4          
   558  Cl    c     11.9589 *   -11.5652 *     5.8810 *  0.0000     4          
   559  Li    c      2.1572 *   -17.4462 *    -1.9603 *  0.0000     4          
   560  Li    c     -5.6842 *    -9.6048 *    13.7224 *  0.0000     4          
   561  Li    c     -7.6445 *    13.9192 *     7.8414 *  0.0000     4          
   562  Li    c      8.0382 *    -1.7635 *    15.6827 *  0.0000     4          
   563  Li    c     11.9589 *    -5.6842 *    11.7620 *  0.0000     4          
   564  Cl    c     15.8795 *    -7.6445 *    -1.9603 *  0.0000     4          
   565  O     c      6.0779 *    -5.6842 *    15.6827 *  0.0000     4          
   566  Li    c      8.0382 *     2.1572 *    15.6827 *  0.0000     4          
   567  Li    c      6.0779 *   -13.5255 *     9.8017 *  0.0000     4          
   568  Li    c    -11.5652 *   -13.5255 *     0.0000    0.0000     2          
   569  Li    c     15.8795 *    -1.7635 *     7.8414 *  0.0000     4          
   570  Li    c      6.0779 *    -9.6048 *    13.7224 *  0.0000     4          
   571  Li    c      9.9985 *   -13.5255 *     5.8810 *  0.0000     4          
   572  Li    c     -1.7635 *    -1.7635      17.6430 *  0.0000     2          
   573  Cl    c      8.0382 *     8.0382      13.7224 *  0.0000     2          
   574  Li    c     -3.7238 *   -17.4462 *     0.0000    0.0000     2          
   575  Li    c      0.1968 *    17.8399 *     0.0000    0.0000     2          
   576  Li    c     11.9589 *     6.0779 *    11.7620 *  0.0000     4          
   577  Li    c     15.8795 *     2.1572 *     7.8414 *  0.0000     4          
   578  Li    c      2.1572 *    -1.7635 *    17.6430 *  0.0000     4          
   579  Li    c      0.1968 *   -17.4462 *     3.9207 *  0.0000     4          
   580  O     c      6.0779 *     6.0779      15.6827 *  0.0000     2          
   581  Li    c      8.0382 *    13.9192 *     7.8414 *  0.0000     4          
   582  Li    c     13.9192 *    -9.6048 *     5.8810 *  0.0000     4          
   583  Li    c      2.1572 *     2.1572      17.6430 *  0.0000     2          
   584  Li    c      9.9985 *    -5.6842 *    13.7224 *  0.0000     4          
   585  Cl    c      8.0382 *    15.8795 *    -1.9603 *  0.0000     4          
   586  Cl    c     11.9589 *    11.9589       5.8810 *  0.0000     2          
   587  Li    c      4.1175 *   -17.4462 *     0.0000    0.0000     2          
   588  Li    c      0.1968 *   -13.5255 *    11.7620 *  0.0000     4          
   589  O     c     17.8399 *    -1.7635 *     0.0000    0.0000     2          
   590  Cl    c      0.1968 *   -11.5652 *    13.7224 *  0.0000     4          
   591  Li    c     13.9192 *    -5.6842 *     9.8017 *  0.0000     4          
   592  O     c     -1.7635 *   -17.4462 *     3.9207 *  0.0000     4          
   593  O     c     -9.6048 *    -9.6048      11.7620 *  0.0000     2          
   594  O     c      2.1572 *    17.8399 *     0.0000    0.0000     2          
   595  O     c      2.1572 *   -17.4462 *     3.9207 *  0.0000     4          
   596  O     c     -1.7635 *   -13.5255 *    11.7620 *  0.0000     4          
   597  Cl    c      0.1968 *    -3.7238 *    17.6430 *  0.0000     4          
   598  Li    c      6.0779 *     9.9985 *    13.7224 *  0.0000     4          
   599  Li    c     17.8399 *    -1.7635 *    -1.9603 *  0.0000     4          
   600  O     c      2.1572 *   -13.5255 *    11.7620 *  0.0000     4          
   601  Li    c     11.9589 *   -13.5255 *     0.0000    0.0000     2          
   602  Li    c      2.1572 *    17.8399 *    -1.9603 *  0.0000     4          
   603  Li    c      6.0779 *    13.9192 *     9.8017 *  0.0000     4          
   604  Li    c    -11.5652 *    13.9192 *     0.0000    0.0000     2          
   605  Cl    c      0.1968 *     4.1175 *    17.6430 *  0.0000     4          
   606  Li    c      9.9985 *    13.9192 *     5.8810 *  0.0000     4          
   607  O     c      9.9985 *    -9.6048 *    11.7620 *  0.0000     4          
   608  Cl    c      0.1968 *    11.9589 *    13.7224 *  0.0000     4          
   609  Li    c    -11.5652 *   -13.5255 *     3.9207 *  0.0000     4          
   610  Li    c    -15.4859 *    -9.6048 *     0.0000    0.0000     2          
   611  Li    c     -3.7238 *    17.8399 *     0.0000    0.0000     2          
   612  Li    c      0.1968 *    13.9192 *    11.7620 *  0.0000     4          
   613  Cl    c     -7.6445 *   -15.4859 *     5.8810 *  0.0000     4          
   614  Li    c     -3.7238 *   -17.4462 *     3.9207 *  0.0000     4          
   615  Li    c    -15.4859 *    -5.6842 *     7.8414 *  0.0000     4          
   616  Li    c      0.1968 *    17.8399 *     3.9207 *  0.0000     4          
   617  Li    c     -3.7238 *   -13.5255 *    11.7620 *  0.0000     4          
   618  O     c     13.9192 *    -1.7635 *    11.7620 *  0.0000     4          
   619  Li    c      4.1175 *    17.8399 *     0.0000    0.0000     2          
   620  Cl    c     -3.7238 *   -11.5652 *    13.7224 *  0.0000     4          
   621  Cl    c      0.1968 *   -15.4859 *     9.8017 *  0.0000     4          
   622  O     c     -5.6842 *   -17.4462 *     0.0000    0.0000     2          
   623  O     c     -9.6048 *   -13.5255 *     7.8414 *  0.0000     4          
   624  Li    c      4.1175 *   -17.4462 *     3.9207 *  0.0000     4          
   625  Li    c     -7.6445 *    -5.6842 *    15.6827 *  0.0000     4          
   626  O     c     17.8399 *    -1.7635 *     3.9207 *  0.0000     4          
   627  O     c      2.1572 *    13.9192 *    11.7620 *  0.0000     4          
   628  Li    c     11.9589 *    13.9192 *     0.0000    0.0000     2          
   629  Li    c      0.1968 *    -9.6048 *    15.6827 *  0.0000     4          
   630  Li    c      4.1175 *   -13.5255 *    11.7620 *  0.0000     4          
   631  Li    c    -15.4859 *     6.0779 *     7.8414 *  0.0000     4          
   632  O     c      2.1572 *    17.8399 *     3.9207 *  0.0000     4          
   633  O     c      9.9985 *     9.9985      11.7620 *  0.0000     2          
   634  Cl    c      4.1175 *   -11.5652 *    13.7224 *  0.0000     4          
   635  Cl    c      8.0382 *   -15.4859 *     5.8810 *  0.0000     4          
   636  Cl    c     -3.7238 *    -3.7238      17.6430 *  0.0000     2          
   637  Li    c    -15.4859 *     9.9985 *     0.0000    0.0000     2          
   638  Li    c     -5.6842 *   -17.4462 *    -1.9603 *  0.0000     4          
   639  O     c      6.0779 *   -17.4462 *     0.0000    0.0000     2          
   640  O     c     -1.7635 *    -9.6048 *    15.6827 *  0.0000     4          
   641  Li    c     11.9589 *   -13.5255 *     3.9207 *  0.0000     4          
   642  Li    c     -7.6445 *     6.0779 *    15.6827 *  0.0000     4          
   643  Li    c     -1.7635 *   -17.4462 *     5.8810 *  0.0000     4          
   644  Cl    c      4.1175 *    -3.7238 *    17.6430 *  0.0000     4          
   645  O     c      2.1572 *    -9.6048 *    15.6827 *  0.0000     4          
   646  Li    c    -11.5652 *    13.9192 *     3.9207 *  0.0000     4          
   647  Li    c      8.0382 *    -5.6842 *    15.6827 *  0.0000     4          
   648  Li    c      2.1572 *   -17.4462 *     5.8810 *  0.0000     4          
   649  O     c      9.9985 *   -13.5255 *     7.8414 *  0.0000     4          
   650  Li    c     15.8795 *    -9.6048 *     0.0000    0.0000     2          
   651  Li    c      6.0779 *   -17.4462 *    -1.9603 *  0.0000     4          
   652  Cl    c      4.1175 *     4.1175      17.6430 *  0.0000     2          
   653  Cl    c     11.9589 *    -3.7238 *    13.7224 *  0.0000     4          
   654  Cl    c     15.8795 *    -7.6445 *     5.8810 *  0.0000     4          
   655  Li    c     -3.7238 *    13.9192 *    11.7620 *  0.0000     4          
   656  Li    c      0.1968 *     9.9985 *    15.6827 *  0.0000     4          
   657  Li    c     15.8795 *    -5.6842 *     7.8414 *  0.0000     4          
   658  Li    c     -1.7635 *    -5.6842 *    17.6430 *  0.0000     4          
   659  Li    c    -15.4859 *    -9.6048 *     3.9207 *  0.0000     4          
   660  O     c     13.9192 *    -9.6048 *     7.8414 *  0.0000     4          
   661  Li    c     -3.7238 *    17.8399 *     3.9207 *  0.0000     4          
   662  Li    c      8.0382 *     6.0779 *    15.6827 *  0.0000     4          
   663  Li    c      2.1572 *    -5.6842 *    17.6430 *  0.0000     4          
   664  Cl    c      0.1968 *    15.8795 *     9.8017 *  0.0000     4          
   665  Cl    c      4.1175 *    11.9589 *    13.7224 *  0.0000     4          
   666  O     c      9.9985 *    -1.7635 *    15.6827 *  0.0000     4          
   667  Li    c      4.1175 *    13.9192 *    11.7620 *  0.0000     4          
   668  Cl    c     -3.7238 *   -15.4859 *     9.8017 *  0.0000     4          
   669  O     c     17.8399 *    -5.6842 *     0.0000    0.0000     2          
   670  O     c      2.1572 *     9.9985 *    15.6827 *  0.0000     4          
   671  Li    c      4.1175 *    17.8399 *     3.9207 *  0.0000     4          
   672  Li    c     15.8795 *     6.0779 *     7.8414 *  0.0000     4          
   673  Li    c      6.0779 *    -1.7635 *    17.6430 *  0.0000     4          
   674  Cl    c      8.0382 *    15.8795 *     5.8810 *  0.0000     4          
   675  O     c     -5.6842 *   -17.4462 *     3.9207 *  0.0000     4          
   676  Li    c     -3.7238 *    -9.6048 *    15.6827 *  0.0000     4          
   677  Li    c     11.9589 *    13.9192 *     3.9207 *  0.0000     4          
   678  Li    c     15.8795 *     9.9985 *     0.0000    0.0000     2          
   679  Cl    c      4.1175 *   -15.4859 *     9.8017 *  0.0000     4          
   680  Li    c      2.1572 *     6.0779 *    17.6430 *  0.0000     4          
   681  O     c     -5.6842 *   -13.5255 *    11.7620 *  0.0000     4          
   682  Li    c     17.8399 *    -5.6842 *    -1.9603 *  0.0000     4          
   683  Li    c      4.1175 *    -9.6048 *    15.6827 *  0.0000     4          
   684  Li    c    -15.4859 *     9.9985 *     3.9207 *  0.0000     4          
   685  O     c      6.0779 *    17.8399 *     0.0000    0.0000     2          
   686  O     c      9.9985 *    13.9192 *     7.8414 *  0.0000     4          
   687  Li    c     17.8399 *    -1.7635 *     5.8810 *  0.0000     4          
   688  O     c      6.0779 *   -17.4462 *     3.9207 *  0.0000     4          
   689  Li    c      2.1572 *    17.8399 *     5.8810 *  0.0000     4          
   690  O     c      6.0779 *   -13.5255 *    11.7620 *  0.0000     4          
   691  Li    c      6.0779 *    17.8399 *    -1.9603 *  0.0000     4          
   692  Li    c     15.8795 *    -9.6048 *     3.9207 *  0.0000     4          
   693  Li    c     -3.7238 *     9.9985 *    15.6827 *  0.0000     4          
   694  Cl    c     15.8795 *    -3.7238 *     9.8017 *  0.0000     4          
   695  Li    c     -7.6445 *   -17.4462 *     0.0000    0.0000     2          
   696  Li    c      4.1175 *     9.9985 *    15.6827 *  0.0000     4          
   697  Cl    c    -11.5652 *   -11.5652       9.8017 *  0.0000     2          
   698  Li    c    -11.5652 *    -9.6048 *    11.7620 *  0.0000     4          
   699  O     c     13.9192 *    -5.6842 *    11.7620 *  0.0000     4          
[...]
   1057 y          0.000000     -0.000341    -0.000341    Cartesian    0.00
   1057 z         11.762026     11.764260     0.002233    Cartesian    0.02
   1058 x         -1.960338     -1.960975    -0.000637    Cartesian    0.03
   1058 y         -9.801689     -9.800322     0.001366    Cartesian   -0.01
   1058 z         13.722364     13.718341    -0.004024    Cartesian   -0.03
   1059 x          1.960338      1.960129    -0.000209    Cartesian   -0.01
   1059 y        -13.722364    -13.717959     0.004406    Cartesian   -0.03
   1059 z          9.801689      9.798831    -0.002858    Cartesian   -0.03
   1060 x         -3.920675     -3.921296    -0.000620    Cartesian    0.02
   1060 y        -15.682702    -15.680483     0.002219    Cartesian   -0.01
   1060 z          0.000000      0.000000     0.000000    Cartesian    0.00
   1061 x         -7.841351     -7.842358    -0.001007    Cartesian    0.01
   1061 y        -11.762026    -11.762186    -0.000160    Cartesian    0.00
   1061 z          7.841351      7.840677    -0.000674    Cartesian   -0.01
   1062 x         19.603377     19.602489    -0.000888    Cartesian   -0.00
   1062 y          0.000000     -0.000519    -0.000519    Cartesian    0.00
   1062 z          3.920675      3.920853     0.000177    Cartesian    0.00
   1063 x          3.920675      3.921177     0.000502    Cartesian    0.01
   1063 y         15.682702     15.686999     0.004297    Cartesian    0.03
   1063 z         11.762026     11.764832     0.002805    Cartesian    0.02
   1064 x          3.920675      3.921505     0.000830    Cartesian    0.02
   1064 y         19.603377     19.602579    -0.000799    Cartesian   -0.00
   1064 z          3.920675      3.920977     0.000301    Cartesian    0.01
   1065 x         11.762026     11.765672     0.003646    Cartesian    0.03
   1065 y         11.762026     11.765672     0.003646    Cartesian    0.03
   1065 z         11.762026     11.764020     0.001994    Cartesian    0.02
   1066 x          5.881013      5.880845    -0.000168    Cartesian   -0.00
   1066 y         -9.801689     -9.801167     0.000522    Cartesian   -0.01
   1066 z         13.722364     13.718833    -0.003531    Cartesian   -0.03
   1067 x          9.801689      9.799863    -0.001826    Cartesian   -0.02
   1067 y        -13.722364    -13.717407     0.004957    Cartesian   -0.04
   1067 z          5.881013      5.879721    -0.001292    Cartesian   -0.02
   1068 x         -1.960338     -1.960482    -0.000145    Cartesian    0.01
   1068 y         -1.960338     -1.960482    -0.000145    Cartesian    0.01
   1068 z         17.643040     17.638170    -0.004870    Cartesian   -0.03
   1069 x          7.841351      7.842899     0.001548    Cartesian    0.02
   1069 y        -15.682702    -15.681522     0.001180    Cartesian   -0.01
   1069 z          0.000000      0.000000     0.000000    Cartesian    0.00
   1070 x          0.000000     -0.000460    -0.000460    Cartesian    0.00
   1070 y         -7.841351     -7.843798    -0.002447    Cartesian    0.03
   1070 z         15.682702     15.683183     0.000481    Cartesian    0.00
   1071 x          5.881013      5.881279     0.000266    Cartesian    0.00
   1071 y         -1.960338     -1.960432    -0.000094    Cartesian    0.00
   1071 z         17.643040     17.638514    -0.004525    Cartesian   -0.03
   1072 x          3.920675      3.920619    -0.000056    Cartesian   -0.00
   1072 y         -7.841351     -7.844110    -0.002759    Cartesian    0.04
   1072 z         15.682702     15.683515     0.000813    Cartesian    0.01
   1073 x         11.762026     11.762543     0.000517    Cartesian    0.00
   1073 y        -11.762026    -11.762460    -0.000434    Cartesian    0.00
   1073 z          7.841351      7.841294    -0.000057    Cartesian   -0.00
   1074 x          5.881013      5.881625     0.000611    Cartesian    0.01
   1074 y          5.881013      5.881625     0.000611    Cartesian    0.01
   1074 z         17.643040     17.638577    -0.004463    Cartesian   -0.03
   1075 x         13.722364     13.723001     0.000637    Cartesian    0.00
   1075 y         -1.960338     -1.960508    -0.000170    Cartesian    0.01
   1075 z         13.722364     13.719467    -0.002897    Cartesian   -0.02
   1076 x         17.643040     17.638459    -0.004581    Cartesian   -0.03
   1076 y         -5.881013     -5.878665     0.002349    Cartesian   -0.04
   1076 z          5.881013      5.879358    -0.001656    Cartesian   -0.03
   1077 x         15.682702     15.683428     0.000726    Cartesian    0.00
   1077 y         -7.841351     -7.841600    -0.000249    Cartesian    0.00
   1077 z          7.841351      7.841104    -0.000247    Cartesian   -0.00
   1078 x          1.960338      1.960926     0.000589    Cartesian    0.03
   1078 y         17.643040     17.639513    -0.003527    Cartesian   -0.02
   1078 z          9.801689      9.798903    -0.002786    Cartesian   -0.03
   1079 x          5.881013      5.882250     0.001236    Cartesian    0.02
   1079 y         13.722364     13.723409     0.001045    Cartesian    0.01
   1079 z         13.722364     13.719402    -0.002962    Cartesian   -0.02
   1080 x         11.762026     11.765580     0.003554    Cartesian    0.03
   1080 y          0.000000     -0.000282    -0.000282    Cartesian    0.00
   1080 z         15.682702     15.684253     0.001551    Cartesian    0.01
   1081 x         -1.960338     -1.959149     0.001188    Cartesian   -0.06
   1081 y        -13.722364    -13.716813     0.005551    Cartesian   -0.04
   1081 z          9.801689      9.798789    -0.002899    Cartesian   -0.03
   1082 x         19.603377     19.602667    -0.000711    Cartesian   -0.00
   1082 y         -3.920675     -3.920953    -0.000278    Cartesian    0.01
   1082 z          0.000000      0.000000     0.000000    Cartesian    0.00
   1083 x          3.920675      3.921120     0.000444    Cartesian    0.01
   1083 y         11.762026     11.765638     0.003612    Cartesian    0.03
   1083 z         15.682702     15.684423     0.001721    Cartesian    0.01
   1084 x          9.801689      9.800674    -0.001014    Cartesian   -0.01
   1084 y         17.643040     17.638341    -0.004699    Cartesian   -0.03
   1084 z          5.881013      5.879333    -0.001680    Cartesian   -0.03
   1085 x         -3.920675     -3.920570     0.000105    Cartesian   -0.00
   1085 y        -15.682702    -15.681518     0.001184    Cartesian   -0.01
   1085 z          3.920675      3.920660    -0.000015    Cartesian   -0.00
   1086 x          5.881013      5.879722    -0.001291    Cartesian   -0.02
   1086 y        -13.722364    -13.717141     0.005223    Cartesian   -0.04
   1086 z          9.801689      9.798120    -0.003569    Cartesian   -0.04
   1087 x         -3.920675     -3.920301     0.000375    Cartesian   -0.01
   1087 y        -11.762026    -11.760682     0.001344    Cartesian   -0.01
   1087 z         11.762026     11.760324    -0.001702    Cartesian   -0.01
   1088 x          7.841351      7.841989     0.000638    Cartesian    0.01
   1088 y         19.603377     19.602941    -0.000437    Cartesian   -0.00
   1088 z          0.000000      0.000000     0.000000    Cartesian    0.00
   1089 x         11.762026     11.762763     0.000737    Cartesian    0.01
   1089 y         15.682702     15.683487     0.000785    Cartesian    0.01
   1089 z          7.841351      7.841008    -0.000343    Cartesian   -0.00
   1090 x          7.841351      7.841939     0.000588    Cartesian    0.01
   1090 y        -15.682702    -15.682219     0.000483    Cartesian   -0.00
   1090 z          3.920675      3.921088     0.000413    Cartesian    0.01
   1091 x          7.841351      7.841085    -0.000266    Cartesian   -0.00
   1091 y        -11.762026    -11.761481     0.000545    Cartesian   -0.00
   1091 z         11.762026     11.760422    -0.001605    Cartesian   -0.01
   1092 x         17.643040     17.638408    -0.004632    Cartesian   -0.03
   1092 y         -1.960338     -1.958955     0.001382    Cartesian   -0.07
   1092 z          9.801689      9.798070    -0.003618    Cartesian   -0.04
   1093 x         -9.801689     -9.797005     0.004684    Cartesian   -0.05
   1093 y         -9.801689     -9.797005     0.004684    Cartesian   -0.05
   1093 z          9.801689      9.796671    -0.005018    Cartesian   -0.05
   1094 x         15.682702     15.682671    -0.000031    Cartesian   -0.00
   1094 y         -3.920675     -3.920535     0.000141    Cartesian   -0.00
   1094 z         11.762026     11.760493    -0.001534    Cartesian   -0.01
   1095 x          5.881013      5.880805    -0.000208    Cartesian   -0.00
   1095 y         17.643040     17.638392    -0.004647    Cartesian   -0.03
   1095 z          9.801689      9.798162    -0.003527    Cartesian   -0.04
   1096 x        -11.762026    -11.759463     0.002564    Cartesian   -0.02
   1096 y        -11.762026    -11.759463     0.002564    Cartesian   -0.02
   1096 z          0.000000      0.000000     0.000000    Cartesian    0.00
   1097 x         19.603377     19.602790    -0.000587    Cartesian   -0.00
   1097 y         -3.920675     -3.920904    -0.000229    Cartesian    0.01
   1097 z          3.920675      3.920613    -0.000063    Cartesian   -0.00
   1098 x          0.000000      0.000286     0.000286    Cartesian    0.00
   1098 y        -15.682702    -15.679913     0.002789    Cartesian   -0.02
   1098 z          7.841351      7.839602    -0.001749    Cartesian   -0.02
   1099 x          7.841351      7.841646     0.000295    Cartesian    0.00
   1099 y         15.682702     15.682735     0.000033    Cartesian    0.00
   1099 z         11.762026     11.760640    -0.001386    Cartesian   -0.01
   1100 x          1.960338      1.960155    -0.000183    Cartesian   -0.01
   1100 y         -5.881013     -5.879281     0.001733    Cartesian   -0.03
   1100 z         17.643040     17.635475    -0.007565    Cartesian   -0.04
   1101 x          3.920675      3.920632    -0.000044    Cartesian   -0.00
   1101 y        -15.682702    -15.680314     0.002388    Cartesian   -0.02
   1101 z          7.841351      7.839853    -0.001498    Cartesian   -0.02
   1102 x         -3.920675     -3.921037    -0.000361    Cartesian    0.01
   1102 y         -7.841351     -7.840871     0.000480    Cartesian   -0.01
   1102 z         15.682702     15.681151    -0.001551    Cartesian   -0.01
   1103 x          7.841351      7.841895     0.000544    Cartesian    0.01
   1103 y         19.603377     19.603041    -0.000337    Cartesian   -0.00
   1103 z          3.920675      3.920676     0.000001    Cartesian    0.00
   1104 x         13.722364     13.719871    -0.002494    Cartesian   -0.02
   1104 y         -9.801689     -9.798807     0.002882    Cartesian   -0.03
   1104 z          9.801689      9.798377    -0.003312    Cartesian   -0.03
   1105 x          7.841351      7.840241    -0.001110    Cartesian   -0.01
   1105 y         -7.841351     -7.840499     0.000852    Cartesian   -0.01
   1105 z         15.682702     15.680200    -0.002502    Cartesian   -0.02
   1106 x          1.960338      1.960586     0.000248    Cartesian    0.01
   1106 y          9.801689      9.800495    -0.001194    Cartesian   -0.01
   1106 z         17.643040     17.635790    -0.007250    Cartesian   -0.04
   1107 x         15.682702     15.680672    -0.002030    Cartesian   -0.01
   1107 y        -11.762026    -11.759964     0.002063    Cartesian   -0.02
   1107 z          0.000000      0.000000     0.000000    Cartesian    0.00
   1108 x         -9.801689     -9.796248     0.005440    Cartesian   -0.06
   1108 y        -13.722364    -13.713956     0.008408    Cartesian   -0.06
   1108 z         -1.960338     -1.959122     0.001216    Cartesian   -0.06
   1109 x         11.762026     11.761357    -0.000670    Cartesian   -0.01
   1109 y         -3.920675     -3.919721     0.000955    Cartesian   -0.02
   1109 z         15.682702     15.680393    -0.002309    Cartesian   -0.01
   1110 x          1.960338      1.960219    -0.000118    Cartesian   -0.01
   1110 y        -17.643040    -17.634447     0.008593    Cartesian   -0.05
   1110 z         -1.960338     -1.959444     0.000893    Cartesian   -0.05
   1111 x         -5.881013     -5.878438     0.002576    Cartesian   -0.04
   1111 y         -9.801689     -9.797586     0.004103    Cartesian   -0.04
   1111 z         13.722364     13.715452    -0.006912    Cartesian   -0.05
   1112 x        -11.762026    -11.758053     0.003974    Cartesian   -0.03
   1112 y        -11.762026    -11.758053     0.003974    Cartesian   -0.03
   1112 z          3.920675      3.918897    -0.001779    Cartesian   -0.05
   1113 x         13.722364     13.719309    -0.003056    Cartesian   -0.02
   1113 y         13.722364     13.719309    -0.003056    Cartesian   -0.02
   1113 z          9.801689      9.796838    -0.004851    Cartesian   -0.05
   1114 x         19.603377     19.601133    -0.002245    Cartesian   -0.01
   1114 y          0.000000      0.000123     0.000123    Cartesian    0.00
   1114 z          7.841351      7.839655    -0.001696    Cartesian   -0.02
   1115 x          7.841351      7.840568    -0.000783    Cartesian   -0.01
   1115 y         11.762026     11.761614    -0.000412    Cartesian   -0.00
   1115 z         15.682702     15.680453    -0.002249    Cartesian   -0.01
   1116 x         -1.960338     -1.958937     0.001401    Cartesian   -0.07
   1116 y         -5.881013     -5.878575     0.002438    Cartesian   -0.04
   1116 z         17.643040     17.634409    -0.008631    Cartesian   -0.05
   1117 x          3.920675      3.920896     0.000221    Cartesian    0.01
   1117 y         19.603377     19.601230    -0.002147    Cartesian   -0.01
   1117 z          7.841351      7.839688    -0.001663    Cartesian   -0.02
   1118 x          5.881013      5.879303    -0.001710    Cartesian   -0.03
   1118 y         -5.881013     -5.878613     0.002400    Cartesian   -0.04
   1118 z         17.643040     17.634784    -0.008256    Cartesian   -0.05
   1119 x          9.801689      9.798695    -0.002994    Cartesian   -0.03
   1119 y         -9.801689     -9.797849     0.003840    Cartesian   -0.04
   1119 z         13.722364     13.715803    -0.006561    Cartesian   -0.05
   1120 x         13.722364     13.716560    -0.005804    Cartesian   -0.04
   1120 y        -13.722364    -13.714299     0.008065    Cartesian   -0.06
   1120 z         -1.960338     -1.958849     0.001489    Cartesian   -0.08
   1121 x         15.682702     15.681301    -0.001401    Cartesian   -0.01
   1121 y         15.682702     15.681301    -0.001401    Cartesian   -0.01
   1121 z          0.000000      0.000000     0.000000    Cartesian    0.00
   1122 x          9.801689      9.799486    -0.002203    Cartesian   -0.02
   1122 y         -1.960338     -1.958665     0.001673    Cartesian   -0.09
   1122 z         17.643040     17.634909    -0.008131    Cartesian   -0.05
   1123 x         13.722364     13.718894    -0.003470    Cartesian   -0.03
   1123 y         -5.881013     -5.878060     0.002953    Cartesian   -0.05
   1123 z         13.722364     13.715887    -0.006478    Cartesian   -0.05
   1124 x         17.643040     17.634928    -0.008112    Cartesian   -0.05
   1124 y         -9.801689     -9.795401     0.006288    Cartesian   -0.06
   1124 z         -1.960338     -1.958824     0.001514    Cartesian   -0.08
   1125 x          0.000000      0.001162     0.001162    Cartesian    0.00
   1125 y          0.000000      0.001162     0.001162    Cartesian    0.00
   1125 z         19.603377     19.599145    -0.004232    Cartesian   -0.02
   1126 x          3.920675      3.919550    -0.001126    Cartesian   -0.03
   1126 y          0.000000      0.001171     0.001171    Cartesian    0.00
   1126 z         19.603377     19.599182    -0.004195    Cartesian   -0.02
   1127 x         15.682702     15.679474    -0.003228    Cartesian   -0.02
   1127 y        -11.762026    -11.758663     0.003364    Cartesian   -0.03
   1127 z          3.920675      3.918631    -0.002045    Cartesian   -0.05
   1128 x          5.881013      5.879744    -0.001270    Cartesian   -0.02
   1128 y          9.801689      9.799766    -0.001923    Cartesian   -0.02
   1128 z         17.643040     17.634850    -0.008189    Cartesian   -0.05
   1129 x          3.920675      3.919602    -0.001073    Cartesian   -0.03
   1129 y          3.920675      3.919602    -0.001073    Cartesian   -0.03
   1129 z         19.603377     19.599225    -0.004153    Cartesian   -0.02
   1130 x         -1.960338     -1.958438     0.001900    Cartesian   -0.10
   1130 y        -17.643040    -17.631837     0.011202    Cartesian   -0.06
   1130 z         -1.960338     -1.958945     0.001392    Cartesian   -0.07
   1131 x         -5.881013     -5.877561     0.003453    Cartesian   -0.06
   1131 y        -13.722364    -13.713745     0.008619    Cartesian   -0.06
   1131 z          9.801689      9.796271    -0.005418    Cartesian   -0.06
   1132 x          1.960338      1.960686     0.000348    Cartesian    0.02
   1132 y         21.563715     21.551391    -0.012324    Cartesian   -0.06
   1132 z         -1.960338     -1.959054     0.001283    Cartesian   -0.07
   1133 x          9.801689      9.799356    -0.002332    Cartesian   -0.02
   1133 y         13.722364     13.719255    -0.003109    Cartesian   -0.02
   1133 z         13.722364     13.715852    -0.006512    Cartesian   -0.05
   1134 x         -7.841351     -7.838365     0.002986    Cartesian   -0.04
   1134 y        -15.682702    -15.676930     0.005772    Cartesian   -0.04
   1134 z          0.000000      0.000000     0.000000    Cartesian    0.00
   1135 x          5.881013      5.878796    -0.002217    Cartesian   -0.04
   1135 y        -17.643040    -17.632141     0.010899    Cartesian   -0.06
   1135 z         -1.960338     -1.959037     0.001300    Cartesian   -0.07
   1136 x         -3.920675     -3.918750     0.001925    Cartesian   -0.05
   1136 y        -15.682702    -15.677928     0.004774    Cartesian   -0.03
   1136 z          7.841351      7.838890    -0.002461    Cartesian   -0.03
   1137 x         13.722364     13.716916    -0.005448    Cartesian   -0.04
   1137 y         17.643040     17.634304    -0.008736    Cartesian   -0.05
   1137 z         -1.960338     -1.958864     0.001473    Cartesian   -0.08
--------------------------------------------------------------------------------


  Time to end of optimisation  =      996.7119 seconds


  Peak dynamic memory used =    1259.17 MB 


  Timing analysis for GULP :

--------------------------------------------------------------------------------
  Task / Subroutine                                          Time (Seconds)
--------------------------------------------------------------------------------
  Calculation of reciprocal space energy and derivatives          0.0002
  Calculation of reciprocal space energy using symmetry           0.0003
  Calculation of real space energy and derivatives                0.0015
  Calculation of real space energy using symmetry                 0.0032
  Calculation for region 1 energy and derivatives (2-b)         306.5177
  Calculation for region 2a energy                              113.0464
  Calculation for region 2b energy                                0.0088
  Calculation and manipulation of Hessian matrix                514.8581
  Calculation of matrix inversion                                60.2959
  Symmetry generation of equivalent positions                     0.0016
--------------------------------------------------------------------------------
  Total CPU time                                                996.7119
--------------------------------------------------------------------------------


  Dump file written as Li3OCl.grs


  Job Finished at 15:09.38 28th October    2020                               

