********************************************************************************
*                       GENERAL UTILITY LATTICE PROGRAM                        *
*                                 Julian Gale                                  *
*                       Curtin Institute for Computation                       *
*                    School of Molecular and Life Sciences                     *
*                    Curtin University, Western Australia                      *
********************************************************************************
* Version = 5.2.0 * Last modified =  10th September 2020                       *
********************************************************************************
*  optimise     - perform optimisation run                                     *
*  conp         - constant pressure calculation                                *
*  property     - calculate properties for final geometry                      *
*  defect       - perform defect calculation after bulk run                    *
*  compare      - compare initial and final structures                         *
*  conjugate    - use conjugate gradients minimiser                            *
********************************************************************************

  Job Started  at 14:42.13 26th January    2021                               

  Number of CPUs =     1


  Total number of configurations input =      1

********************************************************************************
*  Input for Configuration =   1                                               *
********************************************************************************

  Formula = ClONa3                                                      

  Number of irreducible atoms/shells =       5


  Total number atoms/shells =       7

  Dimensionality = 3               :  Bulk   


  Symmetry :

  Crystal family                   :  Cubic       
  Crystal class  (Groth - 1921)    :  Cubic Hexakisoctahedral              

  Space group (centrosymmetric)    :  P M 3 M         

  Patterson group                  :  P m -3 m 

  Cartesian lattice vectors (Angstroms) :

        4.504000    0.000000    0.000000
        0.000000    4.504000    0.000000
        0.000000    0.000000    4.504000

  Cell parameters (Angstroms/Degrees):

  a =       4.5040    alpha =  90.0000
  b =       4.5040    beta  =  90.0000
  c =       4.5040    gamma =  90.0000

  Initial cell volume =          91.368216 Angs**3

  Temperature of configuration =   0.00     K 

  Pressure of configuration =         0.000 GPa 

  Fractional coordinates of asymmetric unit :

--------------------------------------------------------------------------------
   No.  Atomic       x           y          z         Charge      Occupancy
        Label      (Frac)      (Frac)     (Frac)        (e)         (Frac)  
--------------------------------------------------------------------------------
      1 Cl    c    0.000000    0.000000    0.000000     1.48500    1.000000    
      2 O     c    0.500000    0.500000    0.500000     0.18300    1.000000    
      3 Na    c    0.500000    0.500000    0.000000     1.00000    1.000000    
      4 Cl    s    0.000000    0.000000    0.000000    -2.48500    1.000000    
      5 O     s    0.500000    0.500000    0.500000    -2.18300    1.000000    
--------------------------------------------------------------------------------


  Constraints : 

--------------------------------------------------------------------------------
  Constraint no.      Unconstrained     Constrained    Coefficient    Offset
                         Variable         Variable
--------------------------------------------------------------------------------
           1              Strain 1        Strain 2       1.00000      0.0000
           2              Strain 1        Strain 3       1.00000      0.0000
--------------------------------------------------------------------------------


********************************************************************************
*  General input information                                                   *
********************************************************************************

  Species output for all configurations : 

--------------------------------------------------------------------------------
  Species    Type    Atomic    Atomic    Charge       Radii (Angs)     Library
                     Number     Mass       (e)     Cova   Ionic  VDW   Symbol
--------------------------------------------------------------------------------
    Na       Core       11      22.99   1.000000   0.970  0.000  2.300          
    O        Core        8      16.00   0.183000   0.730  0.000  1.360          
    O        Shell       8       0.00  -2.183000   0.730  0.000  1.360          
    Cl       Core       17      35.45   1.485000   0.990  0.000  1.650          
    Cl       Shell      17       0.00  -2.485000   0.990  0.000  1.650          
    Mg       Core       12      24.31   0.415000   1.100  0.000  0.000          
    Mg       Shell      12       0.00   1.585000   1.100  0.000  0.000          
    Ca       Core       20      40.08  -1.135000   0.990  0.000  0.000          
    Ca       Shell      20       0.00   3.135000   0.990  0.000  0.000          
    Sr       Core       38      87.62  -1.251000   1.120  0.000  0.000          
    Sr       Shell      38       0.00   3.251000   1.120  0.000  0.000          
    Ba       Core       56     137.33  -7.203000   1.340  0.000  0.000          
    Ba       Shell      56       0.00   9.203000   1.340  0.000  0.000          
--------------------------------------------------------------------------------


  Lattice summation method               =    Ewald          (3-D)
                                         =    Parry          (2-D)
                                         =    Saunders et al (1-D)
  Accuracy factor for lattice sums       =   12.000


  Analytic derivatives to be used

  Time limit = Infinity

  Maximum range for interatomic potentials =    100000.000000 Angstroms

  General interatomic potentials :

--------------------------------------------------------------------------------
Atom  Types   Potential      Parameter       Value         Units   Cutoffs(Ang)
  1     2                                                            Min /  Max 
--------------------------------------------------------------------------------
O    c O    s Spring (c-s)  Spring k 2       593.71600    eV*Ang^-2 0.000  0.800
                            Spring k 4       0.0000000    eV*Ang^-4 
--------------------------------------------------------------------------------
Cl   c Cl   s Spring (c-s)  Spring k 2       29.380000    eV*Ang^-2 0.000  0.800
                            Spring k 4       0.0000000    eV*Ang^-4 
--------------------------------------------------------------------------------
Mg   c Mg   s Spring (c-s)  Spring k 2       361.60000    eV*Ang^-2 0.000  0.800
                            Spring k 4       0.0000000    eV*Ang^-4 
--------------------------------------------------------------------------------
Ca   c Ca   s Spring (c-s)  Spring k 2       110.20000    eV*Ang^-2 0.000  0.800
                            Spring k 4       0.0000000    eV*Ang^-4 
--------------------------------------------------------------------------------
Sr   c Sr   s Spring (c-s)  Spring k 2       71.700000    eV*Ang^-2 0.000  0.800
                            Spring k 4       0.0000000    eV*Ang^-4 
--------------------------------------------------------------------------------
Ba   c Ba   s Spring (c-s)  Spring k 2       495.20000    eV*Ang^-2 0.000  0.800
                            Spring k 4       0.0000000    eV*Ang^-4 
--------------------------------------------------------------------------------
Na   c Na   c Buckingham    Buckingham A     1788.1900    eV        0.000 12.000
                            Buckingham rho  0.15900000    Ang       
                            Buckingham C     0.0000000    eV*Ang^6  
--------------------------------------------------------------------------------
Na   c O    s Buckingham    Buckingham A     588.38000    eV        0.000 12.000
                            Buckingham rho  0.33800000    Ang       
                            Buckingham C     0.0000000    eV*Ang^6  
--------------------------------------------------------------------------------
Na   c Cl   s Buckingham    Buckingham A     1170.4100    eV        0.000 12.000
                            Buckingham rho  0.31500000    Ang       
                            Buckingham C     0.0000000    eV*Ang^6  
--------------------------------------------------------------------------------
O    s O    s Buckingham    Buckingham A     22764.300    eV        0.000 12.000
                            Buckingham rho  0.14900000    Ang       
                            Buckingham C     13.190000    eV*Ang^6  
--------------------------------------------------------------------------------
O    s Cl   s Buckingham    Buckingham A     8286.9100    eV        0.000 12.000
                            Buckingham rho  0.25900000    Ang       
                            Buckingham C     62.200000    eV*Ang^6  
--------------------------------------------------------------------------------
Cl   s Cl   s Buckingham    Buckingham A     1227.2000    eV        0.000 12.000
                            Buckingham rho  0.32100000    Ang       
                            Buckingham C     14.530000    eV*Ang^6  
--------------------------------------------------------------------------------
O    s Mg   s Buckingham    Buckingham A     1428.5000    eV        0.000 12.000
                            Buckingham rho  0.29450000    Ang       
                            Buckingham C     0.0000000    eV*Ang^6  
--------------------------------------------------------------------------------
Mg   s Cl   s Buckingham    Buckingham A     4914.5400    eV        0.000 12.000
                            Buckingham rho  0.25700000    Ang       
                            Buckingham C     0.0000000    eV*Ang^6  
--------------------------------------------------------------------------------
O    s Ca   s Buckingham    Buckingham A     1090.4000    eV        0.000 12.000
                            Buckingham rho  0.34370000    Ang       
                            Buckingham C     0.0000000    eV*Ang^6  
--------------------------------------------------------------------------------
Cl   s Ca   s Buckingham    Buckingham A     2302.0000    eV        0.000 12.000
                            Buckingham rho  0.34020000    Ang       
                            Buckingham C     0.0000000    eV*Ang^6  
--------------------------------------------------------------------------------
O    s Sr   s Buckingham    Buckingham A     959.10000    eV        0.000 12.000
                            Buckingham rho  0.37210000    Ang       
                            Buckingham C     0.0000000    eV*Ang^6  
--------------------------------------------------------------------------------
Cl   s Sr   s Buckingham    Buckingham A     2191.0900    eV        0.000 12.000
                            Buckingham rho  0.34570000    Ang       
                            Buckingham C     0.0000000    eV*Ang^6  
--------------------------------------------------------------------------------
O    s Ba   s Buckingham    Buckingham A     905.70000    eV        0.000 12.000
                            Buckingham rho  0.39760000    Ang       
                            Buckingham C     0.0000000    eV*Ang^6  
--------------------------------------------------------------------------------
Cl   s Ba   s Buckingham    Buckingham A     2704.5500    eV        0.000 12.000
                            Buckingham rho  0.35280000    Ang       
                            Buckingham C     0.0000000    eV*Ang^6  
--------------------------------------------------------------------------------

********************************************************************************
*  Output for configuration   1                                                *
********************************************************************************


  Components of energy : 

--------------------------------------------------------------------------------
  Interatomic potentials     =           4.94315381 eV    
  Monopole - monopole (real) =         -10.03624526 eV    
  Monopole - monopole (recip)=         -29.53581274 eV    
  Monopole - monopole (total)=         -39.57205800 eV    
--------------------------------------------------------------------------------
  Total lattice energy       =         -34.62890419 eV    
--------------------------------------------------------------------------------
  Total lattice energy       =           -3341.1599 kJ/(mole unit cells)
--------------------------------------------------------------------------------


  Number of variables =        1

  Maximum number of calculations  =          1000
  Maximum Hessian update interval =            10
  Maximum step size               =   1.000000000
  Maximum parameter tolerance     =   0.000010000
  Maximum function  tolerance     =   0.000010000
  Maximum gradient  tolerance     =   0.001000000
  Maximum gradient  component     =   0.010000000

  Symmetry constrained optimisation

  Symmetry used for second derivatives

  Cell parameters to be optimised using strains

  Conjugate gradient optimiser to be used

  Lower half triangular hessian to be used

  Start of bulk optimisation :

  Cycle:      0 Energy:       -34.628904  Gnorm:      4.328237  CPU:    0.032
  Cycle:      1 Energy:       -34.672933  Gnorm:      1.392766  CPU:    0.039
  Cycle:      2 Energy:       -34.675472  Gnorm:      0.953099  CPU:    0.046
  Cycle:      3 Energy:       -34.677312  Gnorm:      0.387708  CPU:    0.050
  Cycle:      4 Energy:       -34.677580  Gnorm:      0.195528  CPU:    0.052
  Cycle:      5 Energy:       -34.677658  Gnorm:      0.076278  CPU:    0.055
  Cycle:      6 Energy:       -34.677668  Gnorm:      0.039187  CPU:    0.057
  Cycle:      7 Energy:       -34.677670  Gnorm:      0.020866  CPU:    0.059
  Cycle:      8 Energy:       -34.677671  Gnorm:      0.013447  CPU:    0.061
  Cycle:      9 Energy:       -34.677671  Gnorm:      0.008467  CPU:    0.062
  Cycle:     10 Energy:       -34.677671  Gnorm:      0.004596  CPU:    0.064
  Cycle:     11 Energy:       -34.677671  Gnorm:      0.003488  CPU:    0.065
  Cycle:     12 Energy:       -34.677671  Gnorm:      0.002163  CPU:    0.066
  Cycle:     13 Energy:       -34.677671  Gnorm:      0.001535  CPU:    0.068
  Cycle:     14 Energy:       -34.677671  Gnorm:      0.001000  CPU:    0.069


  **** Optimisation achieved ****


  Final energy =     -34.67767136 eV
  Final Gnorm  =       0.00068989

  Components of energy : 

--------------------------------------------------------------------------------
  Interatomic potentials     =           5.77532850 eV    
  Monopole - monopole (real) =         -10.25966929 eV    
  Monopole - monopole (recip)=         -30.19333058 eV    
  Monopole - monopole (total)=         -40.45299986 eV    
--------------------------------------------------------------------------------
  Total lattice energy       =         -34.67767136 eV    
--------------------------------------------------------------------------------
  Total lattice energy       =           -3345.8652 kJ/(mole unit cells)
--------------------------------------------------------------------------------

  Final asymmetric unit coordinates :

--------------------------------------------------------------------------------
   No.  Atomic        x           y           z         Radius
        Label       (Frac)      (Frac)      (Frac)       (Angs) 
--------------------------------------------------------------------------------
     1  Cl    c     0.000000    0.000000    0.000000    0.000000
     2  O     c     0.500000    0.500000    0.500000    0.000000
     3  Na    c     0.500000    0.500000    0.000000    0.000000
     4  Cl    s     0.000000    0.000000    0.000000    0.000000
     5  O     s     0.500000    0.500000    0.500000    0.000000
--------------------------------------------------------------------------------

  Final Cartesian lattice vectors (Angstroms) :

        4.405917    0.000000    0.000000
        0.000000    4.405917    0.000000
        0.000000    0.000000    4.405917


  Final cell parameters and derivatives :

--------------------------------------------------------------------------------
       a            4.405917 Angstrom     dE/de1(xx)     0.000690 eV/strain
       b            4.405917 Angstrom     dE/de2(yy)     0.000000 eV/strain
       c            4.405917 Angstrom     dE/de3(zz)     0.000000 eV/strain
       alpha       90.000000 Degrees      dE/de4(yz)     0.000000 eV/strain
       beta        90.000000 Degrees      dE/de5(xz)     0.000000 eV/strain
       gamma       90.000000 Degrees      dE/de6(xy)     0.000000 eV/strain
--------------------------------------------------------------------------------

  Primitive cell volume =            85.528106 Angs**3

  Density of cell =      2.338007 g/cm**3

  Non-primitive cell volume =            85.528106 Angs**3


  Final internal derivatives :

--------------------------------------------------------------------------------
   No.  Atomic          a             b             c           Radius
        Label          (eV)          (eV)          (eV)        (eV/Angs)
--------------------------------------------------------------------------------
      1 Cl    c       0.000000      0.000000      0.000000      0.000000
      2 O     c       0.000000      0.000000      0.000000      0.000000
      3 Na    c       0.000000      0.000000      0.000000      0.000000
      4 Cl    s       0.000000      0.000000      0.000000      0.000000
      5 O     s       0.000000      0.000000      0.000000      0.000000
--------------------------------------------------------------------------------
  Maximum abs         0.000000      0.000000      0.000000      0.000000
--------------------------------------------------------------------------------

  Comparison of initial and final structures : 

--------------------------------------------------------------------------------
  Parameter   Initial value   Final value   Difference    Units      Percent
--------------------------------------------------------------------------------
    Volume        91.368216     85.528106    -5.840110    Angs**3     -6.39
    a              4.504000      4.405917    -0.098083    Angstroms   -2.18
    b              4.504000      4.405917    -0.098083    Angstroms   -2.18
    c              4.504000      4.405917    -0.098083    Angstroms   -2.18
    alpha         90.000000     90.000000     0.000000    Degrees      0.00
    beta          90.000000     90.000000     0.000000    Degrees      0.00
    gamma         90.000000     90.000000     0.000000    Degrees      0.00
      1 x          0.000000      0.000000     0.000000    Fractional   0.00
      1 y          0.000000      0.000000     0.000000    Fractional   0.00
      1 z          0.000000      0.000000     0.000000    Fractional   0.00
      2 x          0.500000      0.500000     0.000000    Fractional   0.00
      2 y          0.500000      0.500000     0.000000    Fractional   0.00
      2 z          0.500000      0.500000     0.000000    Fractional   0.00
      3 x          0.500000      0.500000     0.000000    Fractional   0.00
      3 y          0.500000      0.500000     0.000000    Fractional   0.00
      3 z          0.000000      0.000000     0.000000    Fractional   0.00
      4 x          0.000000      0.000000     0.000000    Fractional   0.00
      4 y          0.000000      0.000000     0.000000    Fractional   0.00
      4 z          0.000000      0.000000     0.000000    Fractional   0.00
      5 x          0.500000      0.500000     0.000000    Fractional   0.00
      5 y          0.500000      0.500000     0.000000    Fractional   0.00
      5 z          0.500000      0.500000     0.000000    Fractional   0.00
--------------------------------------------------------------------------------


  Born effective charge tensors : 

-------------------------------------------------------------------------------
  Atom             x           y             z
-------------------------------------------------------------------------------
    1 Cl    x      -0.9918     -0.0000      0.0000
            y      -0.0000     -0.9918      0.0000
            z       0.0000      0.0000     -0.9918
-------------------------------------------------------------------------------
    2 O     x      -2.2939      0.0000     -0.0000
            y       0.0000     -2.2939     -0.0000
            z      -0.0000     -0.0000     -2.2939
-------------------------------------------------------------------------------
    3 Na    x       1.2243     -0.0000     -0.0000
            y      -0.0000      1.2243      0.0000
            z      -0.0000      0.0000      0.8372
-------------------------------------------------------------------------------




  Elastic Constant Matrix: (Units=GPa)

-------------------------------------------------------------------------------
  Indices      1         2         3         4         5         6    
-------------------------------------------------------------------------------
       1     82.7653   24.3528   24.3528    0.0000    0.0000    0.0000
       2     24.3528   82.7653   24.3528    0.0000    0.0000   -0.0000
       3     24.3528   24.3528   82.7653    0.0000    0.0000   -0.0000
       4      0.0000    0.0000    0.0000   24.3532   -0.0000    0.0000
       5      0.0000    0.0000    0.0000   -0.0000   24.3532    0.0000
       6      0.0000   -0.0000   -0.0000    0.0000    0.0000   24.3532
-------------------------------------------------------------------------------


  Elastic Compliance Matrix: (Units=1/GPa)

-------------------------------------------------------------------------------
  Indices      1         2         3         4         5         6    
-------------------------------------------------------------------------------
       1    0.013949 -0.003171 -0.003171  0.000000 -0.000000 -0.000000
       2   -0.003171  0.013949 -0.003171 -0.000000  0.000000  0.000000
       3   -0.003171 -0.003171  0.013949 -0.000000 -0.000000  0.000000
       4    0.000000 -0.000000 -0.000000  0.041062  0.000000 -0.000000
       5   -0.000000  0.000000 -0.000000  0.000000  0.041062 -0.000000
       6   -0.000000  0.000000  0.000000 -0.000000 -0.000000  0.041062
-------------------------------------------------------------------------------

  Mechanical properties :

-------------------------------------------------------------------------------
  Convention :                    Reuss         Voigt         Hill
-------------------------------------------------------------------------------
  Bulk  Modulus (GPa)     =      43.82361      43.82361      43.82361
  Shear Modulus (GPa)     =      26.08711      26.29442      26.19076
-------------------------------------------------------------------------------
  Velocity S-wave (km/s)  =       3.34034       3.35358       3.34697
  Velocity P-wave (km/s)  =       5.79837       5.80856       5.80347
-------------------------------------------------------------------------------
  Compressibility (1/GPa) =    0.02281875
-------------------------------------------------------------------------------
  Stress axis :                     x             y             z
-------------------------------------------------------------------------------
  Youngs Moduli (GPa)     =      71.69227      71.69227      71.69227
-------------------------------------------------------------------------------
  Poissons Ratio (x)      =                     0.22735       0.22735
  Poissons Ratio (y)      =       0.22735                     0.22735
  Poissons Ratio (z)      =       0.22735       0.22735
-------------------------------------------------------------------------------


  Piezoelectric Strain Matrix: (Units=C/m**2)

-------------------------------------------------------------------------------
  Indices      1         2         3         4         5         6    
-------------------------------------------------------------------------------
       x    -0.00000  -0.00000  -0.00000   0.00000  -0.00000  -0.00000
       y     0.00000  -0.00000  -0.00000  -0.00000   0.00000   0.00000
       z     0.00000   0.00000  -0.00000  -0.00000   0.00000   0.00000
-------------------------------------------------------------------------------


  Piezoelectric Stress Matrix: (Units=10**-11 C/N)

-------------------------------------------------------------------------------
  Indices      1         2         3         4         5         6    
-------------------------------------------------------------------------------
       x    -0.00000  -0.00000  -0.00000   0.00000  -0.00000  -0.00000
       y     0.00000  -0.00000  -0.00000  -0.00000   0.00000   0.00000
       z     0.00000   0.00000  -0.00000  -0.00000   0.00000   0.00000
-------------------------------------------------------------------------------


  Static dielectric constant tensor : 

-------------------------------------------------------------------------------
              x         y         z
-------------------------------------------------------------------------------
       x    11.08412  -0.00000   0.00000
       y    -0.00000  11.08412   0.00000
       z     0.00000   0.00000  11.08412
--------------------------------------------------------------------------------

  High frequency dielectric constant tensor : 

-------------------------------------------------------------------------------
              x         y         z
-------------------------------------------------------------------------------
       x     1.50770   0.00000  -0.00000
       y     0.00000   1.50770   0.00000
       z    -0.00000   0.00000   1.50770
-------------------------------------------------------------------------------

  Static refractive indices : 

-------------------------------------------------------------------------------
    1 =    3.32928      2 =    3.32928      3 =    3.32928
-------------------------------------------------------------------------------

  High frequency refractive indices : 

-------------------------------------------------------------------------------
    1 =    1.22789      2 =    1.22789      3 =    1.22789
-------------------------------------------------------------------------------


  Time to end of optimisation =       0.0729 seconds

********************************************************************************
*  Defect calculation for configuration   1 :                                  *
********************************************************************************

  Total number of defects =      3

  Total charge on defect  =   0.00

  Defect centre is at   4.5040   4.5040   2.2520  Angs

  Region 1 radius =  12.0000      Number of ions =    630

  Number of symmetry inequivalent region 1 ions  =    355

  Region 2 radius =  16.0000      Number of ions =    770

  Number of symmetry inequivalent region 2a ions =    415

  Region 2a mode = 4 : screened electrostatics due to region 1 
                       neglect correction to region 1 forces from 2a
                       region 2a displacements based on defects only

  Region 2a ions will only interact with defects in region 1

  Vacancies:

--------------------------------------------------------------------------------
    Specification type     Symbol/Number         x          y          z
--------------------------------------------------------------------------------
    Cartesian                                2.252000   2.252000   2.252000
    Cartesian                                6.756000   6.756000   2.252000
--------------------------------------------------------------------------------

  Interstitials:

--------------------------------------------------------------------------------
    Specification type     Symbol/Number         x          y          z
--------------------------------------------------------------------------------
    Atom/Cartesian          O                4.504000   4.504000   2.252000
--------------------------------------------------------------------------------


  Symmetry reduced region 1 (Relative to defect centre) :

--------------------------------------------------------------------------------
   No.   Atomic       x            y             z       Radius  Multiplicity   
         Label      (Angs)       (Angs)        (Angs)    (Angs)     
--------------------------------------------------------------------------------
     1  O     c      0.0000       0.0000       0.0000    0.0000     1    Defect
     2  Na    c     -0.0981 *     2.1049 *    -0.0490 *  0.0000     2          
     3  Cl    c     -0.0981 *    -0.0981       2.1539 *  0.0000     1          
     4  Cl    c     -0.0981 *    -0.0981      -2.2520 *  0.0000     1          
     5  Na    c     -0.0981 *    -2.3010 *    -0.0490 *  0.0000     2          
     6  O     c      2.1049 *     2.1049      -0.0490 *  0.0000     1          
     7  O     c      2.1049 *    -2.3010 *    -0.0490 *  0.0000     2          
     8  Na    c      2.1049 *     2.1049       2.1539 *  0.0000     1          
     9  Na    c      2.1049 *     2.1049      -2.2520 *  0.0000     1          
    10  Na    c      2.1049 *    -2.3010 *     2.1539 *  0.0000     2          
    11  Na    c      2.1049 *    -2.3010 *    -2.2520 *  0.0000     2          
    12  Na    c     -2.3010 *    -2.3010       2.1539 *  0.0000     1          
    13  Na    c     -2.3010 *    -2.3010      -2.2520 *  0.0000     1          
    14  Na    c      4.3078 *     2.1049 *    -0.0490 *  0.0000     2          
    15  Cl    c     -0.0981 *     4.3078 *     2.1539 *  0.0000     2          
    16  Na    c     -0.0981 *     2.1049 *     4.3569 *  0.0000     2          
    17  Cl    c     -0.0981 *     4.3078 *    -2.2520 *  0.0000     2          
    18  Na    c      4.3078 *    -2.3010 *    -0.0490 *  0.0000     2          
    19  Na    c     -0.0981 *     2.1049 *    -4.4550 *  0.0000     2          
    20  Na    c     -0.0981 *    -2.3010 *     4.3569 *  0.0000     2          
    21  Na    c     -4.5040 *     2.1049 *    -0.0490 *  0.0000     2          
    22  Cl    c     -0.0981 *    -4.5040 *     2.1539 *  0.0000     2          
    23  Na    c     -0.0981 *    -2.3010 *    -4.4550 *  0.0000     2          
    24  Cl    c     -0.0981 *    -4.5040 *    -2.2520 *  0.0000     2          
    25  Na    c     -4.5040 *    -2.3010 *    -0.0490 *  0.0000     2          
    26  O     c      2.1049 *     2.1049       4.3569 *  0.0000     1          
    27  O     c      2.1049 *     2.1049      -4.4550 *  0.0000     1          
    28  O     c      2.1049 *    -2.3010 *     4.3569 *  0.0000     2          
    29  O     c      2.1049 *    -2.3010 *    -4.4550 *  0.0000     2          
    30  O     c     -2.3010 *    -2.3010       4.3569 *  0.0000     1          
    31  O     c     -2.3010 *    -2.3010      -4.4550 *  0.0000     1          
    32  Cl    c      4.3078 *     4.3078       2.1539 *  0.0000     1          
    33  Na    c      4.3078 *     2.1049 *     4.3569 *  0.0000     2          
    34  Cl    c      4.3078 *     4.3078      -2.2520 *  0.0000     1          
    35  Na    c     -0.0981 *     6.5108 *    -0.0490 *  0.0000     2          
    36  Na    c      4.3078 *     2.1049 *    -4.4550 *  0.0000     2          
    37  Na    c      4.3078 *    -2.3010 *     4.3569 *  0.0000     2          
    38  Cl    c     -0.0981 *    -0.0981       6.5598 *  0.0000     1          
    39  Cl    c      4.3078 *    -4.5040 *     2.1539 *  0.0000     2          
    40  Na    c      4.3078 *    -2.3010 *    -4.4550 *  0.0000     2          
    41  Na    c     -4.5040 *     2.1049 *     4.3569 *  0.0000     2          
    42  Cl    c      4.3078 *    -4.5040 *    -2.2520 *  0.0000     2          
    43  Cl    c     -0.0981 *    -0.0981      -6.6579 *  0.0000     1          
    44  Na    c     -4.5040 *     2.1049 *    -4.4550 *  0.0000     2          
    45  Na    c     -4.5040 *    -2.3010 *     4.3569 *  0.0000     2          
    46  Na    c     -0.0981 *    -6.7070 *    -0.0490 *  0.0000     2          
    47  Cl    c     -4.5040 *    -4.5040       2.1539 *  0.0000     1          
    48  Na    c     -4.5040 *    -2.3010 *    -4.4550 *  0.0000     2          
    49  Cl    c     -4.5040 *    -4.5040      -2.2520 *  0.0000     1          
    50  O     c      2.1049 *     6.5108 *    -0.0490 *  0.0000     2          
    51  O     c      6.5108 *    -2.3010 *    -0.0490 *  0.0000     2          
    52  O     c      2.1049 *    -6.7070 *    -0.0490 *  0.0000     2          
    53  O     c     -2.3010 *    -6.7070 *    -0.0490 *  0.0000     2          
    54  Na    c      2.1049 *     6.5108 *     2.1539 *  0.0000     2          
    55  Na    c      2.1049 *     2.1049       6.5598 *  0.0000     1          
    56  Na    c      2.1049 *     6.5108 *    -2.2520 *  0.0000     2          
    57  Na    c      6.5108 *    -2.3010 *     2.1539 *  0.0000     2          
    58  Na    c      2.1049 *    -2.3010 *     6.5598 *  0.0000     2          
    59  Na    c      6.5108 *    -2.3010 *    -2.2520 *  0.0000     2          
    60  Na    c      2.1049 *     2.1049      -6.6579 *  0.0000     1          
    61  Na    c     -2.3010 *    -2.3010       6.5598 *  0.0000     1          
    62  Na    c      2.1049 *    -2.3010 *    -6.6579 *  0.0000     2          
    63  Na    c      2.1049 *    -6.7070 *     2.1539 *  0.0000     2          
    64  Na    c      2.1049 *    -6.7070 *    -2.2520 *  0.0000     2          
    65  Na    c     -2.3010 *    -2.3010      -6.6579 *  0.0000     1          
    66  Na    c     -2.3010 *    -6.7070 *     2.1539 *  0.0000     2          
    67  Na    c     -2.3010 *    -6.7070 *    -2.2520 *  0.0000     2          
    68  Na    c      4.3078 *     6.5108 *    -0.0490 *  0.0000     2          
    69  Na    c     -0.0981 *     6.5108 *     4.3569 *  0.0000     2          
    70  Cl    c     -0.0981 *     4.3078 *     6.5598 *  0.0000     2          
    71  Na    c     -0.0981 *     6.5108 *    -4.4550 *  0.0000     2          
    72  Na    c     -4.5040 *     6.5108 *    -0.0490 *  0.0000     2          
    73  Cl    c     -0.0981 *     4.3078 *    -6.6579 *  0.0000     2          
    74  Cl    c     -0.0981 *    -4.5040 *     6.5598 *  0.0000     2          
    75  Na    c      4.3078 *    -6.7070 *    -0.0490 *  0.0000     2          
    76  Na    c     -0.0981 *    -6.7070 *     4.3569 *  0.0000     2          
    77  Cl    c     -0.0981 *    -4.5040 *    -6.6579 *  0.0000     2          
    78  Na    c     -0.0981 *    -6.7070 *    -4.4550 *  0.0000     2          
    79  Na    c     -4.5040 *    -6.7070 *    -0.0490 *  0.0000     2          
    80  O     c      2.1049 *     6.5108 *     4.3569 *  0.0000     2          
    81  O     c      2.1049 *     6.5108 *    -4.4550 *  0.0000     2          
    82  O     c      6.5108 *    -2.3010 *     4.3569 *  0.0000     2          
    83  O     c      6.5108 *    -2.3010 *    -4.4550 *  0.0000     2          
    84  O     c      2.1049 *    -6.7070 *     4.3569 *  0.0000     2          
    85  O     c      2.1049 *    -6.7070 *    -4.4550 *  0.0000     2          
    86  O     c     -2.3010 *    -6.7070 *     4.3569 *  0.0000     2          
    87  O     c     -2.3010 *    -6.7070 *    -4.4550 *  0.0000     2          
    88  Na    c      4.3078 *     6.5108 *     4.3569 *  0.0000     2          
    89  Cl    c      4.3078 *     4.3078       6.5598 *  0.0000     1          
    90  Na    c      8.7138 *     2.1049 *    -0.0490 *  0.0000     2          
    91  Cl    c     -0.0981 *     8.7138 *     2.1539 *  0.0000     2          
    92  Na    c      4.3078 *     6.5108 *    -4.4550 *  0.0000     2          
    93  Cl    c     -0.0981 *     8.7138 *    -2.2520 *  0.0000     2          
    94  Na    c     -0.0981 *     2.1049 *     8.7628 *  0.0000     2          
    95  Na    c      8.7138 *    -2.3010 *    -0.0490 *  0.0000     2          
    96  Cl    c      4.3078 *     4.3078      -6.6579 *  0.0000     1          
    97  Na    c     -4.5040 *     6.5108 *     4.3569 *  0.0000     2          
    98  Cl    c      4.3078 *    -4.5040 *     6.5598 *  0.0000     2          
    99  Na    c     -0.0981 *    -2.3010 *     8.7628 *  0.0000     2          
   100  Na    c     -4.5040 *     6.5108 *    -4.4550 *  0.0000     2          
   101  Na    c      4.3078 *    -6.7070 *     4.3569 *  0.0000     2          
   102  Na    c     -0.0981 *     2.1049 *    -8.8609 *  0.0000     2          
   103  Cl    c      4.3078 *    -4.5040 *    -6.6579 *  0.0000     2          
   104  Na    c      4.3078 *    -6.7070 *    -4.4550 *  0.0000     2          
   105  Cl    c     -4.5040 *    -4.5040       6.5598 *  0.0000     1          
   106  Na    c     -8.9099 *     2.1049 *    -0.0490 *  0.0000     2          
   107  Na    c     -0.0981 *    -2.3010 *    -8.8609 *  0.0000     2          
   108  Cl    c     -0.0981 *    -8.9099 *     2.1539 *  0.0000     2          
   109  Na    c     -4.5040 *    -6.7070 *     4.3569 *  0.0000     2          
   110  Cl    c     -0.0981 *    -8.9099 *    -2.2520 *  0.0000     2          
   111  Na    c     -8.9099 *    -2.3010 *    -0.0490 *  0.0000     2          
   112  O     c      6.5108 *     6.5108      -0.0490 *  0.0000     1          
   113  Cl    c     -4.5040 *    -4.5040      -6.6579 *  0.0000     1          
   114  Na    c     -4.5040 *    -6.7070 *    -4.4550 *  0.0000     2          
   115  O     c      2.1049 *     2.1049       8.7628 *  0.0000     1          
   116  O     c      2.1049 *    -2.3010 *     8.7628 *  0.0000     2          
   117  O     c     -2.3010 *    -2.3010       8.7628 *  0.0000     1          
   118  O     c      2.1049 *     2.1049      -8.8609 *  0.0000     1          
   119  O     c      6.5108 *    -6.7070 *    -0.0490 *  0.0000     2          
   120  O     c      2.1049 *    -2.3010 *    -8.8609 *  0.0000     2          
   121  O     c     -2.3010 *    -2.3010      -8.8609 *  0.0000     1          
   122  Na    c      6.5108 *     6.5108       2.1539 *  0.0000     1          
   123  Na    c      2.1049 *     6.5108 *     6.5598 *  0.0000     2          
   124  Na    c      6.5108 *     6.5108      -2.2520 *  0.0000     1          
   125  O     c     -6.7070 *    -6.7070      -0.0490 *  0.0000     1          
   126  Na    c      6.5108 *    -2.3010 *     6.5598 *  0.0000     2          
   127  Na    c      2.1049 *     6.5108 *    -6.6579 *  0.0000     2          
   128  Na    c      6.5108 *    -2.3010 *    -6.6579 *  0.0000     2          
   129  Na    c      6.5108 *    -6.7070 *     2.1539 *  0.0000     2          
   130  Na    c      2.1049 *    -6.7070 *     6.5598 *  0.0000     2          
   131  Na    c      6.5108 *    -6.7070 *    -2.2520 *  0.0000     2          
   132  Na    c     -2.3010 *    -6.7070 *     6.5598 *  0.0000     2          
   133  Na    c      2.1049 *    -6.7070 *    -6.6579 *  0.0000     2          
   134  Na    c     -2.3010 *    -6.7070 *    -6.6579 *  0.0000     2          
   135  Na    c     -6.7070 *    -6.7070       2.1539 *  0.0000     1          
   136  Na    c     -6.7070 *    -6.7070      -2.2520 *  0.0000     1          
   137  Cl    c      4.3078 *     8.7138 *     2.1539 *  0.0000     2          
   138  Na    c      8.7138 *     2.1049 *     4.3569 *  0.0000     2          
   139  Cl    c      4.3078 *     8.7138 *    -2.2520 *  0.0000     2          
   140  Na    c      4.3078 *     2.1049 *     8.7628 *  0.0000     2          
   141  Na    c      8.7138 *     2.1049 *    -4.4550 *  0.0000     2          
   142  Na    c      8.7138 *    -2.3010 *     4.3569 *  0.0000     2          
   143  Na    c      4.3078 *    -2.3010 *     8.7628 *  0.0000     2          
   144  Cl    c      8.7138 *    -4.5040 *     2.1539 *  0.0000     2          
   145  Na    c      8.7138 *    -2.3010 *    -4.4550 *  0.0000     2          
   146  Cl    c      8.7138 *    -4.5040 *    -2.2520 *  0.0000     2          
   147  Na    c     -4.5040 *     2.1049 *     8.7628 *  0.0000     2          
   148  Na    c      4.3078 *     2.1049 *    -8.8609 *  0.0000     2          
   149  Na    c     -4.5040 *    -2.3010 *     8.7628 *  0.0000     2          
   150  Na    c      4.3078 *    -2.3010 *    -8.8609 *  0.0000     2          
   151  Cl    c      4.3078 *    -8.9099 *     2.1539 *  0.0000     2          
   152  Na    c     -8.9099 *     2.1049 *     4.3569 *  0.0000     2          
   153  Cl    c      4.3078 *    -8.9099 *    -2.2520 *  0.0000     2          
   154  Na    c     -4.5040 *     2.1049 *    -8.8609 *  0.0000     2          
   155  Na    c     -8.9099 *     2.1049 *    -4.4550 *  0.0000     2          
   156  Na    c     -8.9099 *    -2.3010 *     4.3569 *  0.0000     2          
   157  O     c      6.5108 *     6.5108       4.3569 *  0.0000     1          
   158  Na    c     -4.5040 *    -2.3010 *    -8.8609 *  0.0000     2          
   159  Cl    c     -4.5040 *    -8.9099 *     2.1539 *  0.0000     2          
   160  Na    c     -8.9099 *    -2.3010 *    -4.4550 *  0.0000     2          
   161  O     c      6.5108 *     6.5108      -4.4550 *  0.0000     1          
   162  Cl    c     -4.5040 *    -8.9099 *    -2.2520 *  0.0000     2          
   163  O     c      6.5108 *    -6.7070 *     4.3569 *  0.0000     2          
   164  O     c      6.5108 *    -6.7070 *    -4.4550 *  0.0000     2          
   165  O     c     -6.7070 *    -6.7070       4.3569 *  0.0000     1          
   166  O     c     -6.7070 *    -6.7070      -4.4550 *  0.0000     1          
   167  Na    c      8.7138 *     6.5108 *    -0.0490 *  0.0000     2          
   168  Cl    c     -0.0981 *     8.7138 *     6.5598 *  0.0000     2          
   169  Na    c     -0.0981 *     6.5108 *     8.7628 *  0.0000     2          
   170  Na    c     -0.0981 *    10.9167 *    -0.0490 *  0.0000     2          
   171  Cl    c     -0.0981 *    -0.0981      10.9658 *  0.0000     1          
   172  Cl    c     -0.0981 *     8.7138 *    -6.6579 *  0.0000     2          
   173  Na    c     -0.0981 *     6.5108 *    -8.8609 *  0.0000     2          
   174  Na    c      8.7138 *    -6.7070 *    -0.0490 *  0.0000     2          
   175  Na    c     -0.0981 *    -6.7070 *     8.7628 *  0.0000     2          
   176  Na    c     -8.9099 *     6.5108 *    -0.0490 *  0.0000     2          
   177  Cl    c     -0.0981 *    -8.9099 *     6.5598 *  0.0000     2          
   178  Cl    c     -0.0981 *    -0.0981     -11.0638 *  0.0000     1          
   179  Na    c     -0.0981 *   -11.1129 *    -0.0490 *  0.0000     2          
   180  Na    c     -0.0981 *    -6.7070 *    -8.8609 *  0.0000     2          
   181  O     c      2.1049 *     6.5108 *     8.7628 *  0.0000     2          
   182  O     c      2.1049 *    10.9167 *    -0.0490 *  0.0000     2          
   183  Cl    c     -0.0981 *    -8.9099 *    -6.6579 *  0.0000     2          
   184  Na    c     -8.9099 *    -6.7070 *    -0.0490 *  0.0000     2          
   185  O     c      6.5108 *    -2.3010 *     8.7628 *  0.0000     2          
   186  O     c     10.9167 *    -2.3010 *    -0.0490 *  0.0000     2          
   187  O     c      2.1049 *     6.5108 *    -8.8609 *  0.0000     2          
   188  O     c      2.1049 *    -6.7070 *     8.7628 *  0.0000     2          
   189  O     c      6.5108 *    -2.3010 *    -8.8609 *  0.0000     2          
   190  O     c     -2.3010 *    -6.7070 *     8.7628 *  0.0000     2          
   191  Na    c      6.5108 *     6.5108       6.5598 *  0.0000     1          
   192  O     c      2.1049 *   -11.1129 *    -0.0490 *  0.0000     2          
   193  O     c      2.1049 *    -6.7070 *    -8.8609 *  0.0000     2          
   194  Na    c      2.1049 *    10.9167 *     2.1539 *  0.0000     2          
   195  Na    c      2.1049 *    10.9167 *    -2.2520 *  0.0000     2          
   196  O     c     -2.3010 *   -11.1129 *    -0.0490 *  0.0000     2          
   197  O     c     -2.3010 *    -6.7070 *    -8.8609 *  0.0000     2          
   198  Na    c      2.1049 *     2.1049      10.9658 *  0.0000     1          
   199  Na    c      6.5108 *     6.5108      -6.6579 *  0.0000     1          
   200  Na    c     10.9167 *    -2.3010 *     2.1539 *  0.0000     2          
   201  Na    c     10.9167 *    -2.3010 *    -2.2520 *  0.0000     2          
   202  Na    c      2.1049 *    -2.3010 *    10.9658 *  0.0000     2          
   203  Na    c      6.5108 *    -6.7070 *     6.5598 *  0.0000     2          
   204  Na    c     -2.3010 *    -2.3010      10.9658 *  0.0000     1          
   205  Na    c      2.1049 *     2.1049     -11.0638 *  0.0000     1          
   206  Na    c      6.5108 *    -6.7070 *    -6.6579 *  0.0000     2          
   207  Na    c      2.1049 *    -2.3010 *   -11.0638 *  0.0000     2          
   208  Na    c      2.1049 *   -11.1129 *     2.1539 *  0.0000     2          
   209  Na    c      2.1049 *   -11.1129 *    -2.2520 *  0.0000     2          
   210  Na    c     -2.3010 *    -2.3010     -11.0638 *  0.0000     1          
   211  Na    c     -6.7070 *    -6.7070       6.5598 *  0.0000     1          
   212  Na    c     -2.3010 *   -11.1129 *     2.1539 *  0.0000     2          
   213  Na    c     -2.3010 *   -11.1129 *    -2.2520 *  0.0000     2          
   214  Na    c     -6.7070 *    -6.7070      -6.6579 *  0.0000     1          
   215  Na    c      8.7138 *     6.5108 *     4.3569 *  0.0000     2          
   216  Cl    c      4.3078 *     8.7138 *     6.5598 *  0.0000     2          
   217  Na    c      4.3078 *     6.5108 *     8.7628 *  0.0000     2          
   218  Na    c      4.3078 *    10.9167 *    -0.0490 *  0.0000     2          
   219  Na    c     -0.0981 *    10.9167 *     4.3569 *  0.0000     2          
   220  Na    c      8.7138 *     6.5108 *    -4.4550 *  0.0000     2          
   221  Cl    c     -0.0981 *     4.3078 *    10.9658 *  0.0000     2          
   222  Cl    c      4.3078 *     8.7138 *    -6.6579 *  0.0000     2          
   223  Na    c     -0.0981 *    10.9167 *    -4.4550 *  0.0000     2          
   224  Cl    c      8.7138 *    -4.5040 *     6.5598 *  0.0000     2          
   225  Na    c     -4.5040 *     6.5108 *     8.7628 *  0.0000     2          
   226  Na    c      4.3078 *     6.5108 *    -8.8609 *  0.0000     2          
   227  Na    c     -4.5040 *    10.9167 *    -0.0490 *  0.0000     2          
   228  Na    c      8.7138 *    -6.7070 *     4.3569 *  0.0000     2          
   229  Na    c      4.3078 *    -6.7070 *     8.7628 *  0.0000     2          
   230  Cl    c     -0.0981 *    -4.5040 *    10.9658 *  0.0000     2          
   231  Cl    c      8.7138 *    -4.5040 *    -6.6579 *  0.0000     2          
   232  Na    c      8.7138 *    -6.7070 *    -4.4550 *  0.0000     2          
   233  Na    c     -8.9099 *     6.5108 *     4.3569 *  0.0000     2          
   234  Cl    c      4.3078 *    -8.9099 *     6.5598 *  0.0000     2          
   235  Cl    c     -0.0981 *     4.3078 *   -11.0638 *  0.0000     2          
   236  Na    c     -4.5040 *     6.5108 *    -8.8609 *  0.0000     2          
   237  Na    c     -8.9099 *     6.5108 *    -4.4550 *  0.0000     2          
   238  Na    c      4.3078 *   -11.1129 *    -0.0490 *  0.0000     2          
   239  Na    c     -4.5040 *    -6.7070 *     8.7628 *  0.0000     2          
   240  Na    c      4.3078 *    -6.7070 *    -8.8609 *  0.0000     2          
   241  Cl    c      4.3078 *    -8.9099 *    -6.6579 *  0.0000     2          
   242  Na    c     -0.0981 *   -11.1129 *     4.3569 *  0.0000     2          
   243  O     c      2.1049 *    10.9167 *     4.3569 *  0.0000     2          
   244  Cl    c     -0.0981 *    -4.5040 *   -11.0638 *  0.0000     2          
   245  Cl    c     -4.5040 *    -8.9099 *     6.5598 *  0.0000     2          
   246  Na    c     -0.0981 *   -11.1129 *    -4.4550 *  0.0000     2          
   247  Na    c     -8.9099 *    -6.7070 *     4.3569 *  0.0000     2          
   248  O     c      2.1049 *    10.9167 *    -4.4550 *  0.0000     2          
   249  O     c     10.9167 *    -2.3010 *     4.3569 *  0.0000     2          
   250  Na    c     -4.5040 *   -11.1129 *    -0.0490 *  0.0000     2          
   251  Na    c     -4.5040 *    -6.7070 *    -8.8609 *  0.0000     2          
   252  O     s      0.0000       0.0000       0.0000    0.0000     1    Defect
   253  Cl    s     -0.0981 *    -0.0981       2.1539 *  0.0000     1          
   254  Cl    s     -0.0981 *    -0.0981      -2.2520 *  0.0000     1          
   255  O     s      2.1049 *     2.1049      -0.0490 *  0.0000     1          
   256  O     s      2.1049 *    -2.3010 *    -0.0490 *  0.0000     2          
   257  Cl    s     -0.0981 *     4.3078 *     2.1539 *  0.0000     2          
   258  Cl    s     -0.0981 *     4.3078 *    -2.2520 *  0.0000     2          
   259  Cl    s     -0.0981 *    -4.5040 *     2.1539 *  0.0000     2          
   260  Cl    s     -0.0981 *    -4.5040 *    -2.2520 *  0.0000     2          
   261  O     s      2.1049 *     2.1049       4.3569 *  0.0000     1          
   262  O     s      2.1049 *     2.1049      -4.4550 *  0.0000     1          
   263  O     s      2.1049 *    -2.3010 *     4.3569 *  0.0000     2          
   264  O     s      2.1049 *    -2.3010 *    -4.4550 *  0.0000     2          
   265  O     s     -2.3010 *    -2.3010       4.3569 *  0.0000     1          
   266  O     s     -2.3010 *    -2.3010      -4.4550 *  0.0000     1          
   267  Cl    s      4.3078 *     4.3078       2.1539 *  0.0000     1          
   268  Cl    s      4.3078 *     4.3078      -2.2520 *  0.0000     1          
   269  Cl    s     -0.0981 *    -0.0981       6.5598 *  0.0000     1          
   270  Cl    s      4.3078 *    -4.5040 *     2.1539 *  0.0000     2          
   271  Cl    s      4.3078 *    -4.5040 *    -2.2520 *  0.0000     2          
   272  Cl    s     -0.0981 *    -0.0981      -6.6579 *  0.0000     1          
   273  Cl    s     -4.5040 *    -4.5040       2.1539 *  0.0000     1          
   274  Cl    s     -4.5040 *    -4.5040      -2.2520 *  0.0000     1          
   275  O     s      2.1049 *     6.5108 *    -0.0490 *  0.0000     2          
   276  O     s      6.5108 *    -2.3010 *    -0.0490 *  0.0000     2          
   277  O     s      2.1049 *    -6.7070 *    -0.0490 *  0.0000     2          
   278  O     s     -2.3010 *    -6.7070 *    -0.0490 *  0.0000     2          
   279  Cl    s     -0.0981 *     4.3078 *     6.5598 *  0.0000     2          
   280  Cl    s     -0.0981 *     4.3078 *    -6.6579 *  0.0000     2          
   281  Cl    s     -0.0981 *    -4.5040 *     6.5598 *  0.0000     2          
   282  Cl    s     -0.0981 *    -4.5040 *    -6.6579 *  0.0000     2          
   283  O     s      2.1049 *     6.5108 *     4.3569 *  0.0000     2          
   284  O     s      2.1049 *     6.5108 *    -4.4550 *  0.0000     2          
   285  O     s      6.5108 *    -2.3010 *     4.3569 *  0.0000     2          
   286  O     s      6.5108 *    -2.3010 *    -4.4550 *  0.0000     2          
   287  O     s      2.1049 *    -6.7070 *     4.3569 *  0.0000     2          
   288  O     s      2.1049 *    -6.7070 *    -4.4550 *  0.0000     2          
   289  O     s     -2.3010 *    -6.7070 *     4.3569 *  0.0000     2          
   290  O     s     -2.3010 *    -6.7070 *    -4.4550 *  0.0000     2          
   291  Cl    s      4.3078 *     4.3078       6.5598 *  0.0000     1          
   292  Cl    s     -0.0981 *     8.7138 *     2.1539 *  0.0000     2          
   293  Cl    s     -0.0981 *     8.7138 *    -2.2520 *  0.0000     2          
   294  Cl    s      4.3078 *     4.3078      -6.6579 *  0.0000     1          
   295  Cl    s      4.3078 *    -4.5040 *     6.5598 *  0.0000     2          
   296  Cl    s      4.3078 *    -4.5040 *    -6.6579 *  0.0000     2          
   297  Cl    s     -4.5040 *    -4.5040       6.5598 *  0.0000     1          
   298  Cl    s     -0.0981 *    -8.9099 *     2.1539 *  0.0000     2          
   299  Cl    s     -0.0981 *    -8.9099 *    -2.2520 *  0.0000     2          
   300  O     s      6.5108 *     6.5108      -0.0490 *  0.0000     1          
   301  Cl    s     -4.5040 *    -4.5040      -6.6579 *  0.0000     1          
   302  O     s      2.1049 *     2.1049       8.7628 *  0.0000     1          
   303  O     s      2.1049 *    -2.3010 *     8.7628 *  0.0000     2          
   304  O     s     -2.3010 *    -2.3010       8.7628 *  0.0000     1          
   305  O     s      2.1049 *     2.1049      -8.8609 *  0.0000     1          
   306  O     s      6.5108 *    -6.7070 *    -0.0490 *  0.0000     2          
   307  O     s      2.1049 *    -2.3010 *    -8.8609 *  0.0000     2          
   308  O     s     -2.3010 *    -2.3010      -8.8609 *  0.0000     1          
   309  O     s     -6.7070 *    -6.7070      -0.0490 *  0.0000     1          
   310  Cl    s      4.3078 *     8.7138 *     2.1539 *  0.0000     2          
   311  Cl    s      4.3078 *     8.7138 *    -2.2520 *  0.0000     2          
   312  Cl    s      8.7138 *    -4.5040 *     2.1539 *  0.0000     2          
   313  Cl    s      8.7138 *    -4.5040 *    -2.2520 *  0.0000     2          
   314  Cl    s      4.3078 *    -8.9099 *     2.1539 *  0.0000     2          
   315  Cl    s      4.3078 *    -8.9099 *    -2.2520 *  0.0000     2          
   316  O     s      6.5108 *     6.5108       4.3569 *  0.0000     1          
   317  Cl    s     -4.5040 *    -8.9099 *     2.1539 *  0.0000     2          
   318  O     s      6.5108 *     6.5108      -4.4550 *  0.0000     1          
   319  Cl    s     -4.5040 *    -8.9099 *    -2.2520 *  0.0000     2          
   320  O     s      6.5108 *    -6.7070 *     4.3569 *  0.0000     2          
   321  O     s      6.5108 *    -6.7070 *    -4.4550 *  0.0000     2          
   322  O     s     -6.7070 *    -6.7070       4.3569 *  0.0000     1          
   323  O     s     -6.7070 *    -6.7070      -4.4550 *  0.0000     1          
   324  Cl    s     -0.0981 *     8.7138 *     6.5598 *  0.0000     2          
   325  Cl    s     -0.0981 *    -0.0981      10.9658 *  0.0000     1          
   326  Cl    s     -0.0981 *     8.7138 *    -6.6579 *  0.0000     2          
   327  Cl    s     -0.0981 *    -8.9099 *     6.5598 *  0.0000     2          
   328  Cl    s     -0.0981 *    -0.0981     -11.0638 *  0.0000     1          
   329  O     s      2.1049 *     6.5108 *     8.7628 *  0.0000     2          
   330  O     s      2.1049 *    10.9167 *    -0.0490 *  0.0000     2          
   331  Cl    s     -0.0981 *    -8.9099 *    -6.6579 *  0.0000     2          
   332  O     s      6.5108 *    -2.3010 *     8.7628 *  0.0000     2          
   333  O     s     10.9167 *    -2.3010 *    -0.0490 *  0.0000     2          
   334  O     s      2.1049 *     6.5108 *    -8.8609 *  0.0000     2          
   335  O     s      2.1049 *    -6.7070 *     8.7628 *  0.0000     2          
   336  O     s      6.5108 *    -2.3010 *    -8.8609 *  0.0000     2          
   337  O     s     -2.3010 *    -6.7070 *     8.7628 *  0.0000     2          
   338  O     s      2.1049 *   -11.1129 *    -0.0490 *  0.0000     2          
   339  O     s      2.1049 *    -6.7070 *    -8.8609 *  0.0000     2          
   340  O     s     -2.3010 *   -11.1129 *    -0.0490 *  0.0000     2          
   341  O     s     -2.3010 *    -6.7070 *    -8.8609 *  0.0000     2          
   342  Cl    s      4.3078 *     8.7138 *     6.5598 *  0.0000     2          
   343  Cl    s     -0.0981 *     4.3078 *    10.9658 *  0.0000     2          
   344  Cl    s      4.3078 *     8.7138 *    -6.6579 *  0.0000     2          
   345  Cl    s      8.7138 *    -4.5040 *     6.5598 *  0.0000     2          
   346  Cl    s     -0.0981 *    -4.5040 *    10.9658 *  0.0000     2          
   347  Cl    s      8.7138 *    -4.5040 *    -6.6579 *  0.0000     2          
   348  Cl    s      4.3078 *    -8.9099 *     6.5598 *  0.0000     2          
   349  Cl    s     -0.0981 *     4.3078 *   -11.0638 *  0.0000     2          
   350  Cl    s      4.3078 *    -8.9099 *    -6.6579 *  0.0000     2          
   351  O     s      2.1049 *    10.9167 *     4.3569 *  0.0000     2          
   352  Cl    s     -0.0981 *    -4.5040 *   -11.0638 *  0.0000     2          
   353  Cl    s     -4.5040 *    -8.9099 *     6.5598 *  0.0000     2          
   354  O     s      2.1049 *    10.9167 *    -4.4550 *  0.0000     2          
   355  O     s     10.9167 *    -2.3010 *     4.3569 *  0.0000     2          
--------------------------------------------------------------------------------


  Constraints on symmetry reduced coordinates :

--------------------------------------------------------------------------------
  Constraint no.      Unconstrained     Constrained    Coefficient    
                         Variable         Variable
--------------------------------------------------------------------------------
           1                 3 x             3 y         1.00000
           2                 4 x             4 y         1.00000
           3                 6 x             6 y         1.00000
           4                 8 x             8 y         1.00000
           5                 9 x             9 y         1.00000
           6                12 x            12 y         1.00000
           7                13 x            13 y         1.00000
           8                26 x            26 y         1.00000
           9                27 x            27 y         1.00000
          10                30 x            30 y         1.00000
          11                31 x            31 y         1.00000
          12                32 x            32 y         1.00000
          13                34 x            34 y         1.00000
          14                38 x            38 y         1.00000
          15                43 x            43 y         1.00000
          16                47 x            47 y         1.00000
          17                49 x            49 y         1.00000
          18                55 x            55 y         1.00000
          19                60 x            60 y         1.00000
          20                61 x            61 y         1.00000
          21                65 x            65 y         1.00000
          22                89 x            89 y         1.00000
          23                96 x            96 y         1.00000
          24               105 x           105 y         1.00000
          25               112 x           112 y         1.00000
          26               113 x           113 y         1.00000
          27               115 x           115 y         1.00000
          28               117 x           117 y         1.00000
          29               118 x           118 y         1.00000
          30               121 x           121 y         1.00000
          31               122 x           122 y         1.00000
          32               124 x           124 y         1.00000
          33               125 x           125 y         1.00000
          34               135 x           135 y         1.00000
          35               136 x           136 y         1.00000
          36               157 x           157 y         1.00000
          37               161 x           161 y         1.00000
          38               165 x           165 y         1.00000
          39               166 x           166 y         1.00000
          40               171 x           171 y         1.00000
          41               178 x           178 y         1.00000
          42               191 x           191 y         1.00000
          43               198 x           198 y         1.00000
          44               199 x           199 y         1.00000
          45               204 x           204 y         1.00000
          46               205 x           205 y         1.00000
          47               210 x           210 y         1.00000
          48               211 x           211 y         1.00000
          49               214 x           214 y         1.00000
          50               253 x           253 y         1.00000
          51               254 x           254 y         1.00000
          52               255 x           255 y         1.00000
          53               261 x           261 y         1.00000
          54               262 x           262 y         1.00000
          55               265 x           265 y         1.00000
          56               266 x           266 y         1.00000
          57               267 x           267 y         1.00000
          58               268 x           268 y         1.00000
          59               269 x           269 y         1.00000
          60               272 x           272 y         1.00000
          61               273 x           273 y         1.00000
          62               274 x           274 y         1.00000
          63               291 x           291 y         1.00000
          64               294 x           294 y         1.00000
          65               297 x           297 y         1.00000
          66               300 x           300 y         1.00000
          67               301 x           301 y         1.00000
          68               302 x           302 y         1.00000
          69               304 x           304 y         1.00000
          70               305 x           305 y         1.00000
          71               308 x           308 y         1.00000
          72               309 x           309 y         1.00000
          73               316 x           316 y         1.00000
          74               318 x           318 y         1.00000
          75               322 x           322 y         1.00000
          76               323 x           323 y         1.00000
          77               325 x           325 y         1.00000
          78               328 x           328 y         1.00000
--------------------------------------------------------------------------------


  Components of defect energy : 

--------------------------------------------------------------------------------
  Region 1 - region 1                   =     27.22613368 eV
  Region 1 - region 2a (unrelaxed)      =     -5.50096206 eV
  Region 1 - 2a (relaxed - correction)  =     -1.38919623 eV
  Region 1 (Total)                      =     20.33597539 eV
  Region 2a                             =      0.69794959 eV
  Region 2b                             =      0.00000000 eV
--------------------------------------------------------------------------------
  Total defect energy                   =     21.03392498 eV
--------------------------------------------------------------------------------

  Largest displacement in region 2 =   0.2493 Angstroms


  Number of variables =      981

  Maximum number of calculations  =        1000
  Maximum Hessian update interval =          10
  Maximum step size               =   1.0000000
  Maximum parameter tolerance     =   0.0000100
  Maximum function  tolerance     =   0.0000100
  Maximum gradient  tolerance     =   0.0010000

  Symmetry adapted optimisation

  Symmetry to be used for second derivatives

  Conjugate gradient optimiser to be used

  BFGS hessian update to be used

  Lower half triangular hessian to be used

  Start of defect optimisation :

  Cycle:      0 Defect Energy:  21.033925  Gnorm:     0.039500  CPU:    0.971
  Cycle:      1 Defect Energy:  19.383804  Gnorm:     0.042762  CPU:    2.667
  Cycle:      2 Defect Energy:  17.547368  Gnorm:     0.041906  CPU:    4.089
  Cycle:      3 Defect Energy:  14.857045  Gnorm:     0.023521  CPU:    5.778
  Cycle:      4 Defect Energy:  14.093239  Gnorm:     0.022866  CPU:    7.199
  Cycle:      5 Defect Energy:  13.159881  Gnorm:     0.019690  CPU:    8.888
  Cycle:      6 Defect Energy:  12.419023  Gnorm:     0.019312  CPU:   10.574
  Cycle:      7 Defect Energy:  11.635051  Gnorm:     0.013629  CPU:   12.270
  Cycle:      8 Defect Energy:  11.213470  Gnorm:     0.014016  CPU:   13.970
  Cycle:      9 Defect Energy:  10.761503  Gnorm:     0.012528  CPU:   15.647
  Cycle:     10 Defect Energy:  10.693203  Gnorm:     0.013161  CPU:   16.793
  Cycle:     11 Defect Energy:  10.441443  Gnorm:     0.011317  CPU:   18.751
  Cycle:     12 Defect Energy:  10.398090  Gnorm:     0.010516  CPU:   19.893
  Cycle:     13 Defect Energy:  10.246582  Gnorm:     0.008778  CPU:   21.855
  Cycle:     14 Defect Energy:  10.160253  Gnorm:     0.009033  CPU:   23.536
  Cycle:     15 Defect Energy:  10.045758  Gnorm:     0.010538  CPU:   25.211
  Cycle:     16 Defect Energy:   9.870885  Gnorm:     0.009580  CPU:   26.911
  Cycle:     17 Defect Energy:   9.668610  Gnorm:     0.007881  CPU:   28.625
  Cycle:     18 Defect Energy:   9.531537  Gnorm:     0.008891  CPU:   30.310
  Cycle:     19 Defect Energy:   9.330644  Gnorm:     0.007244  CPU:   31.994
  Cycle:     20 Defect Energy:   9.304262  Gnorm:     0.007192  CPU:   33.131
  Cycle:     21 Defect Energy:   9.239177  Gnorm:     0.006106  CPU:   34.822
  Cycle:     22 Defect Energy:   9.184504  Gnorm:     0.005648  CPU:   36.518
  Cycle:     23 Defect Energy:   9.136189  Gnorm:     0.005636  CPU:   38.201
  Cycle:     24 Defect Energy:   9.094026  Gnorm:     0.006896  CPU:   39.878
  Cycle:     25 Defect Energy:   9.027199  Gnorm:     0.006834  CPU:   41.558
  Cycle:     26 Defect Energy:   8.936113  Gnorm:     0.006292  CPU:   43.246
  Cycle:     27 Defect Energy:   8.844566  Gnorm:     0.006355  CPU:   44.919
  Cycle:     28 Defect Energy:   8.739407  Gnorm:     0.006041  CPU:   46.625
  Cycle:     29 Defect Energy:   8.634055  Gnorm:     0.005826  CPU:   48.322
  Cycle:     30 Defect Energy:   8.619756  Gnorm:     0.006211  CPU:   49.476
  Cycle:     31 Defect Energy:   8.563042  Gnorm:     0.005425  CPU:   51.518
  Cycle:     32 Defect Energy:   8.552158  Gnorm:     0.005690  CPU:   52.687
  Cycle:     33 Defect Energy:   8.505914  Gnorm:     0.004314  CPU:   54.720
  Cycle:     34 Defect Energy:   8.486573  Gnorm:     0.004684  CPU:   56.472
  Cycle:     35 Defect Energy:   8.459794  Gnorm:     0.005903  CPU:   58.203
  Cycle:     36 Defect Energy:   8.411693  Gnorm:     0.004361  CPU:   59.934
  Cycle:     37 Defect Energy:   8.379302  Gnorm:     0.004745  CPU:   61.668
  Cycle:     38 Defect Energy:   8.342450  Gnorm:     0.005844  CPU:   63.422
  Cycle:     39 Defect Energy:   8.279859  Gnorm:     0.003996  CPU:   65.160
  Cycle:     40 Defect Energy:   8.275704  Gnorm:     0.003848  CPU:   65.489
  Cycle:     41 Defect Energy:   8.271833  Gnorm:     0.003831  CPU:   65.812
  Cycle:     42 Defect Energy:   8.267935  Gnorm:     0.003824  CPU:   66.143
  Cycle:     43 Defect Energy:   8.264044  Gnorm:     0.003818  CPU:   66.471
  Cycle:     44 Defect Energy:   8.260164  Gnorm:     0.003812  CPU:   66.793
  Cycle:     45 Defect Energy:   8.256295  Gnorm:     0.003807  CPU:   67.115
  Cycle:     46 Defect Energy:   8.252437  Gnorm:     0.003801  CPU:   67.447
  Cycle:     47 Defect Energy:   8.248589  Gnorm:     0.003796  CPU:   67.770
  Cycle:     48 Defect Energy:   8.244753  Gnorm:     0.003790  CPU:   68.099
  Cycle:     49 Defect Energy:   8.240927  Gnorm:     0.003785  CPU:   68.435
  Cycle:     50 Defect Energy:   8.237106  Gnorm:     0.003779  CPU:   68.757
  Cycle:     51 Defect Energy:   8.233302  Gnorm:     0.003774  CPU:   69.079
  Cycle:     52 Defect Energy:   8.229508  Gnorm:     0.003769  CPU:   69.408
  Cycle:     53 Defect Energy:   8.225725  Gnorm:     0.003763  CPU:   69.731
  Cycle:     54 Defect Energy:   8.221952  Gnorm:     0.003758  CPU:   70.054
  Cycle:     55 Defect Energy:   8.218190  Gnorm:     0.003753  CPU:   70.388
  Cycle:     56 Defect Energy:   8.214438  Gnorm:     0.003747  CPU:   70.713
  Cycle:     57 Defect Energy:   8.210697  Gnorm:     0.003742  CPU:   71.035
  Cycle:     58 Defect Energy:   8.206966  Gnorm:     0.003737  CPU:   71.360
  Cycle:     59 Defect Energy:   8.203245  Gnorm:     0.003731  CPU:   71.682
  Cycle:     60 Defect Energy:   8.199529  Gnorm:     0.003726  CPU:   72.011
  Cycle:     61 Defect Energy:   8.195828  Gnorm:     0.003721  CPU:   72.349
  Cycle:     62 Defect Energy:   8.192138  Gnorm:     0.003716  CPU:   72.684
  Cycle:     63 Defect Energy:   8.188458  Gnorm:     0.003711  CPU:   73.017
  Cycle:     64 Defect Energy:   8.184787  Gnorm:     0.003706  CPU:   73.354
  Cycle:     65 Defect Energy:   8.181127  Gnorm:     0.003700  CPU:   73.686
  Cycle:     66 Defect Energy:   8.177477  Gnorm:     0.003695  CPU:   74.017
  Cycle:     67 Defect Energy:   8.173836  Gnorm:     0.003690  CPU:   74.345
  Cycle:     68 Defect Energy:   8.170205  Gnorm:     0.003685  CPU:   74.667
  Cycle:     69 Defect Energy:   8.166584  Gnorm:     0.003680  CPU:   74.990
  Cycle:     70 Defect Energy:   8.162968  Gnorm:     0.003675  CPU:   75.320
  Cycle:     71 Defect Energy:   8.159367  Gnorm:     0.003670  CPU:   75.644
  Cycle:     72 Defect Energy:   8.155775  Gnorm:     0.003665  CPU:   75.973
  Cycle:     73 Defect Energy:   8.152192  Gnorm:     0.003660  CPU:   76.317
  Cycle:     74 Defect Energy:   8.148619  Gnorm:     0.003655  CPU:   76.650
  Cycle:     75 Defect Energy:   8.145056  Gnorm:     0.003650  CPU:   76.981
  Cycle:     76 Defect Energy:   8.141502  Gnorm:     0.003645  CPU:   77.317
  Cycle:     77 Defect Energy:   8.137957  Gnorm:     0.003640  CPU:   77.649
  Cycle:     78 Defect Energy:   8.134422  Gnorm:     0.003635  CPU:   77.982
  Cycle:     79 Defect Energy:   8.130896  Gnorm:     0.003630  CPU:   78.319
  Cycle:     80 Defect Energy:   8.127375  Gnorm:     0.003625  CPU:   78.642
  Cycle:     81 Defect Energy:   8.123867  Gnorm:     0.003621  CPU:   78.964
  Cycle:     82 Defect Energy:   8.120369  Gnorm:     0.003616  CPU:   79.295
  Cycle:     83 Defect Energy:   8.116880  Gnorm:     0.003611  CPU:   79.620
  Cycle:     84 Defect Energy:   8.113399  Gnorm:     0.003606  CPU:   79.943
  Cycle:     85 Defect Energy:   8.109928  Gnorm:     0.003601  CPU:   80.271
  Cycle:     86 Defect Energy:   8.106466  Gnorm:     0.003597  CPU:   80.595
  Cycle:     87 Defect Energy:   8.103013  Gnorm:     0.003592  CPU:   80.917
  Cycle:     88 Defect Energy:   8.099569  Gnorm:     0.003587  CPU:   81.242
  Cycle:     89 Defect Energy:   8.096134  Gnorm:     0.003582  CPU:   81.566
  Cycle:     90 Defect Energy:   8.092703  Gnorm:     0.003578  CPU:   81.890
  Cycle:     91 Defect Energy:   8.089285  Gnorm:     0.003573  CPU:   82.218
  Cycle:     92 Defect Energy:   8.085876  Gnorm:     0.003568  CPU:   82.553
  Cycle:     93 Defect Energy:   8.082476  Gnorm:     0.003564  CPU:   82.890
  Cycle:     94 Defect Energy:   8.079084  Gnorm:     0.003559  CPU:   83.230
  Cycle:     95 Defect Energy:   8.075701  Gnorm:     0.003554  CPU:   83.557
  Cycle:     96 Defect Energy:   8.072327  Gnorm:     0.003550  CPU:   83.880
  Cycle:     97 Defect Energy:   8.068961  Gnorm:     0.003545  CPU:   84.207
  Cycle:     98 Defect Energy:   8.065603  Gnorm:     0.003540  CPU:   84.531
  Cycle:     99 Defect Energy:   8.062254  Gnorm:     0.003536  CPU:   84.853
  Cycle:    100 Defect Energy:   8.058910  Gnorm:     0.003531  CPU:   85.187
  Cycle:    101 Defect Energy:   8.055578  Gnorm:     0.003527  CPU:   85.525
  Cycle:    102 Defect Energy:   8.052254  Gnorm:     0.003522  CPU:   85.851
  Cycle:    103 Defect Energy:   8.048939  Gnorm:     0.003518  CPU:   86.184
  Cycle:    104 Defect Energy:   8.045631  Gnorm:     0.003513  CPU:   86.509
  Cycle:    105 Defect Energy:   8.042333  Gnorm:     0.003509  CPU:   86.831
  Cycle:    106 Defect Energy:   8.039042  Gnorm:     0.003504  CPU:   87.160
  Cycle:    107 Defect Energy:   8.035759  Gnorm:     0.003500  CPU:   87.529
  Cycle:    108 Defect Energy:   8.032485  Gnorm:     0.003495  CPU:   87.876
  Cycle:    109 Defect Energy:   8.029219  Gnorm:     0.003491  CPU:   88.215
  Cycle:    110 Defect Energy:   8.025956  Gnorm:     0.003486  CPU:   88.546
  Cycle:    111 Defect Energy:   8.022706  Gnorm:     0.003482  CPU:   88.869
  Cycle:    112 Defect Energy:   8.019464  Gnorm:     0.003478  CPU:   89.195
  Cycle:    113 Defect Energy:   8.016230  Gnorm:     0.003473  CPU:   89.521
  Cycle:    114 Defect Energy:   8.013003  Gnorm:     0.003469  CPU:   89.843
  Cycle:    115 Defect Energy:   8.009785  Gnorm:     0.003464  CPU:   90.170
  Cycle:    116 Defect Energy:   8.006574  Gnorm:     0.003460  CPU:   90.498
  Cycle:    117 Defect Energy:   8.003372  Gnorm:     0.003456  CPU:   90.820
  Cycle:    118 Defect Energy:   8.000177  Gnorm:     0.003451  CPU:   91.142
  Cycle:    119 Defect Energy:   7.996989  Gnorm:     0.003447  CPU:   91.471
  Cycle:    120 Defect Energy:   7.993806  Gnorm:     0.003443  CPU:   91.792
  Cycle:    121 Defect Energy:   7.990634  Gnorm:     0.003439  CPU:   92.115
  Cycle:    122 Defect Energy:   7.987470  Gnorm:     0.003434  CPU:   92.454
  Cycle:    123 Defect Energy:   7.984313  Gnorm:     0.003430  CPU:   92.787
  Cycle:    124 Defect Energy:   7.981164  Gnorm:     0.003426  CPU:   93.111
  Cycle:    125 Defect Energy:   7.978023  Gnorm:     0.003422  CPU:   93.442
  Cycle:    126 Defect Energy:   7.974889  Gnorm:     0.003417  CPU:   93.764
  Cycle:    127 Defect Energy:   7.971763  Gnorm:     0.003413  CPU:   94.089
  Cycle:    128 Defect Energy:   7.968644  Gnorm:     0.003409  CPU:   94.420
  Cycle:    129 Defect Energy:   7.965532  Gnorm:     0.003405  CPU:   94.743
  Cycle:    130 Defect Energy:   7.962424  Gnorm:     0.003401  CPU:   95.066
  Cycle:    131 Defect Energy:   7.959327  Gnorm:     0.003396  CPU:   95.394
  Cycle:    132 Defect Energy:   7.956238  Gnorm:     0.003392  CPU:   95.719
  Cycle:    133 Defect Energy:   7.953156  Gnorm:     0.003388  CPU:   96.047
  Cycle:    134 Defect Energy:   7.950081  Gnorm:     0.003384  CPU:   96.380
  Cycle:    135 Defect Energy:   7.947013  Gnorm:     0.003380  CPU:   96.702
  Cycle:    136 Defect Energy:   7.943953  Gnorm:     0.003376  CPU:   97.025
  Cycle:    137 Defect Energy:   7.940899  Gnorm:     0.003372  CPU:   97.352
  Cycle:    138 Defect Energy:   7.937853  Gnorm:     0.003368  CPU:   97.698
  Cycle:    139 Defect Energy:   7.934814  Gnorm:     0.003364  CPU:   98.045
  Cycle:    140 Defect Energy:   7.931779  Gnorm:     0.003360  CPU:   98.384
  Cycle:    141 Defect Energy:   7.928754  Gnorm:     0.003356  CPU:   98.728
  Cycle:    142 Defect Energy:   7.925736  Gnorm:     0.003352  CPU:   99.091
  Cycle:    143 Defect Energy:   7.922725  Gnorm:     0.003348  CPU:   99.436
  Cycle:    144 Defect Energy:   7.919721  Gnorm:     0.003344  CPU:   99.780
  Cycle:    145 Defect Energy:   7.916724  Gnorm:     0.003340  CPU:  100.126
  Cycle:    146 Defect Energy:   7.913734  Gnorm:     0.003336  CPU:  100.479
  Cycle:    147 Defect Energy:   7.910751  Gnorm:     0.003332  CPU:  100.922
  Cycle:    148 Defect Energy:   7.907775  Gnorm:     0.003328  CPU:  101.347
  Cycle:    149 Defect Energy:   7.904806  Gnorm:     0.003324  CPU:  101.769
  Cycle:    150 Defect Energy:   7.901840  Gnorm:     0.003320  CPU:  102.126
  Cycle:    151 Defect Energy:   7.898884  Gnorm:     0.003316  CPU:  102.505
  Cycle:    152 Defect Energy:   7.895935  Gnorm:     0.003312  CPU:  102.891
  Cycle:    153 Defect Energy:   7.892992  Gnorm:     0.003308  CPU:  103.237
  Cycle:    154 Defect Energy:   7.890057  Gnorm:     0.003304  CPU:  103.593
  Cycle:    155 Defect Energy:   7.887128  Gnorm:     0.003300  CPU:  103.931
  Cycle:    156 Defect Energy:   7.884206  Gnorm:     0.003296  CPU:  104.265
  Cycle:    157 Defect Energy:   7.881290  Gnorm:     0.003293  CPU:  104.597
  Cycle:    158 Defect Energy:   7.878381  Gnorm:     0.003289  CPU:  104.928
  Cycle:    159 Defect Energy:   7.875478  Gnorm:     0.003285  CPU:  105.256
  Cycle:    160 Defect Energy:   7.872579  Gnorm:     0.003281  CPU:  105.581
  Cycle:    161 Defect Energy:   7.869689  Gnorm:     0.003277  CPU:  105.921
  Cycle:    162 Defect Energy:   7.866806  Gnorm:     0.003274  CPU:  106.442
  Cycle:    163 Defect Energy:   7.863930  Gnorm:     0.003270  CPU:  106.903
  Cycle:    164 Defect Energy:   7.861060  Gnorm:     0.003266  CPU:  107.258
  Cycle:    165 Defect Energy:   7.858196  Gnorm:     0.003262  CPU:  107.614
  Cycle:    166 Defect Energy:   7.855339  Gnorm:     0.003258  CPU:  107.945
  Cycle:    167 Defect Energy:   7.852488  Gnorm:     0.003255  CPU:  108.287
  Cycle:    168 Defect Energy:   7.849644  Gnorm:     0.003251  CPU:  108.677
  Cycle:    169 Defect Energy:   7.846805  Gnorm:     0.003247  CPU:  109.034
  Cycle:    170 Defect Energy:   7.843970  Gnorm:     0.003243  CPU:  109.450
  Cycle:    171 Defect Energy:   7.841145  Gnorm:     0.003240  CPU:  109.863
  Cycle:    172 Defect Energy:   7.838325  Gnorm:     0.003236  CPU:  110.472
  Cycle:    173 Defect Energy:   7.835512  Gnorm:     0.003232  CPU:  110.949
  Cycle:    174 Defect Energy:   7.832705  Gnorm:     0.003229  CPU:  111.499
  Cycle:    175 Defect Energy:   7.829904  Gnorm:     0.003225  CPU:  111.996
  Cycle:    176 Defect Energy:   7.827109  Gnorm:     0.003221  CPU:  112.367
  Cycle:    177 Defect Energy:   7.824321  Gnorm:     0.003218  CPU:  113.082
  Cycle:    178 Defect Energy:   7.821538  Gnorm:     0.003214  CPU:  113.856
  Cycle:    179 Defect Energy:   7.818762  Gnorm:     0.003210  CPU:  114.661
  Cycle:    180 Defect Energy:   7.815989  Gnorm:     0.003207  CPU:  115.100
  Cycle:    181 Defect Energy:   7.813224  Gnorm:     0.003203  CPU:  115.580
  Cycle:    182 Defect Energy:   7.810466  Gnorm:     0.003200  CPU:  116.254
  Cycle:    183 Defect Energy:   7.807714  Gnorm:     0.003196  CPU:  116.843
  Cycle:    184 Defect Energy:   7.804968  Gnorm:     0.003192  CPU:  117.332
  Cycle:    185 Defect Energy:   7.802227  Gnorm:     0.003189  CPU:  117.819
  Cycle:    186 Defect Energy:   7.799493  Gnorm:     0.003185  CPU:  118.335
  Cycle:    187 Defect Energy:   7.796764  Gnorm:     0.003182  CPU:  118.737
  Cycle:    188 Defect Energy:   7.794042  Gnorm:     0.003178  CPU:  119.126
  Cycle:    189 Defect Energy:   7.791325  Gnorm:     0.003175  CPU:  119.505
  Cycle:    190 Defect Energy:   7.788611  Gnorm:     0.003171  CPU:  119.868
  Cycle:    191 Defect Energy:   7.785906  Gnorm:     0.003168  CPU:  120.267
  Cycle:    192 Defect Energy:   7.783207  Gnorm:     0.003164  CPU:  120.633
  Cycle:    193 Defect Energy:   7.780513  Gnorm:     0.003161  CPU:  121.008
  Cycle:    194 Defect Energy:   7.777825  Gnorm:     0.003157  CPU:  121.388
  Cycle:    195 Defect Energy:   7.775143  Gnorm:     0.003154  CPU:  121.756
  Cycle:    196 Defect Energy:   7.772467  Gnorm:     0.003150  CPU:  122.135
  Cycle:    197 Defect Energy:   7.769796  Gnorm:     0.003147  CPU:  122.509
  Cycle:    198 Defect Energy:   7.767131  Gnorm:     0.003143  CPU:  122.884
  Cycle:    199 Defect Energy:   7.764472  Gnorm:     0.003140  CPU:  123.271
[...]
  Cycle:    729 Defect Energy:   6.851286  Gnorm:     0.002013  CPU:  328.117
  Cycle:    730 Defect Energy:   6.850158  Gnorm:     0.002011  CPU:  328.453
  Cycle:    731 Defect Energy:   6.849033  Gnorm:     0.002010  CPU:  328.787
  Cycle:    732 Defect Energy:   6.847909  Gnorm:     0.002009  CPU:  329.121
  Cycle:    733 Defect Energy:   6.846787  Gnorm:     0.002007  CPU:  329.463
  Cycle:    734 Defect Energy:   6.845666  Gnorm:     0.002006  CPU:  329.792
  Cycle:    735 Defect Energy:   6.844546  Gnorm:     0.002005  CPU:  330.128
  Cycle:    736 Defect Energy:   6.843428  Gnorm:     0.002003  CPU:  330.462
  Cycle:    737 Defect Energy:   6.842312  Gnorm:     0.002002  CPU:  330.788
  Cycle:    738 Defect Energy:   6.841196  Gnorm:     0.002001  CPU:  331.122
  Cycle:    739 Defect Energy:   6.840082  Gnorm:     0.001999  CPU:  331.453
  Cycle:    740 Defect Energy:   6.838969  Gnorm:     0.001998  CPU:  331.785
  Cycle:    741 Defect Energy:   6.837858  Gnorm:     0.001997  CPU:  332.119
  Cycle:    742 Defect Energy:   6.836749  Gnorm:     0.001995  CPU:  332.452
  Cycle:    743 Defect Energy:   6.835641  Gnorm:     0.001994  CPU:  332.784
  Cycle:    744 Defect Energy:   6.834534  Gnorm:     0.001993  CPU:  333.123
  Cycle:    745 Defect Energy:   6.833428  Gnorm:     0.001991  CPU:  333.457
  Cycle:    746 Defect Energy:   6.832325  Gnorm:     0.001990  CPU:  333.793
  Cycle:    747 Defect Energy:   6.831222  Gnorm:     0.001989  CPU:  334.126
  Cycle:    748 Defect Energy:   6.830121  Gnorm:     0.001987  CPU:  334.460
  Cycle:    749 Defect Energy:   6.829021  Gnorm:     0.001986  CPU:  334.790
  Cycle:    750 Defect Energy:   6.827922  Gnorm:     0.001985  CPU:  335.124
  Cycle:    751 Defect Energy:   6.826825  Gnorm:     0.001984  CPU:  335.459
  Cycle:    752 Defect Energy:   6.825730  Gnorm:     0.001982  CPU:  335.790
  Cycle:    753 Defect Energy:   6.824635  Gnorm:     0.001981  CPU:  336.129
  Cycle:    754 Defect Energy:   6.823542  Gnorm:     0.001980  CPU:  336.468
  Cycle:    755 Defect Energy:   6.822451  Gnorm:     0.001978  CPU:  336.800
  Cycle:    756 Defect Energy:   6.821361  Gnorm:     0.001977  CPU:  337.137
  Cycle:    757 Defect Energy:   6.820272  Gnorm:     0.001976  CPU:  337.471
  Cycle:    758 Defect Energy:   6.819185  Gnorm:     0.001975  CPU:  337.801
  Cycle:    759 Defect Energy:   6.818099  Gnorm:     0.001973  CPU:  338.137
  Cycle:    760 Defect Energy:   6.817014  Gnorm:     0.001972  CPU:  338.473
  Cycle:    761 Defect Energy:   6.815931  Gnorm:     0.001971  CPU:  338.805
  Cycle:    762 Defect Energy:   6.814849  Gnorm:     0.001969  CPU:  339.143
  Cycle:    763 Defect Energy:   6.813769  Gnorm:     0.001968  CPU:  339.481
  Cycle:    764 Defect Energy:   6.812690  Gnorm:     0.001967  CPU:  339.814
  Cycle:    765 Defect Energy:   6.811612  Gnorm:     0.001966  CPU:  340.149
  Cycle:    766 Defect Energy:   6.810535  Gnorm:     0.001964  CPU:  340.484
  Cycle:    767 Defect Energy:   6.809460  Gnorm:     0.001963  CPU:  340.817
  Cycle:    768 Defect Energy:   6.808387  Gnorm:     0.001962  CPU:  341.151
  Cycle:    769 Defect Energy:   6.807314  Gnorm:     0.001960  CPU:  341.484
  Cycle:    770 Defect Energy:   6.806243  Gnorm:     0.001959  CPU:  341.820
  Cycle:    771 Defect Energy:   6.805173  Gnorm:     0.001958  CPU:  342.155
  Cycle:    772 Defect Energy:   6.804105  Gnorm:     0.001957  CPU:  342.485
  Cycle:    773 Defect Energy:   6.803038  Gnorm:     0.001955  CPU:  342.818
  Cycle:    774 Defect Energy:   6.801972  Gnorm:     0.001954  CPU:  343.159
  Cycle:    775 Defect Energy:   6.800908  Gnorm:     0.001953  CPU:  343.489
  Cycle:    776 Defect Energy:   6.799845  Gnorm:     0.001952  CPU:  343.821
  Cycle:    777 Defect Energy:   6.798783  Gnorm:     0.001950  CPU:  344.160
  Cycle:    778 Defect Energy:   6.797722  Gnorm:     0.001949  CPU:  344.503
  Cycle:    779 Defect Energy:   6.796663  Gnorm:     0.001948  CPU:  344.838
  Cycle:    780 Defect Energy:   6.795605  Gnorm:     0.001947  CPU:  345.173
  Cycle:    781 Defect Energy:   6.794549  Gnorm:     0.001945  CPU:  345.504
  Cycle:    782 Defect Energy:   6.793494  Gnorm:     0.001944  CPU:  345.842
  Cycle:    783 Defect Energy:   6.792440  Gnorm:     0.001943  CPU:  346.185
  Cycle:    784 Defect Energy:   6.791387  Gnorm:     0.001942  CPU:  346.520
  Cycle:    785 Defect Energy:   6.790336  Gnorm:     0.001940  CPU:  346.851
  Cycle:    786 Defect Energy:   6.789286  Gnorm:     0.001939  CPU:  347.185
  Cycle:    787 Defect Energy:   6.788237  Gnorm:     0.001938  CPU:  347.514
  Cycle:    788 Defect Energy:   6.787190  Gnorm:     0.001937  CPU:  347.849
  Cycle:    789 Defect Energy:   6.786144  Gnorm:     0.001935  CPU:  348.187
  Cycle:    790 Defect Energy:   6.785099  Gnorm:     0.001934  CPU:  348.523
  Cycle:    791 Defect Energy:   6.784055  Gnorm:     0.001933  CPU:  348.854
  Cycle:    792 Defect Energy:   6.783013  Gnorm:     0.001932  CPU:  349.193
  Cycle:    793 Defect Energy:   6.781973  Gnorm:     0.001930  CPU:  349.528
  Cycle:    794 Defect Energy:   6.780933  Gnorm:     0.001929  CPU:  349.863
  Cycle:    795 Defect Energy:   6.779895  Gnorm:     0.001928  CPU:  350.200
  Cycle:    796 Defect Energy:   6.778858  Gnorm:     0.001927  CPU:  350.535
  Cycle:    797 Defect Energy:   6.777822  Gnorm:     0.001926  CPU:  350.873
  Cycle:    798 Defect Energy:   6.776787  Gnorm:     0.001924  CPU:  351.210
  Cycle:    799 Defect Energy:   6.775754  Gnorm:     0.001923  CPU:  351.549
  Cycle:    800 Defect Energy:   6.774722  Gnorm:     0.001922  CPU:  351.881
  Cycle:    801 Defect Energy:   6.773691  Gnorm:     0.001921  CPU:  352.232
  Cycle:    802 Defect Energy:   6.772662  Gnorm:     0.001919  CPU:  352.573
  Cycle:    803 Defect Energy:   6.771633  Gnorm:     0.001918  CPU:  352.909
  Cycle:    804 Defect Energy:   6.770607  Gnorm:     0.001917  CPU:  353.247
  Cycle:    805 Defect Energy:   6.769581  Gnorm:     0.001916  CPU:  353.584
  Cycle:    806 Defect Energy:   6.768557  Gnorm:     0.001915  CPU:  353.914
  Cycle:    807 Defect Energy:   6.767534  Gnorm:     0.001913  CPU:  354.251
  Cycle:    808 Defect Energy:   6.766512  Gnorm:     0.001912  CPU:  354.589
  Cycle:    809 Defect Energy:   6.765491  Gnorm:     0.001911  CPU:  354.926
  Cycle:    810 Defect Energy:   6.764471  Gnorm:     0.001910  CPU:  355.265
  Cycle:    811 Defect Energy:   6.763453  Gnorm:     0.001909  CPU:  355.605
  Cycle:    812 Defect Energy:   6.762436  Gnorm:     0.001907  CPU:  355.939
  Cycle:    813 Defect Energy:   6.761420  Gnorm:     0.001906  CPU:  356.290
  Cycle:    814 Defect Energy:   6.760406  Gnorm:     0.001905  CPU:  356.628
  Cycle:    815 Defect Energy:   6.759393  Gnorm:     0.001904  CPU:  356.966
  Cycle:    816 Defect Energy:   6.758381  Gnorm:     0.001903  CPU:  357.308
  Cycle:    817 Defect Energy:   6.757370  Gnorm:     0.001901  CPU:  357.645
  Cycle:    818 Defect Energy:   6.756361  Gnorm:     0.001900  CPU:  357.977
  Cycle:    819 Defect Energy:   6.755352  Gnorm:     0.001899  CPU:  358.320
  Cycle:    820 Defect Energy:   6.754345  Gnorm:     0.001898  CPU:  358.655
  Cycle:    821 Defect Energy:   6.753339  Gnorm:     0.001897  CPU:  358.989
  Cycle:    822 Defect Energy:   6.752334  Gnorm:     0.001895  CPU:  359.332
  Cycle:    823 Defect Energy:   6.751331  Gnorm:     0.001894  CPU:  359.669
  Cycle:    824 Defect Energy:   6.750329  Gnorm:     0.001893  CPU:  360.004
  Cycle:    825 Defect Energy:   6.749328  Gnorm:     0.001892  CPU:  360.347
  Cycle:    826 Defect Energy:   6.748328  Gnorm:     0.001891  CPU:  360.676
  Cycle:    827 Defect Energy:   6.747329  Gnorm:     0.001890  CPU:  361.007
  Cycle:    828 Defect Energy:   6.746332  Gnorm:     0.001888  CPU:  361.345
  Cycle:    829 Defect Energy:   6.745336  Gnorm:     0.001887  CPU:  361.678
  Cycle:    830 Defect Energy:   6.744340  Gnorm:     0.001886  CPU:  362.005
  Cycle:    831 Defect Energy:   6.743346  Gnorm:     0.001885  CPU:  362.347
  Cycle:    832 Defect Energy:   6.742354  Gnorm:     0.001884  CPU:  362.679
  Cycle:    833 Defect Energy:   6.741362  Gnorm:     0.001882  CPU:  363.010
  Cycle:    834 Defect Energy:   6.740372  Gnorm:     0.001881  CPU:  363.356
  Cycle:    835 Defect Energy:   6.739383  Gnorm:     0.001880  CPU:  363.689
  Cycle:    836 Defect Energy:   6.738395  Gnorm:     0.001879  CPU:  364.023
  Cycle:    837 Defect Energy:   6.737409  Gnorm:     0.001878  CPU:  364.359
  Cycle:    838 Defect Energy:   6.736423  Gnorm:     0.001877  CPU:  364.689
  Cycle:    839 Defect Energy:   6.735439  Gnorm:     0.001876  CPU:  365.022
  Cycle:    840 Defect Energy:   6.734455  Gnorm:     0.001874  CPU:  365.365
  Cycle:    841 Defect Energy:   6.733473  Gnorm:     0.001873  CPU:  365.702
  Cycle:    842 Defect Energy:   6.732493  Gnorm:     0.001872  CPU:  366.034
  Cycle:    843 Defect Energy:   6.731513  Gnorm:     0.001871  CPU:  366.396
  Cycle:    844 Defect Energy:   6.730535  Gnorm:     0.001870  CPU:  366.730
  Cycle:    845 Defect Energy:   6.729558  Gnorm:     0.001869  CPU:  367.066
  Cycle:    846 Defect Energy:   6.728581  Gnorm:     0.001867  CPU:  367.403
  Cycle:    847 Defect Energy:   6.727606  Gnorm:     0.001866  CPU:  367.732
  Cycle:    848 Defect Energy:   6.726633  Gnorm:     0.001865  CPU:  368.073
  Cycle:    849 Defect Energy:   6.725660  Gnorm:     0.001864  CPU:  368.409
  Cycle:    850 Defect Energy:   6.724688  Gnorm:     0.001863  CPU:  368.746
  Cycle:    851 Defect Energy:   6.723708  Gnorm:     0.001862  CPU:  369.083
  Cycle:    852 Defect Energy:   6.722739  Gnorm:     0.001861  CPU:  369.425
  Cycle:    853 Defect Energy:   6.721771  Gnorm:     0.001859  CPU:  369.758
  Cycle:    854 Defect Energy:   6.720804  Gnorm:     0.001858  CPU:  370.097
  Cycle:    855 Defect Energy:   6.719839  Gnorm:     0.001857  CPU:  370.433
  Cycle:    856 Defect Energy:   6.718874  Gnorm:     0.001856  CPU:  370.765
  Cycle:    857 Defect Energy:   6.717911  Gnorm:     0.001855  CPU:  371.103
  Cycle:    858 Defect Energy:   6.716948  Gnorm:     0.001854  CPU:  371.439
  Cycle:    859 Defect Energy:   6.715987  Gnorm:     0.001853  CPU:  371.773
  Cycle:    860 Defect Energy:   6.715027  Gnorm:     0.001851  CPU:  372.111
  Cycle:    861 Defect Energy:   6.714068  Gnorm:     0.001850  CPU:  372.456
  Cycle:    862 Defect Energy:   6.713110  Gnorm:     0.001849  CPU:  372.791
  Cycle:    863 Defect Energy:   6.712154  Gnorm:     0.001848  CPU:  373.127
  Cycle:    864 Defect Energy:   6.711198  Gnorm:     0.001847  CPU:  373.460
  Cycle:    865 Defect Energy:   6.710244  Gnorm:     0.001846  CPU:  373.791
  Cycle:    866 Defect Energy:   6.709291  Gnorm:     0.001845  CPU:  374.138
  Cycle:    867 Defect Energy:   6.708338  Gnorm:     0.001844  CPU:  374.480
  Cycle:    868 Defect Energy:   6.707388  Gnorm:     0.001842  CPU:  374.815
  Cycle:    869 Defect Energy:   6.706438  Gnorm:     0.001841  CPU:  375.165
  Cycle:    870 Defect Energy:   6.705488  Gnorm:     0.001840  CPU:  375.536
  Cycle:    871 Defect Energy:   6.704541  Gnorm:     0.001839  CPU:  375.884
  Cycle:    872 Defect Energy:   6.703594  Gnorm:     0.001838  CPU:  376.229
  Cycle:    873 Defect Energy:   6.702649  Gnorm:     0.001837  CPU:  376.572
  Cycle:    874 Defect Energy:   6.701704  Gnorm:     0.001836  CPU:  376.912
  Cycle:    875 Defect Energy:   6.700761  Gnorm:     0.001835  CPU:  377.258
  Cycle:    876 Defect Energy:   6.699819  Gnorm:     0.001834  CPU:  377.598
  Cycle:    877 Defect Energy:   6.698878  Gnorm:     0.001832  CPU:  377.940
  Cycle:    878 Defect Energy:   6.697938  Gnorm:     0.001831  CPU:  378.288
  Cycle:    879 Defect Energy:   6.697000  Gnorm:     0.001830  CPU:  378.628
  Cycle:    880 Defect Energy:   6.696061  Gnorm:     0.001829  CPU:  378.964
  Cycle:    881 Defect Energy:   6.695125  Gnorm:     0.001828  CPU:  379.312
  Cycle:    882 Defect Energy:   6.694189  Gnorm:     0.001827  CPU:  379.658
  Cycle:    883 Defect Energy:   6.693255  Gnorm:     0.001826  CPU:  379.999
  Cycle:    884 Defect Energy:   6.692321  Gnorm:     0.001825  CPU:  380.350
  Cycle:    885 Defect Energy:   6.691389  Gnorm:     0.001824  CPU:  380.690
  Cycle:    886 Defect Energy:   6.690458  Gnorm:     0.001823  CPU:  381.035
  Cycle:    887 Defect Energy:   6.689528  Gnorm:     0.001821  CPU:  381.389
  Cycle:    888 Defect Energy:   6.688599  Gnorm:     0.001820  CPU:  381.728
  Cycle:    889 Defect Energy:   6.687671  Gnorm:     0.001819  CPU:  382.070
  Cycle:    890 Defect Energy:   6.686744  Gnorm:     0.001818  CPU:  382.413
  Cycle:    891 Defect Energy:   6.685818  Gnorm:     0.001817  CPU:  382.750
  Cycle:    892 Defect Energy:   6.684893  Gnorm:     0.001816  CPU:  383.094
  Cycle:    893 Defect Energy:   6.683970  Gnorm:     0.001815  CPU:  383.438
  Cycle:    894 Defect Energy:   6.683047  Gnorm:     0.001814  CPU:  383.862
  Cycle:    895 Defect Energy:   6.682125  Gnorm:     0.001813  CPU:  384.318
  Cycle:    896 Defect Energy:   6.681205  Gnorm:     0.001812  CPU:  384.686
  Cycle:    897 Defect Energy:   6.680286  Gnorm:     0.001811  CPU:  385.257
  Cycle:    898 Defect Energy:   6.679367  Gnorm:     0.001810  CPU:  385.790
  Cycle:    899 Defect Energy:   6.678450  Gnorm:     0.001808  CPU:  386.263
  Cycle:    900 Defect Energy:   6.677534  Gnorm:     0.001807  CPU:  386.609
  Cycle:    901 Defect Energy:   6.676618  Gnorm:     0.001806  CPU:  386.932
  Cycle:    902 Defect Energy:   6.675704  Gnorm:     0.001805  CPU:  387.354
  Cycle:    903 Defect Energy:   6.674791  Gnorm:     0.001804  CPU:  387.772
  Cycle:    904 Defect Energy:   6.673879  Gnorm:     0.001803  CPU:  388.143
  Cycle:    905 Defect Energy:   6.672968  Gnorm:     0.001802  CPU:  388.611
  Cycle:    906 Defect Energy:   6.672059  Gnorm:     0.001801  CPU:  389.063
  Cycle:    907 Defect Energy:   6.671150  Gnorm:     0.001800  CPU:  389.428
  Cycle:    908 Defect Energy:   6.670242  Gnorm:     0.001799  CPU:  389.790
  Cycle:    909 Defect Energy:   6.669335  Gnorm:     0.001798  CPU:  390.185
  Cycle:    910 Defect Energy:   6.668429  Gnorm:     0.001797  CPU:  390.536
  Cycle:    911 Defect Energy:   6.667524  Gnorm:     0.001796  CPU:  390.885
  Cycle:    912 Defect Energy:   6.666621  Gnorm:     0.001795  CPU:  391.248
  Cycle:    913 Defect Energy:   6.665718  Gnorm:     0.001793  CPU:  391.617
  Cycle:    914 Defect Energy:   6.664817  Gnorm:     0.001792  CPU:  392.078
  Cycle:    915 Defect Energy:   6.663916  Gnorm:     0.001791  CPU:  392.422
  Cycle:    916 Defect Energy:   6.663017  Gnorm:     0.001790  CPU:  392.790
  Cycle:    917 Defect Energy:   6.662118  Gnorm:     0.001789  CPU:  393.240
  Cycle:    918 Defect Energy:   6.661221  Gnorm:     0.001788  CPU:  393.699
  Cycle:    919 Defect Energy:   6.660324  Gnorm:     0.001787  CPU:  394.146
  Cycle:    920 Defect Energy:   6.659428  Gnorm:     0.001786  CPU:  394.650
  Cycle:    921 Defect Energy:   6.658534  Gnorm:     0.001785  CPU:  395.095
  Cycle:    922 Defect Energy:   6.657641  Gnorm:     0.001784  CPU:  395.538
  Cycle:    923 Defect Energy:   6.656748  Gnorm:     0.001783  CPU:  395.982
  Cycle:    924 Defect Energy:   6.655848  Gnorm:     0.001782  CPU:  396.496
  Cycle:    925 Defect Energy:   6.654958  Gnorm:     0.001781  CPU:  396.928
  Cycle:    926 Defect Energy:   6.654068  Gnorm:     0.001780  CPU:  397.404
  Cycle:    927 Defect Energy:   6.653180  Gnorm:     0.001779  CPU:  397.883
  Cycle:    928 Defect Energy:   6.652293  Gnorm:     0.001778  CPU:  398.300
  Cycle:    929 Defect Energy:   6.651406  Gnorm:     0.001777  CPU:  398.785
  Cycle:    930 Defect Energy:   6.650521  Gnorm:     0.001776  CPU:  399.162
  Cycle:    931 Defect Energy:   6.649636  Gnorm:     0.001775  CPU:  399.489
  Cycle:    932 Defect Energy:   6.648753  Gnorm:     0.001774  CPU:  399.814
  Cycle:    933 Defect Energy:   6.647871  Gnorm:     0.001773  CPU:  400.155
  Cycle:    934 Defect Energy:   6.646990  Gnorm:     0.001771  CPU:  400.497
  Cycle:    935 Defect Energy:   6.646109  Gnorm:     0.001770  CPU:  400.839
  Cycle:    936 Defect Energy:   6.645230  Gnorm:     0.001769  CPU:  401.182
  Cycle:    937 Defect Energy:   6.644352  Gnorm:     0.001768  CPU:  401.531
  Cycle:    938 Defect Energy:   6.643474  Gnorm:     0.001767  CPU:  401.878
  Cycle:    939 Defect Energy:   6.642598  Gnorm:     0.001766  CPU:  402.235
  Cycle:    940 Defect Energy:   6.641722  Gnorm:     0.001765  CPU:  402.591
  Cycle:    941 Defect Energy:   6.640848  Gnorm:     0.001764  CPU:  402.938
  Cycle:    942 Defect Energy:   6.639975  Gnorm:     0.001763  CPU:  403.297
  Cycle:    943 Defect Energy:   6.639102  Gnorm:     0.001762  CPU:  403.648
  Cycle:    944 Defect Energy:   6.638231  Gnorm:     0.001761  CPU:  404.001
  Cycle:    945 Defect Energy:   6.637361  Gnorm:     0.001760  CPU:  404.376
  Cycle:    946 Defect Energy:   6.636491  Gnorm:     0.001759  CPU:  404.729
  Cycle:    947 Defect Energy:   6.635623  Gnorm:     0.001758  CPU:  405.073
  Cycle:    948 Defect Energy:   6.634755  Gnorm:     0.001757  CPU:  405.418
  Cycle:    949 Defect Energy:   6.633889  Gnorm:     0.001756  CPU:  405.784
  Cycle:    950 Defect Energy:   6.633023  Gnorm:     0.001755  CPU:  406.140
  Cycle:    951 Defect Energy:   6.632158  Gnorm:     0.001754  CPU:  406.495
  Cycle:    952 Defect Energy:   6.631295  Gnorm:     0.001753  CPU:  406.836
  Cycle:    953 Defect Energy:   6.630432  Gnorm:     0.001752  CPU:  407.203
  Cycle:    954 Defect Energy:   6.629570  Gnorm:     0.001751  CPU:  407.552
  Cycle:    955 Defect Energy:   6.628710  Gnorm:     0.001750  CPU:  407.931
  Cycle:    956 Defect Energy:   6.627850  Gnorm:     0.001749  CPU:  408.291
  Cycle:    957 Defect Energy:   6.626991  Gnorm:     0.001748  CPU:  408.644
  Cycle:    958 Defect Energy:   6.626133  Gnorm:     0.001747  CPU:  408.995
  Cycle:    959 Defect Energy:   6.625276  Gnorm:     0.001746  CPU:  409.350
  Cycle:    960 Defect Energy:   6.624420  Gnorm:     0.001745  CPU:  409.701
  Cycle:    961 Defect Energy:   6.623565  Gnorm:     0.001744  CPU:  410.039
  Cycle:    962 Defect Energy:   6.622711  Gnorm:     0.001743  CPU:  410.374
  Cycle:    963 Defect Energy:   6.621858  Gnorm:     0.001742  CPU:  410.710
  Cycle:    964 Defect Energy:   6.621006  Gnorm:     0.001741  CPU:  411.047
  Cycle:    965 Defect Energy:   6.620155  Gnorm:     0.001740  CPU:  411.381
  Cycle:    966 Defect Energy:   6.619305  Gnorm:     0.001739  CPU:  411.720
  Cycle:    967 Defect Energy:   6.618455  Gnorm:     0.001738  CPU:  412.071
  Cycle:    968 Defect Energy:   6.617607  Gnorm:     0.001737  CPU:  412.417
  Cycle:    969 Defect Energy:   6.616760  Gnorm:     0.001736  CPU:  412.755
  Cycle:    970 Defect Energy:   6.615913  Gnorm:     0.001735  CPU:  413.134
  Cycle:    971 Defect Energy:   6.615067  Gnorm:     0.001734  CPU:  413.478
  Cycle:    972 Defect Energy:   6.614223  Gnorm:     0.001733  CPU:  413.820
  Cycle:    973 Defect Energy:   6.613379  Gnorm:     0.001732  CPU:  414.181
  Cycle:    974 Defect Energy:   6.612536  Gnorm:     0.001731  CPU:  414.548
  Cycle:    975 Defect Energy:   6.611695  Gnorm:     0.001730  CPU:  414.903
  Cycle:    976 Defect Energy:   6.610854  Gnorm:     0.001729  CPU:  415.257
  Cycle:    977 Defect Energy:   6.610014  Gnorm:     0.001728  CPU:  415.601
  Cycle:    978 Defect Energy:   6.609175  Gnorm:     0.001727  CPU:  415.937
  Cycle:    979 Defect Energy:   6.608337  Gnorm:     0.001726  CPU:  416.294
  Cycle:    980 Defect Energy:   6.607499  Gnorm:     0.001725  CPU:  416.642
  Cycle:    981 Defect Energy:   6.606663  Gnorm:     0.001724  CPU:  417.005
  Cycle:    982 Defect Energy:   6.605828  Gnorm:     0.001723  CPU:  417.402
  Cycle:    983 Defect Energy:   6.604994  Gnorm:     0.001722  CPU:  417.756
  Cycle:    984 Defect Energy:   6.604160  Gnorm:     0.001721  CPU:  418.113
