********************************************************************************
*                       GENERAL UTILITY LATTICE PROGRAM                        *
*                                 Julian Gale                                  *
*                       Curtin Institute for Computation                       *
*                    School of Molecular and Life Sciences                     *
*                    Curtin University, Western Australia                      *
********************************************************************************
* Version = 5.2.0 * Last modified =  10th September 2020                       *
********************************************************************************
* Na vacancy in NaCl                                                           *
*  optimise     - perform optimisation run                                     *
*  conp         - constant pressure calculation                                *
*  property     - calculate properties for final geometry                      *
*  defect       - perform defect calculation after bulk run                    *
********************************************************************************
* Na vacancy in NaCl                                                           *
********************************************************************************


  Job Started  at 19:09.06  4th October    2020                               

  Number of CPUs =     1


  Total number of configurations input =      1

********************************************************************************
*  Input for Configuration =   1 : NaCl                                        *
********************************************************************************

  Formula = NaCl                                                        

  Number of irreducible atoms/shells =       4


  Total number atoms/shells =       4

  Dimensionality = 3               :  Bulk   


  Symmetry :

  Crystal family                   :  Cubic       
  Crystal class  (Groth - 1921)    :  Cubic Hexakisoctahedral              

  Space group (centrosymmetric)    :  F M 3 M         

  Patterson group                  :  F m -3 m 

  Cartesian lattice vectors (Angstroms) :

        0.000000    2.789000    2.789000
        2.789000    0.000000    2.789000
        2.789000    2.789000    0.000000

  Primitive cell parameters :            Full cell parameters :

  a =   3.9442    alpha =  60.0000       a =   5.5780    alpha =  90.0000
  b =   3.9442    beta  =  60.0000       b =   5.5780    beta  =  90.0000
  c =   3.9442    gamma =  60.0000       c =   5.5780    gamma =  90.0000

  Initial volumes (Angstroms**3):

  Primitive cell =          43.388590    Full cell =         173.554361

  Temperature of configuration =   0.00     K 

  Pressure of configuration =         0.000 GPa 

  Fractional coordinates of asymmetric unit :

--------------------------------------------------------------------------------
   No.  Atomic       x           y          z         Charge      Occupancy
        Label      (Frac)      (Frac)     (Frac)        (e)         (Frac)  
--------------------------------------------------------------------------------
      1 Na    c    0.000000    0.000000    0.000000    -1.12800    1.000000    
      2 Cl    c    0.500000    0.000000    0.000000     1.48500    1.000000    
      3 Na    s    0.000000    0.000000    0.000000     2.12800    1.000000    
      4 Cl    s    0.500000    0.000000    0.000000    -2.48500    1.000000    
--------------------------------------------------------------------------------


  Constraints : 

--------------------------------------------------------------------------------
  Constraint no.      Unconstrained     Constrained    Coefficient    Offset
                         Variable         Variable
--------------------------------------------------------------------------------
           1              Strain 1        Strain 2       1.00000      0.0000
           2              Strain 1        Strain 3       1.00000      0.0000
--------------------------------------------------------------------------------


********************************************************************************
*  General input information                                                   *
********************************************************************************

  Species output for all configurations : 

--------------------------------------------------------------------------------
  Species    Type    Atomic    Atomic    Charge       Radii (Angs)     Library
                     Number     Mass       (e)     Cova   Ionic  VDW   Symbol
--------------------------------------------------------------------------------
    Na       Core       11      22.99  -1.128000   0.970  0.000  2.300          
    Na       Shell      11       0.00   2.128000   0.970  0.000  2.300          
    Cl       Core       17      35.45   1.485000   0.990  0.000  1.650          
    Cl       Shell      17       0.00  -2.485000   0.990  0.000  1.650          
--------------------------------------------------------------------------------


  Lattice summation method               =    Ewald          (3-D)
                                         =    Parry          (2-D)
                                         =    Saunders et al (1-D)
  Accuracy factor for lattice sums       =   12.000


  Analytic derivatives to be used

  Time limit = Infinity

  Maximum range for interatomic potentials =    100000.000000 Angstroms

  General interatomic potentials :

--------------------------------------------------------------------------------
Atom  Types   Potential      Parameter       Value         Units   Cutoffs(Ang)
  1     2                                                            Min /  Max 
--------------------------------------------------------------------------------
Na   s Na   s Buckingham    Buckingham A     7895.0000    eV        0.000 12.000
                            Buckingham rho  0.17090000    Ang       
                            Buckingham C     14.530000    eV*Ang^6  
--------------------------------------------------------------------------------
Na   s Cl   s Buckingham    Buckingham A     2314.7000    eV        0.000 12.000
                            Buckingham rho  0.29030000    Ang       
                            Buckingham C     0.0000000    eV*Ang^6  
--------------------------------------------------------------------------------
Cl   s Cl   s Buckingham    Buckingham A     1227.2000    eV        0.000 12.000
                            Buckingham rho  0.32140000    Ang       
                            Buckingham C     14.530000    eV*Ang^6  
--------------------------------------------------------------------------------
Na   c Na   s Spring (c-s)  Spring k 2       96.440000    eV*Ang^-2 0.000  0.800
                            Spring k 4       0.0000000    eV*Ang^-4 
--------------------------------------------------------------------------------
Cl   c Cl   s Spring (c-s)  Spring k 2       29.380000    eV*Ang^-2 0.000  0.800
                            Spring k 4       0.0000000    eV*Ang^-4 
--------------------------------------------------------------------------------

********************************************************************************
*  Output for configuration   1 : NaCl                                         *
********************************************************************************


  Components of energy : 

--------------------------------------------------------------------------------
  Interatomic potentials     =           0.91447856 eV    
  Monopole - monopole (real) =          -0.72412017 eV    
  Monopole - monopole (recip)=          -8.29865070 eV    
  Monopole - monopole (total)=          -9.02277087 eV    
--------------------------------------------------------------------------------
  Total lattice energy : 
    Primitive unit cell      =          -8.10829230 eV    
    Non-primitive unit cell  =         -32.43316921 eV    
--------------------------------------------------------------------------------
  Total lattice energy (in kJmol-1): 
    Primitive unit cell      =            -782.3263 kJ/(mole unit cells)
    Non-primitive unit cell  =           -3129.3050 kJ/(mole unit cells)
--------------------------------------------------------------------------------


  Number of variables =        1

  Maximum number of calculations  =          1000
  Maximum Hessian update interval =            10
  Maximum step size               =   1.000000000
  Maximum parameter tolerance     =   0.000010000
  Maximum function  tolerance     =   0.000010000
  Maximum gradient  tolerance     =   0.001000000
  Maximum gradient  component     =   0.010000000

  Symmetry constrained optimisation

  Symmetry used for second derivatives

  Cell parameters to be optimised using strains

  Newton-Raphson optimiser to be used

  BFGS hessian update to be used

  Lower half triangular hessian to be used

  Start of bulk optimisation :

  Cycle:      0 Energy:        -8.108292  Gnorm:      0.062231  CPU:    0.011
  ** Hessian calculated **
  Cycle:      1 Energy:        -8.108320  Gnorm:      0.000040  CPU:    0.016


  **** Optimisation achieved ****


  Final energy =      -8.10831952 eV
  Final Gnorm  =       0.00000017

  Components of energy : 

--------------------------------------------------------------------------------
  Interatomic potentials     =           0.90655178 eV    
  Monopole - monopole (real) =          -0.72348619 eV    
  Monopole - monopole (recip)=          -8.29138511 eV    
  Monopole - monopole (total)=          -9.01487130 eV    
--------------------------------------------------------------------------------
  Total lattice energy : 
    Primitive unit cell      =          -8.10831952 eV    
    Non-primitive unit cell  =         -32.43327809 eV    
--------------------------------------------------------------------------------
  Total lattice energy (in kJmol-1): 
    Primitive unit cell      =            -782.3289 kJ/(mole unit cells)
    Non-primitive unit cell  =           -3129.3155 kJ/(mole unit cells)
--------------------------------------------------------------------------------

  Final asymmetric unit coordinates :

--------------------------------------------------------------------------------
   No.  Atomic        x           y           z         Radius
        Label       (Frac)      (Frac)      (Frac)       (Angs) 
--------------------------------------------------------------------------------
     1  Na    c     0.000000    0.000000    0.000000    0.000000
     2  Cl    c     0.500000    0.000000    0.000000    0.000000
     3  Na    s     0.000000    0.000000    0.000000    0.000000
     4  Cl    s     0.500000    0.000000    0.000000    0.000000
--------------------------------------------------------------------------------

  Final Cartesian lattice vectors (Angstroms) :

        0.000000    2.791444    2.791444
        2.791444    0.000000    2.791444
        2.791444    2.791444    0.000000


  Final cell parameters and derivatives :

--------------------------------------------------------------------------------
       a            3.947698 Angstrom     dE/de1(xx)    -0.000000 eV/strain
       b            3.947698 Angstrom     dE/de2(yy)     0.000000 eV/strain
       c            3.947698 Angstrom     dE/de3(zz)     0.000000 eV/strain
       alpha       60.000000 Degrees      dE/de4(yz)     0.000000 eV/strain
       beta        60.000000 Degrees      dE/de5(xz)     0.000000 eV/strain
       gamma       60.000000 Degrees      dE/de6(xy)     0.000000 eV/strain
--------------------------------------------------------------------------------

  Primitive cell volume =            43.502752 Angs**3

  Density of cell =      2.230743 g/cm**3

  Non-primitive lattice parameters :

  a    =     5.582888  b   =     5.582888  c    =     5.582888
  alpha=    90.000000  beta=    90.000000  gamma=    90.000000

  Non-primitive cell volume =           174.011008 Angs**3


  Final internal derivatives :

--------------------------------------------------------------------------------
   No.  Atomic          a             b             c           Radius
        Label          (eV)          (eV)          (eV)        (eV/Angs)
--------------------------------------------------------------------------------
      1 Na    c       0.000000      0.000000      0.000000      0.000000
      2 Cl    c       0.000000      0.000000      0.000000      0.000000
      3 Na    s       0.000000      0.000000      0.000000      0.000000
      4 Cl    s       0.000000      0.000000      0.000000      0.000000
--------------------------------------------------------------------------------
  Maximum abs         0.000000      0.000000      0.000000      0.000000
--------------------------------------------------------------------------------


  Born effective charge tensors : 

-------------------------------------------------------------------------------
  Atom             x           y             z
-------------------------------------------------------------------------------
    1 Na    x       1.0608      0.0000      0.0000
            y       0.0000      1.0608      0.0000
            z       0.0000      0.0000      1.0608
-------------------------------------------------------------------------------
    2 Cl    x      -1.0608     -0.0000     -0.0000
            y      -0.0000     -1.0608     -0.0000
            z      -0.0000     -0.0000     -1.0608
-------------------------------------------------------------------------------




  Elastic Constant Matrix: (Units=GPa)

-------------------------------------------------------------------------------
  Indices      1         2         3         4         5         6    
-------------------------------------------------------------------------------
       1     58.2962   14.2997   14.2997   -0.0000    0.0000   -0.0000
       2     14.2997   58.2962   14.2997    0.0000    0.0000   -0.0000
       3     14.2997   14.2997   58.2962    0.0000    0.0000   -0.0000
       4     -0.0000    0.0000    0.0000   14.2997    0.0000   -0.0000
       5      0.0000    0.0000    0.0000    0.0000   14.2997   -0.0000
       6     -0.0000   -0.0000   -0.0000   -0.0000   -0.0000   14.2997
-------------------------------------------------------------------------------


  Elastic Compliance Matrix: (Units=1/GPa)

-------------------------------------------------------------------------------
  Indices      1         2         3         4         5         6    
-------------------------------------------------------------------------------
       1    0.018989 -0.003740 -0.003740  0.000000 -0.000000 -0.000000
       2   -0.003740  0.018989 -0.003740 -0.000000 -0.000000  0.000000
       3   -0.003740 -0.003740  0.018989 -0.000000 -0.000000  0.000000
       4    0.000000 -0.000000 -0.000000  0.069931 -0.000000  0.000000
       5   -0.000000 -0.000000 -0.000000 -0.000000  0.069931  0.000000
       6   -0.000000  0.000000  0.000000  0.000000  0.000000  0.069931
-------------------------------------------------------------------------------

  Mechanical properties :

-------------------------------------------------------------------------------
  Convention :                    Reuss         Voigt         Hill
-------------------------------------------------------------------------------
  Bulk  Modulus (GPa)     =      28.96523      28.96523      28.96523
  Shear Modulus (GPa)     =      16.62729      17.37914      17.00321
-------------------------------------------------------------------------------
  Velocity S-wave (km/s)  =       2.73015       2.79119       2.76084
  Velocity P-wave (km/s)  =       4.78778       4.83448       4.81119
-------------------------------------------------------------------------------
  Compressibility (1/GPa) =    0.03452416
-------------------------------------------------------------------------------
  Stress axis :                     x             y             z
-------------------------------------------------------------------------------
  Youngs Moduli (GPa)     =      52.66277      52.66277      52.66277
-------------------------------------------------------------------------------
  Poissons Ratio (x)      =                     0.19698       0.19698
  Poissons Ratio (y)      =       0.19698                     0.19698
  Poissons Ratio (z)      =       0.19698       0.19698
-------------------------------------------------------------------------------


  Piezoelectric Strain Matrix: (Units=C/m**2)

-------------------------------------------------------------------------------
  Indices      1         2         3         4         5         6    
-------------------------------------------------------------------------------
       x    -0.00000  -0.00000  -0.00000  -0.00000  -0.00000  -0.00000
       y    -0.00000   0.00000  -0.00000  -0.00000  -0.00000  -0.00000
       z    -0.00000  -0.00000   0.00000  -0.00000  -0.00000  -0.00000
-------------------------------------------------------------------------------


  Piezoelectric Stress Matrix: (Units=10**-11 C/N)

-------------------------------------------------------------------------------
  Indices      1         2         3         4         5         6    
-------------------------------------------------------------------------------
       x    -0.00000  -0.00000  -0.00000  -0.00000  -0.00000  -0.00000
       y    -0.00000   0.00000  -0.00000  -0.00000  -0.00000  -0.00000
       z    -0.00000  -0.00000   0.00000  -0.00000  -0.00000  -0.00000
-------------------------------------------------------------------------------


  Static dielectric constant tensor : 

-------------------------------------------------------------------------------
              x         y         z
-------------------------------------------------------------------------------
       x     5.49480   0.00000   0.00000
       y     0.00000   5.49480  -0.00000
       z     0.00000  -0.00000   5.49480
--------------------------------------------------------------------------------

  High frequency dielectric constant tensor : 

-------------------------------------------------------------------------------
              x         y         z
-------------------------------------------------------------------------------
       x     2.38570  -0.00000   0.00000
       y    -0.00000   2.38570   0.00000
       z     0.00000   0.00000   2.38570
-------------------------------------------------------------------------------

  Static refractive indices : 

-------------------------------------------------------------------------------
    1 =    2.34410      2 =    2.34410      3 =    2.34410
-------------------------------------------------------------------------------

  High frequency refractive indices : 

-------------------------------------------------------------------------------
    1 =    1.54457      2 =    1.54457      3 =    1.54457
-------------------------------------------------------------------------------


  Time to end of optimisation =       0.0220 seconds

********************************************************************************
*  Defect calculation for configuration   1 :                                  *
********************************************************************************

  Total number of defects =      3

  Total charge on defect  =  -1.00

  Defect centre is at   0.0000   0.0000   0.0000  Frac

  Region 1 radius =  10.0000      Number of ions =    356

  Number of symmetry inequivalent region 1 ions  =    124

  Region 2 radius =  20.0000      Number of ions =   2744

  Number of symmetry inequivalent region 2a ions =    794

  Region 2a mode = 4 : screened electrostatics due to region 1 
                       neglect correction to region 1 forces from 2a
                       region 2a displacements based on defects only

  Region 2a ions will only interact with defects in region 1

  Vacancies:

--------------------------------------------------------------------------------
    Specification type     Symbol/Number         x          y          z
--------------------------------------------------------------------------------
    Fractional                               0.500000   0.500000   0.000000
    Fractional                               0.000000   0.000000   0.000000
--------------------------------------------------------------------------------

  Interstitials:

--------------------------------------------------------------------------------
    Specification type     Symbol/Number         x          y          z
--------------------------------------------------------------------------------
    Atom/Fractional         Na               0.240000   0.240000   0.000000
--------------------------------------------------------------------------------


  Symmetry reduced region 1 (Relative to defect centre) :

--------------------------------------------------------------------------------
   No.   Atomic       x            y             z       Radius  Multiplicity   
         Label      (Angs)       (Angs)        (Angs)    (Angs)     
--------------------------------------------------------------------------------
     1  Na    c      1.3399       1.3399       0.0000    0.0000     1    Defect
     2  Cl    c     -2.7914 *     0.0000 *     0.0000    0.0000     2          
     3  Cl    c      0.0000 *     2.7914 *     0.0000    0.0000     2          
     4  Cl    c      0.0000 *     0.0000       2.7914 *  0.0000     2          
     5  Na    c     -2.7914 *    -2.7914       0.0000    0.0000     1          
     6  Na    c      2.7914 *     0.0000 *     2.7914 *  0.0000     4          
     7  Na    c      0.0000 *    -2.7914 *     2.7914 *  0.0000     4          
     8  Na    c     -2.7914 *     2.7914 *     0.0000    0.0000     2          
     9  Cl    c      2.7914 *     2.7914       2.7914 *  0.0000     2          
    10  Cl    c     -2.7914 *    -2.7914       2.7914 *  0.0000     2          
    11  Cl    c     -2.7914 *     2.7914 *    -2.7914 *  0.0000     4          
    12  Na    c      0.0000 *     0.0000       5.5829 *  0.0000     2          
    13  Na    c      0.0000 *     5.5829 *     0.0000    0.0000     2          
    14  Na    c     -5.5829 *     0.0000 *     0.0000    0.0000     2          
    15  Cl    c      2.7914 *     5.5829 *     0.0000    0.0000     2          
    16  Cl    c     -5.5829 *    -2.7914 *     0.0000    0.0000     2          
    17  Cl    c      2.7914 *     0.0000 *     5.5829 *  0.0000     4          
    18  Cl    c      0.0000 *    -2.7914 *     5.5829 *  0.0000     4          
    19  Cl    c     -5.5829 *     0.0000 *    -2.7914 *  0.0000     4          
    20  Cl    c      0.0000 *     5.5829 *    -2.7914 *  0.0000     4          
    21  Cl    c     -5.5829 *     2.7914 *     0.0000    0.0000     2          
    22  Cl    c     -2.7914 *     5.5829 *     0.0000    0.0000     2          
    23  Na    c      2.7914 *    -2.7914 *     5.5829 *  0.0000     4          
    24  Na    c      2.7914 *     2.7914       5.5829 *  0.0000     2          
    25  Na    c     -2.7914 *    -2.7914       5.5829 *  0.0000     2          
    26  Na    c      5.5829 *     2.7914 *     2.7914 *  0.0000     4          
    27  Na    c     -2.7914 *    -5.5829 *     2.7914 *  0.0000     4          
    28  Na    c     -5.5829 *     2.7914 *    -2.7914 *  0.0000     4          
    29  Na    c     -2.7914 *     5.5829 *    -2.7914 *  0.0000     4          
    30  Na    c      5.5829 *     5.5829       0.0000    0.0000     1          
    31  Na    c     -5.5829 *    -5.5829       0.0000    0.0000     1          
    32  Na    c      5.5829 *     0.0000 *     5.5829 *  0.0000     4          
    33  Na    c      0.0000 *    -5.5829 *     5.5829 *  0.0000     4          
    34  Na    c     -5.5829 *     5.5829 *     0.0000    0.0000     2          
    35  Cl    c      5.5829 *     5.5829       2.7914 *  0.0000     2          
    36  Cl    c     -5.5829 *    -5.5829       2.7914 *  0.0000     2          
    37  Cl    c      0.0000 *     0.0000       8.3743 *  0.0000     2          
    38  Cl    c      0.0000 *     8.3743 *     0.0000    0.0000     2          
    39  Cl    c     -8.3743 *     0.0000 *     0.0000    0.0000     2          
    40  Cl    c     -5.5829 *     5.5829 *    -2.7914 *  0.0000     4          
    41  Cl    c      5.5829 *     2.7914 *     5.5829 *  0.0000     4          
    42  Cl    c     -2.7914 *    -5.5829 *     5.5829 *  0.0000     4          
    43  Cl    c     -5.5829 *     2.7914 *    -5.5829 *  0.0000     4          
    44  Cl    c     -2.7914 *     5.5829 *    -5.5829 *  0.0000     4          
    45  Na    c      2.7914 *     0.0000 *     8.3743 *  0.0000     4          
    46  Na    c      0.0000 *    -2.7914 *     8.3743 *  0.0000     4          
    47  Na    c      2.7914 *     8.3743 *     0.0000    0.0000     2          
    48  Na    c     -8.3743 *    -2.7914 *     0.0000    0.0000     2          
    49  Na    c      0.0000 *     8.3743 *    -2.7914 *  0.0000     4          
    50  Na    c     -8.3743 *     0.0000 *    -2.7914 *  0.0000     4          
    51  Na    c     -2.7914 *     8.3743 *     0.0000    0.0000     2          
    52  Na    c     -8.3743 *     2.7914 *     0.0000    0.0000     2          
    53  Cl    c      2.7914 *     8.3743 *    -2.7914 *  0.0000     4          
    54  Cl    c     -8.3743 *    -2.7914 *    -2.7914 *  0.0000     4          
    55  Cl    c     -8.3743 *     2.7914 *    -2.7914 *  0.0000     4          
    56  Cl    c     -2.7914 *     8.3743 *    -2.7914 *  0.0000     4          
    57  Cl    c      2.7914 *    -2.7914 *     8.3743 *  0.0000     4          
    58  Cl    c      2.7914 *     2.7914       8.3743 *  0.0000     2          
    59  Cl    c     -2.7914 *    -2.7914       8.3743 *  0.0000     2          
    60  Na    c      5.5829 *     5.5829       5.5829 *  0.0000     2          
    61  Na    c     -5.5829 *    -5.5829       5.5829 *  0.0000     2          
    62  Na    c     -5.5829 *     5.5829 *    -5.5829 *  0.0000     4          
    63  Na    s      1.3399       1.3399       0.0000    0.0000     1    Defect
    64  Cl    s     -2.7914 *     0.0000 *     0.0000    0.0000     2          
    65  Cl    s      0.0000 *     2.7914 *     0.0000    0.0000     2          
    66  Cl    s      0.0000 *     0.0000       2.7914 *  0.0000     2          
    67  Na    s     -2.7914 *    -2.7914       0.0000    0.0000     1          
    68  Na    s      2.7914 *     0.0000 *     2.7914 *  0.0000     4          
    69  Na    s      0.0000 *    -2.7914 *     2.7914 *  0.0000     4          
    70  Na    s     -2.7914 *     2.7914 *     0.0000    0.0000     2          
    71  Cl    s      2.7914 *     2.7914       2.7914 *  0.0000     2          
    72  Cl    s     -2.7914 *    -2.7914       2.7914 *  0.0000     2          
    73  Cl    s     -2.7914 *     2.7914 *    -2.7914 *  0.0000     4          
    74  Na    s      0.0000 *     0.0000       5.5829 *  0.0000     2          
    75  Na    s      0.0000 *     5.5829 *     0.0000    0.0000     2          
    76  Na    s     -5.5829 *     0.0000 *     0.0000    0.0000     2          
    77  Cl    s      2.7914 *     5.5829 *     0.0000    0.0000     2          
    78  Cl    s     -5.5829 *    -2.7914 *     0.0000    0.0000     2          
    79  Cl    s      2.7914 *     0.0000 *     5.5829 *  0.0000     4          
    80  Cl    s      0.0000 *    -2.7914 *     5.5829 *  0.0000     4          
    81  Cl    s     -5.5829 *     0.0000 *    -2.7914 *  0.0000     4          
    82  Cl    s      0.0000 *     5.5829 *    -2.7914 *  0.0000     4          
    83  Cl    s     -5.5829 *     2.7914 *     0.0000    0.0000     2          
    84  Cl    s     -2.7914 *     5.5829 *     0.0000    0.0000     2          
    85  Na    s      2.7914 *    -2.7914 *     5.5829 *  0.0000     4          
    86  Na    s      2.7914 *     2.7914       5.5829 *  0.0000     2          
    87  Na    s     -2.7914 *    -2.7914       5.5829 *  0.0000     2          
    88  Na    s      5.5829 *     2.7914 *     2.7914 *  0.0000     4          
    89  Na    s     -2.7914 *    -5.5829 *     2.7914 *  0.0000     4          
    90  Na    s     -5.5829 *     2.7914 *    -2.7914 *  0.0000     4          
    91  Na    s     -2.7914 *     5.5829 *    -2.7914 *  0.0000     4          
    92  Na    s      5.5829 *     5.5829       0.0000    0.0000     1          
    93  Na    s     -5.5829 *    -5.5829       0.0000    0.0000     1          
    94  Na    s      5.5829 *     0.0000 *     5.5829 *  0.0000     4          
    95  Na    s      0.0000 *    -5.5829 *     5.5829 *  0.0000     4          
    96  Na    s     -5.5829 *     5.5829 *     0.0000    0.0000     2          
    97  Cl    s      5.5829 *     5.5829       2.7914 *  0.0000     2          
    98  Cl    s     -5.5829 *    -5.5829       2.7914 *  0.0000     2          
    99  Cl    s      0.0000 *     0.0000       8.3743 *  0.0000     2          
   100  Cl    s      0.0000 *     8.3743 *     0.0000    0.0000     2          
   101  Cl    s     -8.3743 *     0.0000 *     0.0000    0.0000     2          
   102  Cl    s     -5.5829 *     5.5829 *    -2.7914 *  0.0000     4          
   103  Cl    s      5.5829 *     2.7914 *     5.5829 *  0.0000     4          
   104  Cl    s     -2.7914 *    -5.5829 *     5.5829 *  0.0000     4          
   105  Cl    s     -5.5829 *     2.7914 *    -5.5829 *  0.0000     4          
   106  Cl    s     -2.7914 *     5.5829 *    -5.5829 *  0.0000     4          
   107  Na    s      2.7914 *     0.0000 *     8.3743 *  0.0000     4          
   108  Na    s      0.0000 *    -2.7914 *     8.3743 *  0.0000     4          
   109  Na    s      2.7914 *     8.3743 *     0.0000    0.0000     2          
   110  Na    s     -8.3743 *    -2.7914 *     0.0000    0.0000     2          
   111  Na    s      0.0000 *     8.3743 *    -2.7914 *  0.0000     4          
   112  Na    s     -8.3743 *     0.0000 *    -2.7914 *  0.0000     4          
   113  Na    s     -2.7914 *     8.3743 *     0.0000    0.0000     2          
   114  Na    s     -8.3743 *     2.7914 *     0.0000    0.0000     2          
   115  Cl    s      2.7914 *     8.3743 *    -2.7914 *  0.0000     4          
   116  Cl    s     -8.3743 *    -2.7914 *    -2.7914 *  0.0000     4          
   117  Cl    s     -8.3743 *     2.7914 *    -2.7914 *  0.0000     4          
   118  Cl    s     -2.7914 *     8.3743 *    -2.7914 *  0.0000     4          
   119  Cl    s      2.7914 *    -2.7914 *     8.3743 *  0.0000     4          
   120  Cl    s      2.7914 *     2.7914       8.3743 *  0.0000     2          
   121  Cl    s     -2.7914 *    -2.7914       8.3743 *  0.0000     2          
   122  Na    s      5.5829 *     5.5829       5.5829 *  0.0000     2          
   123  Na    s     -5.5829 *    -5.5829       5.5829 *  0.0000     2          
   124  Na    s     -5.5829 *     5.5829 *    -5.5829 *  0.0000     4          
--------------------------------------------------------------------------------


  Constraints on symmetry reduced coordinates :

--------------------------------------------------------------------------------
  Constraint no.      Unconstrained     Constrained    Coefficient    
                         Variable         Variable
--------------------------------------------------------------------------------
           1                 4 x             4 y         1.00000
           2                 5 x             5 y         1.00000
           3                 9 x             9 y         1.00000
           4                10 x            10 y         1.00000
           5                12 x            12 y         1.00000
           6                24 x            24 y         1.00000
           7                25 x            25 y         1.00000
           8                30 x            30 y         1.00000
           9                31 x            31 y         1.00000
          10                35 x            35 y         1.00000
          11                36 x            36 y         1.00000
          12                37 x            37 y         1.00000
          13                58 x            58 y         1.00000
          14                59 x            59 y         1.00000
          15                60 x            60 y         1.00000
          16                61 x            61 y         1.00000
          17                66 x            66 y         1.00000
          18                67 x            67 y         1.00000
          19                71 x            71 y         1.00000
          20                72 x            72 y         1.00000
          21                74 x            74 y         1.00000
          22                86 x            86 y         1.00000
          23                87 x            87 y         1.00000
          24                92 x            92 y         1.00000
          25                93 x            93 y         1.00000
          26                97 x            97 y         1.00000
          27                98 x            98 y         1.00000
          28                99 x            99 y         1.00000
          29               120 x           120 y         1.00000
          30               121 x           121 y         1.00000
          31               122 x           122 y         1.00000
          32               123 x           123 y         1.00000
--------------------------------------------------------------------------------


  Components of defect energy : 

--------------------------------------------------------------------------------
  Region 1 - region 1                   =     17.79219402 eV
  Region 1 - region 2a (unrelaxed)      =     -7.29792355 eV
  Region 1 - 2a (relaxed - correction)  =     -0.66269022 eV
  Region 1 (Total)                      =      9.83158025 eV
  Region 2a                             =      0.33123103 eV
  Region 2b                             =     -0.29570902 eV
--------------------------------------------------------------------------------
  Total defect energy                   =      9.86710226 eV
--------------------------------------------------------------------------------

  Largest displacement in region 2 =   0.0260 Angstroms


  Number of variables =      296

  Maximum number of calculations  =        1000
  Maximum Hessian update interval =          10
  Maximum step size               =   1.0000000
  Maximum parameter tolerance     =   0.0000100
  Maximum function  tolerance     =   0.0000100
  Maximum gradient  tolerance     =   0.0010000

  Symmetry adapted optimisation

  Symmetry to be used for second derivatives

  Newton-Raphson optimiser to be used

  BFGS hessian update to be used

  Lower half triangular hessian to be used

  Start of defect optimisation :

  Cycle:      0 Defect Energy:   9.867102  Gnorm:     0.088568  CPU:    0.465
  ** Hessian calculated **
  Cycle:      1 Defect Energy:   6.366271  Gnorm:     0.013852  CPU:    1.345
  Cycle:      2 Defect Energy:   5.996754  Gnorm:     0.007238  CPU:    2.001
  Cycle:      3 Defect Energy:   5.949106  Gnorm:     0.005799  CPU:    2.139
  Cycle:      4 Defect Energy:   5.934888  Gnorm:     0.004511  CPU:    2.294
  ** Hessian calculated **
  Cycle:      5 Defect Energy:   5.896621  Gnorm:     0.003178  CPU:    2.676
  Cycle:      6 Defect Energy:   5.878275  Gnorm:     0.002251  CPU:    2.816
  Cycle:      7 Defect Energy:   5.869356  Gnorm:     0.001589  CPU:    2.954
  Cycle:      8 Defect Energy:   5.864875  Gnorm:     0.001119  CPU:    3.095
  Cycle:      9 Defect Energy:   5.862593  Gnorm:     0.000786  CPU:    3.233
  Cycle:     10 Defect Energy:   5.861410  Gnorm:     0.000552  CPU:    3.370
  Cycle:     11 Defect Energy:   5.860815  Gnorm:     0.000387  CPU:    3.509
  Cycle:     12 Defect Energy:   5.860510  Gnorm:     0.000272  CPU:    3.650
  Cycle:     13 Defect Energy:   5.860351  Gnorm:     0.000190  CPU:    3.789
  Cycle:     14 Defect Energy:   5.860268  Gnorm:     0.000133  CPU:    3.928
  ** Hessian calculated **
  Cycle:     15 Defect Energy:   5.860224  Gnorm:     0.000093  CPU:    4.304
  Cycle:     16 Defect Energy:   5.860200  Gnorm:     0.000065  CPU:    4.443
  Cycle:     17 Defect Energy:   5.860186  Gnorm:     0.000046  CPU:    4.582


  **** Optimisation achieved ****


  Final defect energy  =        5.86017829
  Final defect Gnorm   =        0.00003208

  Components of defect energy : 

--------------------------------------------------------------------------------
  Region 1 - region 1                   =     13.47219865 eV
  Region 1 - region 2a (unrelaxed)      =     -7.03380439 eV
  Region 1 - 2a (relaxed - correction)  =     -0.56832157 eV
  Region 1 (Total)                      =      5.87007268 eV
  Region 2a                             =      0.28408153 eV
  Region 2b                             =     -0.29397591 eV
--------------------------------------------------------------------------------
  Total defect energy                   =      5.86017829 eV
--------------------------------------------------------------------------------

  Largest displacement in region 2 =   0.0260 Angstroms

  Final coordinates of region 1 :

--------------------------------------------------------------------------------
   No.  Atomic        x           y           z          Radius      Charge
        Label       (Angs)      (Angs)      (Angs)       (Angs)       (e) 
--------------------------------------------------------------------------------
     1  Na    c     1.339893    1.339893    0.000000    0.000000   -1.128000
     2  Cl    c    -2.941702    0.018428    0.000000    0.000000    1.485000
     3  Cl    c     0.018428   -2.941702    0.000000    0.000000    1.485000
     4  Cl    c    -0.353883    3.142134    0.000000    0.000000    1.485000
     5  Cl    c     3.142134   -0.353883    0.000000    0.000000    1.485000
     6  Cl    c     0.087466    0.087466    2.753344    0.000000    1.485000
     7  Cl    c     0.087466    0.087466   -2.753344    0.000000    1.485000
     8  Na    c    -2.714736   -2.714736    0.000000    0.000000   -1.128000
     9  Na    c     2.862643   -0.053649    2.800499    0.000000   -1.128000
    10  Na    c    -0.053649    2.862643   -2.800499    0.000000   -1.128000
    11  Na    c    -0.053649    2.862643    2.800499    0.000000   -1.128000
    12  Na    c     2.862643   -0.053649   -2.800499    0.000000   -1.128000
    13  Na    c     0.029434   -2.707344    2.705897    0.000000   -1.128000
    14  Na    c    -2.707344    0.029434   -2.705897    0.000000   -1.128000
    15  Na    c    -2.707344    0.029434    2.705897    0.000000   -1.128000
    16  Na    c     0.029434   -2.707344   -2.705897    0.000000   -1.128000
    17  Na    c    -2.924342    2.770974    0.000000    0.000000   -1.128000
    18  Na    c     2.770974   -2.924342    0.000000    0.000000   -1.128000
    19  Cl    c     2.714138    2.714138    2.792330    0.000000    1.485000
    20  Cl    c     2.714138    2.714138   -2.792330    0.000000    1.485000
    21  Cl    c    -2.778886   -2.778886    2.797441    0.000000    1.485000
    22  Cl    c    -2.778886   -2.778886   -2.797441    0.000000    1.485000
    23  Cl    c    -2.847883    2.812925   -2.828749    0.000000    1.485000
    24  Cl    c    -2.847883    2.812925    2.828749    0.000000    1.485000
    25  Cl    c     2.812925   -2.847883    2.828749    0.000000    1.485000
    26  Cl    c     2.812925   -2.847883   -2.828749    0.000000    1.485000
    27  Na    c     0.023604    0.023604    5.521798    0.000000   -1.128000
    28  Na    c     0.023604    0.023604   -5.521798    0.000000   -1.128000
    29  Na    c     0.034159    5.708632    0.000000    0.000000   -1.128000
    30  Na    c     5.708632    0.034159    0.000000    0.000000   -1.128000
    31  Na    c    -5.616905   -0.007272    0.000000    0.000000   -1.128000
    32  Na    c    -0.007272   -5.616905    0.000000    0.000000   -1.128000
    33  Cl    c     2.772173    5.723290    0.000000    0.000000    1.485000
    34  Cl    c     5.723290    2.772173    0.000000    0.000000    1.485000
    35  Cl    c    -5.593882   -2.808280    0.000000    0.000000    1.485000
    36  Cl    c    -2.808280   -5.593882    0.000000    0.000000    1.485000
    37  Cl    c     2.809533   -0.024446    5.607535    0.000000    1.485000
    38  Cl    c    -0.024446    2.809533    5.607535    0.000000    1.485000
    39  Cl    c    -0.024446    2.809533   -5.607535    0.000000    1.485000
    40  Cl    c     2.809533   -0.024446   -5.607535    0.000000    1.485000
    41  Cl    c     0.003416   -2.780576    5.566571    0.000000    1.485000
    42  Cl    c    -2.780576    0.003416    5.566571    0.000000    1.485000
    43  Cl    c    -2.780576    0.003416   -5.566571    0.000000    1.485000
    44  Cl    c     0.003416   -2.780576   -5.566571    0.000000    1.485000
    45  Cl    c    -5.599974    0.002146   -2.803527    0.000000    1.485000
    46  Cl    c    -5.599974    0.002146    2.803527    0.000000    1.485000
    47  Cl    c     0.002146   -5.599974    2.803527    0.000000    1.485000
    48  Cl    c     0.002146   -5.599974   -2.803527    0.000000    1.485000
    49  Cl    c    -0.019098    5.634023   -2.823473    0.000000    1.485000
    50  Cl    c    -0.019098    5.634023    2.823473    0.000000    1.485000
    51  Cl    c     5.634023   -0.019098    2.823473    0.000000    1.485000
    52  Cl    c     5.634023   -0.019098   -2.823473    0.000000    1.485000
    53  Cl    c    -5.658882    2.810013    0.000000    0.000000    1.485000
    54  Cl    c     2.810013   -5.658882    0.000000    0.000000    1.485000
    55  Cl    c    -2.858186    5.645105    0.000000    0.000000    1.485000
    56  Cl    c     5.645105   -2.858186    0.000000    0.000000    1.485000
    57  Na    c     2.794147   -2.799944    5.585322    0.000000   -1.128000
    58  Na    c    -2.799944    2.794147   -5.585322    0.000000   -1.128000
    59  Na    c    -2.799944    2.794147    5.585322    0.000000   -1.128000
    60  Na    c     2.794147   -2.799944   -5.585322    0.000000   -1.128000
    61  Na    c     2.780180    2.780180    5.541191    0.000000   -1.128000
    62  Na    c     2.780180    2.780180   -5.541191    0.000000   -1.128000
    63  Na    c    -2.775853   -2.775853    5.566512    0.000000   -1.128000
    64  Na    c    -2.775853   -2.775853   -5.566512    0.000000   -1.128000
    65  Na    c     5.510159    2.779350    2.710939    0.000000   -1.128000
    66  Na    c     2.779350    5.510159   -2.710939    0.000000   -1.128000
    67  Na    c     2.779350    5.510159    2.710939    0.000000   -1.128000
    68  Na    c     5.510159    2.779350   -2.710939    0.000000   -1.128000
    69  Na    c    -2.774475   -5.561316    2.780037    0.000000   -1.128000
    70  Na    c    -5.561316   -2.774475   -2.780037    0.000000   -1.128000
    71  Na    c    -5.561316   -2.774475    2.780037    0.000000   -1.128000
    72  Na    c    -2.774475   -5.561316   -2.780037    0.000000   -1.128000
    73  Na    c    -5.598236    2.786356   -2.798188    0.000000   -1.128000
    74  Na    c    -5.598236    2.786356    2.798188    0.000000   -1.128000
    75  Na    c     2.786356   -5.598236    2.798188    0.000000   -1.128000
    76  Na    c     2.786356   -5.598236   -2.798188    0.000000   -1.128000
    77  Na    c    -2.793209    5.592207   -2.769746    0.000000   -1.128000
    78  Na    c    -2.793209    5.592207    2.769746    0.000000   -1.128000
    79  Na    c     5.592207   -2.793209    2.769746    0.000000   -1.128000
    80  Na    c     5.592207   -2.793209   -2.769746    0.000000   -1.128000
    81  Na    c     5.519092    5.519092    0.000000    0.000000   -1.128000
    82  Na    c    -5.569717   -5.569717    0.000000    0.000000   -1.128000
    83  Na    c     5.589634    0.008015    5.578243    0.000000   -1.128000
    84  Na    c     0.008015    5.589634   -5.578243    0.000000   -1.128000
    85  Na    c     0.008015    5.589634    5.578243    0.000000   -1.128000
    86  Na    c     5.589634    0.008015   -5.578243    0.000000   -1.128000
    87  Na    c     0.001558   -5.563395    5.565742    0.000000   -1.128000
    88  Na    c    -5.563395    0.001558   -5.565742    0.000000   -1.128000
    89  Na    c    -5.563395    0.001558    5.565742    0.000000   -1.128000
    90  Na    c     0.001558   -5.563395   -5.565742    0.000000   -1.128000
    91  Na    c    -5.590373    5.592603    0.000000    0.000000   -1.128000
    92  Na    c     5.592603   -5.590373    0.000000    0.000000   -1.128000
    93  Cl    c     5.578642    5.578642    2.802013    0.000000    1.485000
    94  Cl    c     5.578642    5.578642   -2.802013    0.000000    1.485000
    95  Cl    c    -5.586321   -5.586321    2.796609    0.000000    1.485000
    96  Cl    c    -5.586321   -5.586321   -2.796609    0.000000    1.485000
    97  Cl    c     0.000397    0.000397    8.373744    0.000000    1.485000
    98  Cl    c     0.000397    0.000397   -8.373744    0.000000    1.485000
    99  Cl    c    -0.024401    8.437567    0.000000    0.000000    1.485000
   100  Cl    c     8.437567   -0.024401    0.000000    0.000000    1.485000
   101  Cl    c    -8.400864   -0.004311    0.000000    0.000000    1.485000
   102  Cl    c    -0.004311   -8.400864    0.000000    0.000000    1.485000
   103  Cl    c    -5.605365    5.589442   -2.800868    0.000000    1.485000
   104  Cl    c    -5.605365    5.589442    2.800868    0.000000    1.485000
   105  Cl    c     5.589442   -5.605365    2.800868    0.000000    1.485000
   106  Cl    c     5.589442   -5.605365   -2.800868    0.000000    1.485000
   107  Cl    c     5.580293    2.787580    5.582488    0.000000    1.485000
   108  Cl    c     2.787580    5.580293    5.582488    0.000000    1.485000
   109  Cl    c     2.787580    5.580293   -5.582488    0.000000    1.485000
   110  Cl    c     5.580293    2.787580   -5.582488    0.000000    1.485000
   111  Cl    c    -2.793564   -5.586158    5.589118    0.000000    1.485000
   112  Cl    c    -5.586158   -2.793564    5.589118    0.000000    1.485000
   113  Cl    c    -5.586158   -2.793564   -5.589118    0.000000    1.485000
   114  Cl    c    -2.793564   -5.586158   -5.589118    0.000000    1.485000
   115  Cl    c    -5.601452    2.792692   -5.600654    0.000000    1.485000
   116  Cl    c    -5.601452    2.792692    5.600654    0.000000    1.485000
   117  Cl    c     2.792692   -5.601452    5.600654    0.000000    1.485000
   118  Cl    c     2.792692   -5.601452   -5.600654    0.000000    1.485000
   119  Cl    c    -2.800396    5.592921   -5.594722    0.000000    1.485000
   120  Cl    c    -2.800396    5.592921    5.594722    0.000000    1.485000
   121  Cl    c     5.592921   -2.800396    5.594722    0.000000    1.485000
   122  Cl    c     5.592921   -2.800396   -5.594722    0.000000    1.485000
   123  Na    c     2.789663    0.003618    8.361252    0.000000   -1.128000
   124  Na    c     0.003618    2.789663    8.361252    0.000000   -1.128000
   125  Na    c     0.003618    2.789663   -8.361252    0.000000   -1.128000
   126  Na    c     2.789663    0.003618   -8.361252    0.000000   -1.128000
   127  Na    c     0.002394   -2.779570    8.349452    0.000000   -1.128000
   128  Na    c    -2.779570    0.002394    8.349452    0.000000   -1.128000
   129  Na    c    -2.779570    0.002394   -8.349452    0.000000   -1.128000
   130  Na    c     0.002394   -2.779570   -8.349452    0.000000   -1.128000
   131  Na    c     2.804133    8.394870    0.000000    0.000000   -1.128000
   132  Na    c     8.394870    2.804133    0.000000    0.000000   -1.128000
   133  Na    c    -8.360109   -2.792103    0.000000    0.000000   -1.128000
   134  Na    c    -2.792103   -8.360109    0.000000    0.000000   -1.128000
   135  Na    c     0.015753    8.379837   -2.793674    0.000000   -1.128000
   136  Na    c     0.015753    8.379837    2.793674    0.000000   -1.128000
   137  Na    c     8.379837    0.015753    2.793674    0.000000   -1.128000
   138  Na    c     8.379837    0.015753   -2.793674    0.000000   -1.128000
   139  Na    c    -8.361963   -0.001909   -2.791582    0.000000   -1.128000
   140  Na    c    -8.361963   -0.001909    2.791582    0.000000   -1.128000
   141  Na    c    -0.001909   -8.361963    2.791582    0.000000   -1.128000
   142  Na    c    -0.001909   -8.361963   -2.791582    0.000000   -1.128000
   143  Na    c    -2.798275    8.379830    0.000000    0.000000   -1.128000
   144  Na    c     8.379830   -2.798275    0.000000    0.000000   -1.128000
   145  Na    c    -8.385205    2.790682    0.000000    0.000000   -1.128000
   146  Na    c     2.790682   -8.385205    0.000000    0.000000   -1.128000
   147  Cl    c     2.795721    8.398797   -2.814078    0.000000    1.485000
   148  Cl    c     2.795721    8.398797    2.814078    0.000000    1.485000
   149  Cl    c     8.398797    2.795721    2.814078    0.000000    1.485000
   150  Cl    c     8.398797    2.795721   -2.814078    0.000000    1.485000
   151  Cl    c    -8.387355   -2.799339   -2.797959    0.000000    1.485000
   152  Cl    c    -8.387355   -2.799339    2.797959    0.000000    1.485000
   153  Cl    c    -2.799339   -8.387355    2.797959    0.000000    1.485000
   154  Cl    c    -2.799339   -8.387355   -2.797959    0.000000    1.485000
   155  Cl    c    -8.400766    2.795053   -2.799887    0.000000    1.485000
   156  Cl    c    -8.400766    2.795053    2.799887    0.000000    1.485000
   157  Cl    c     2.795053   -8.400766    2.799887    0.000000    1.485000
   158  Cl    c     2.795053   -8.400766   -2.799887    0.000000    1.485000
   159  Cl    c    -2.803409    8.398273   -2.805514    0.000000    1.485000
   160  Cl    c    -2.803409    8.398273    2.805514    0.000000    1.485000
   161  Cl    c     8.398273   -2.803409    2.805514    0.000000    1.485000
   162  Cl    c     8.398273   -2.803409   -2.805514    0.000000    1.485000
   163  Cl    c     2.794827   -2.801718    8.393246    0.000000    1.485000
   164  Cl    c    -2.801718    2.794827    8.393246    0.000000    1.485000
   165  Cl    c    -2.801718    2.794827   -8.393246    0.000000    1.485000
   166  Cl    c     2.794827   -2.801718   -8.393246    0.000000    1.485000
   167  Cl    c     2.793383    2.793383    8.387865    0.000000    1.485000
   168  Cl    c     2.793383    2.793383   -8.387865    0.000000    1.485000
   169  Cl    c    -2.796500   -2.796500    8.383604    0.000000    1.485000
   170  Cl    c    -2.796500   -2.796500   -8.383604    0.000000    1.485000
   171  Na    c     5.562511    5.562511    5.557998    0.000000   -1.128000
   172  Na    c     5.562511    5.562511   -5.557998    0.000000   -1.128000
   173  Na    c    -5.567926   -5.567926    5.569132    0.000000   -1.128000
   174  Na    c    -5.567926   -5.567926   -5.569132    0.000000   -1.128000
   175  Na    c    -5.568934    5.574050   -5.570940    0.000000   -1.128000
   176  Na    c    -5.568934    5.574050    5.570940    0.000000   -1.128000
   177  Na    c     5.574050   -5.568934    5.570940    0.000000   -1.128000
   178  Na    c     5.574050   -5.568934   -5.570940    0.000000   -1.128000
   179  Na    s     1.339893    1.339893    0.000000    0.000000    2.128000
   180  Cl    s    -2.984138    0.016881    0.000000    0.000000   -2.485000
   181  Cl    s     0.016881   -2.984138    0.000000    0.000000   -2.485000
   182  Cl    s    -0.336281    3.120876    0.000000    0.000000   -2.485000
   183  Cl    s     3.120876   -0.336281    0.000000    0.000000   -2.485000
   184  Cl    s     0.090215    0.090215    2.784122    0.000000   -2.485000
   185  Cl    s     0.090215    0.090215   -2.784122    0.000000   -2.485000
   186  Na    s    -2.712953   -2.712953    0.000000    0.000000    2.128000
   187  Na    s     2.862658   -0.053097    2.801049    0.000000    2.128000
   188  Na    s    -0.053097    2.862658   -2.801049    0.000000    2.128000
   189  Na    s    -0.053097    2.862658    2.801049    0.000000    2.128000
   190  Na    s     2.862658   -0.053097   -2.801049    0.000000    2.128000
   191  Na    s     0.029897   -2.706853    2.703434    0.000000    2.128000
   192  Na    s    -2.706853    0.029897   -2.703434    0.000000    2.128000
   193  Na    s    -2.706853    0.029897    2.703434    0.000000    2.128000
   194  Na    s     0.029897   -2.706853   -2.703434    0.000000    2.128000
   195  Na    s    -2.920003    2.770177    0.000000    0.000000    2.128000
   196  Na    s     2.770177   -2.920003    0.000000    0.000000    2.128000
   197  Cl    s     2.711306    2.711306    2.826350    0.000000   -2.485000
   198  Cl    s     2.711306    2.711306   -2.826350    0.000000   -2.485000
   199  Cl    s    -2.780580   -2.780580    2.798718    0.000000   -2.485000
   200  Cl    s    -2.780580   -2.780580   -2.798718    0.000000   -2.485000
   201  Cl    s    -2.851112    2.813683   -2.834036    0.000000   -2.485000
   202  Cl    s    -2.851112    2.813683    2.834036    0.000000   -2.485000
   203  Cl    s     2.813683   -2.851112    2.834036    0.000000   -2.485000
   204  Cl    s     2.813683   -2.851112   -2.834036    0.000000   -2.485000
   205  Na    s     0.023970    0.023970    5.519882    0.000000    2.128000
   206  Na    s     0.023970    0.023970   -5.519882    0.000000    2.128000
   207  Na    s     0.035506    5.704591    0.000000    0.000000    2.128000
   208  Na    s     5.704591    0.035506    0.000000    0.000000    2.128000
   209  Na    s    -5.612368   -0.007460    0.000000    0.000000    2.128000
   210  Na    s    -0.007460   -5.612368    0.000000    0.000000    2.128000
   211  Cl    s     2.771075    5.767853    0.000000    0.000000   -2.485000
   212  Cl    s     5.767853    2.771075    0.000000    0.000000   -2.485000
   213  Cl    s    -5.604365   -2.811069    0.000000    0.000000   -2.485000
   214  Cl    s    -2.811069   -5.604365    0.000000    0.000000   -2.485000
   215  Cl    s     2.810216   -0.026890    5.611317    0.000000   -2.485000
   216  Cl    s    -0.026890    2.810216    5.611317    0.000000   -2.485000
   217  Cl    s    -0.026890    2.810216   -5.611317    0.000000   -2.485000
   218  Cl    s     2.810216   -0.026890   -5.611317    0.000000   -2.485000
   219  Cl    s     0.002506   -2.782442    5.574137    0.000000   -2.485000
   220  Cl    s    -2.782442    0.002506    5.574137    0.000000   -2.485000
   221  Cl    s    -2.782442    0.002506   -5.574137    0.000000   -2.485000
   222  Cl    s     0.002506   -2.782442   -5.574137    0.000000   -2.485000
   223  Cl    s    -5.611944    0.001393   -2.806945    0.000000   -2.485000
   224  Cl    s    -5.611944    0.001393    2.806945    0.000000   -2.485000
   225  Cl    s     0.001393   -5.611944    2.806945    0.000000   -2.485000
   226  Cl    s     0.001393   -5.611944   -2.806945    0.000000   -2.485000
   227  Cl    s    -0.021504    5.635581   -2.828699    0.000000   -2.485000
   228  Cl    s    -0.021504    5.635581    2.828699    0.000000   -2.485000
   229  Cl    s     5.635581   -0.021504    2.828699    0.000000   -2.485000
   230  Cl    s     5.635581   -0.021504   -2.828699    0.000000   -2.485000
   231  Cl    s    -5.658407    2.812220    0.000000    0.000000   -2.485000
   232  Cl    s     2.812220   -5.658407    0.000000    0.000000   -2.485000
   233  Cl    s    -2.872644    5.658074    0.000000    0.000000   -2.485000
   234  Cl    s     5.658074   -2.872644    0.000000    0.000000   -2.485000
   235  Na    s     2.794052   -2.799374    5.584072    0.000000    2.128000
   236  Na    s    -2.799374    2.794052   -5.584072    0.000000    2.128000
   237  Na    s    -2.799374    2.794052    5.584072    0.000000    2.128000
   238  Na    s     2.794052   -2.799374   -5.584072    0.000000    2.128000
   239  Na    s     2.780241    2.780241    5.538598    0.000000    2.128000
   240  Na    s     2.780241    2.780241   -5.538598    0.000000    2.128000
   241  Na    s    -2.775225   -2.775225    5.565495    0.000000    2.128000
   242  Na    s    -2.775225   -2.775225   -5.565495    0.000000    2.128000
   243  Na    s     5.509660    2.779328    2.708455    0.000000    2.128000
   244  Na    s     2.779328    5.509660   -2.708455    0.000000    2.128000
   245  Na    s     2.779328    5.509660    2.708455    0.000000    2.128000
   246  Na    s     5.509660    2.779328   -2.708455    0.000000    2.128000
   247  Na    s    -2.773854   -5.560601    2.779558    0.000000    2.128000
   248  Na    s    -5.560601   -2.773854   -2.779558    0.000000    2.128000
   249  Na    s    -5.560601   -2.773854    2.779558    0.000000    2.128000
   250  Na    s    -2.773854   -5.560601   -2.779558    0.000000    2.128000
   251  Na    s    -5.597075    2.786088   -2.798209    0.000000    2.128000
   252  Na    s    -5.597075    2.786088    2.798209    0.000000    2.128000
   253  Na    s     2.786088   -5.597075    2.798209    0.000000    2.128000
   254  Na    s     2.786088   -5.597075   -2.798209    0.000000    2.128000
   255  Na    s    -2.792637    5.591821   -2.768960    0.000000    2.128000
   256  Na    s    -2.792637    5.591821    2.768960    0.000000    2.128000
   257  Na    s     5.591821   -2.792637    2.768960    0.000000    2.128000
   258  Na    s     5.591821   -2.792637   -2.768960    0.000000    2.128000
   259  Na    s     5.518090    5.518090    0.000000    0.000000    2.128000
   260  Na    s    -5.568865   -5.568865    0.000000    0.000000    2.128000
   261  Na    s     5.589622    0.008528    5.577318    0.000000    2.128000
   262  Na    s     0.008528    5.589622   -5.577318    0.000000    2.128000
   263  Na    s     0.008528    5.589622    5.577318    0.000000    2.128000
   264  Na    s     5.589622    0.008528   -5.577318    0.000000    2.128000
   265  Na    s     0.001652   -5.563053    5.564813    0.000000    2.128000
   266  Na    s    -5.563053    0.001652   -5.564813    0.000000    2.128000
   267  Na    s    -5.563053    0.001652    5.564813    0.000000    2.128000
   268  Na    s     0.001652   -5.563053   -5.564813    0.000000    2.128000
   269  Na    s    -5.588936    5.592763    0.000000    0.000000    2.128000
   270  Na    s     5.592763   -5.588936    0.000000    0.000000    2.128000
   271  Cl    s     5.577961    5.577961    2.805480    0.000000   -2.485000
   272  Cl    s     5.577961    5.577961   -2.805480    0.000000   -2.485000
   273  Cl    s    -5.588245   -5.588245    2.798900    0.000000   -2.485000
   274  Cl    s    -5.588245   -5.588245   -2.798900    0.000000   -2.485000
   275  Cl    s    -0.000382   -0.000382    8.378904    0.000000   -2.485000
   276  Cl    s    -0.000382   -0.000382   -8.378904    0.000000   -2.485000
   277  Cl    s    -0.028088    8.436140    0.000000    0.000000   -2.485000
   278  Cl    s     8.436140   -0.028088    0.000000    0.000000   -2.485000
   279  Cl    s    -8.402195   -0.004975    0.000000    0.000000   -2.485000
   280  Cl    s    -0.004975   -8.402195    0.000000    0.000000   -2.485000
   281  Cl    s    -5.609223    5.591211   -2.803713    0.000000   -2.485000
   282  Cl    s    -5.609223    5.591211    2.803713    0.000000   -2.485000
   283  Cl    s     5.591211   -5.609223    2.803713    0.000000   -2.485000
   284  Cl    s     5.591211   -5.609223   -2.803713    0.000000   -2.485000
   285  Cl    s     5.580339    2.788004    5.589497    0.000000   -2.485000
   286  Cl    s     2.788004    5.580339    5.589497    0.000000   -2.485000
   287  Cl    s     2.788004    5.580339   -5.589497    0.000000   -2.485000
   288  Cl    s     5.580339    2.788004   -5.589497    0.000000   -2.485000
   289  Cl    s    -2.795551   -5.587852    5.590960    0.000000   -2.485000
   290  Cl    s    -5.587852   -2.795551    5.590960    0.000000   -2.485000
   291  Cl    s    -5.587852   -2.795551   -5.590960    0.000000   -2.485000
   292  Cl    s    -2.795551   -5.587852   -5.590960    0.000000   -2.485000
   293  Cl    s    -5.603654    2.793751   -5.602711    0.000000   -2.485000
   294  Cl    s    -5.603654    2.793751    5.602711    0.000000   -2.485000
   295  Cl    s     2.793751   -5.603654    5.602711    0.000000   -2.485000
   296  Cl    s     2.793751   -5.603654   -5.602711    0.000000   -2.485000
   297  Cl    s    -2.804558    5.594433   -5.598807    0.000000   -2.485000
   298  Cl    s    -2.804558    5.594433    5.598807    0.000000   -2.485000
   299  Cl    s     5.594433   -2.804558    5.598807    0.000000   -2.485000
   300  Cl    s     5.594433   -2.804558   -5.598807    0.000000   -2.485000
   301  Na    s     2.789672    0.003900    8.360209    0.000000    2.128000
   302  Na    s     0.003900    2.789672    8.360209    0.000000    2.128000
   303  Na    s     0.003900    2.789672   -8.360209    0.000000    2.128000
   304  Na    s     2.789672    0.003900   -8.360209    0.000000    2.128000
   305  Na    s     0.002524   -2.779162    8.348875    0.000000    2.128000
   306  Na    s    -2.779162    0.002524    8.348875    0.000000    2.128000
   307  Na    s    -2.779162    0.002524   -8.348875    0.000000    2.128000
   308  Na    s     0.002524   -2.779162   -8.348875    0.000000    2.128000
   309  Na    s     2.805062    8.390511    0.000000    0.000000    2.128000
   310  Na    s     8.390511    2.805062    0.000000    0.000000    2.128000
   311  Na    s    -8.359240   -2.792117    0.000000    0.000000    2.128000
   312  Na    s    -2.792117   -8.359240    0.000000    0.000000    2.128000
   313  Na    s     0.016419    8.379069   -2.793976    0.000000    2.128000
   314  Na    s     0.016419    8.379069    2.793976    0.000000    2.128000
   315  Na    s     8.379069    0.016419    2.793976    0.000000    2.128000
   316  Na    s     8.379069    0.016419   -2.793976    0.000000    2.128000
   317  Na    s    -8.360997   -0.001888   -2.791676    0.000000    2.128000
   318  Na    s    -8.360997   -0.001888    2.791676    0.000000    2.128000
   319  Na    s    -0.001888   -8.360997    2.791676    0.000000    2.128000
   320  Na    s    -0.001888   -8.360997   -2.791676    0.000000    2.128000
   321  Na    s    -2.798198    8.378464    0.000000    0.000000    2.128000
   322  Na    s     8.378464   -2.798198    0.000000    0.000000    2.128000
   323  Na    s    -8.383940    2.790848    0.000000    0.000000    2.128000
   324  Na    s     2.790848   -8.383940    0.000000    0.000000    2.128000
   325  Cl    s     2.794695    8.409838   -2.817419    0.000000   -2.485000
   326  Cl    s     2.794695    8.409838    2.817419    0.000000   -2.485000
   327  Cl    s     8.409838    2.794695    2.817419    0.000000   -2.485000
   328  Cl    s     8.409838    2.794695   -2.817419    0.000000   -2.485000
   329  Cl    s    -8.391616   -2.800386   -2.799010    0.000000   -2.485000
   330  Cl    s    -8.391616   -2.800386    2.799010    0.000000   -2.485000
   331  Cl    s    -2.800386   -8.391616    2.799010    0.000000   -2.485000
   332  Cl    s    -2.800386   -8.391616   -2.799010    0.000000   -2.485000
   333  Cl    s    -8.403980    2.795856   -2.801408    0.000000   -2.485000
   334  Cl    s    -8.403980    2.795856    2.801408    0.000000   -2.485000
   335  Cl    s     2.795856   -8.403980    2.801408    0.000000   -2.485000
   336  Cl    s     2.795856   -8.403980   -2.801408    0.000000   -2.485000
   337  Cl    s    -2.807205    8.401730   -2.807732    0.000000   -2.485000
   338  Cl    s    -2.807205    8.401730    2.807732    0.000000   -2.485000
   339  Cl    s     8.401730   -2.807205    2.807732    0.000000   -2.485000
   340  Cl    s     8.401730   -2.807205   -2.807732    0.000000   -2.485000
   341  Cl    s     2.795238   -2.803902    8.396085    0.000000   -2.485000
   342  Cl    s    -2.803902    2.795238    8.396085    0.000000   -2.485000
   343  Cl    s    -2.803902    2.795238   -8.396085    0.000000   -2.485000
   344  Cl    s     2.795238   -2.803902   -8.396085    0.000000   -2.485000
   345  Cl    s     2.793199    2.793199    8.394264    0.000000   -2.485000
   346  Cl    s     2.793199    2.793199   -8.394264    0.000000   -2.485000
   347  Cl    s    -2.797439   -2.797439    8.386556    0.000000   -2.485000
   348  Cl    s    -2.797439   -2.797439   -8.386556    0.000000   -2.485000
   349  Na    s     5.561862    5.561862    5.556804    0.000000    2.128000
   350  Na    s     5.561862    5.561862   -5.556804    0.000000    2.128000
   351  Na    s    -5.567334   -5.567334    5.568517    0.000000    2.128000
   352  Na    s    -5.567334   -5.567334   -5.568517    0.000000    2.128000
   353  Na    s    -5.568257    5.573751   -5.570330    0.000000    2.128000
   354  Na    s    -5.568257    5.573751    5.570330    0.000000    2.128000
   355  Na    s     5.573751   -5.568257    5.570330    0.000000    2.128000
   356  Na    s     5.573751   -5.568257   -5.570330    0.000000    2.128000
--------------------------------------------------------------------------------

  Final coordinates of symmetry reduced region 1 (relative to defect centre):

--------------------------------------------------------------------------------
   No.  Atomic        x           y           z          Charge
        Label       (Angs)      (Angs)      (Angs)         (e) 
--------------------------------------------------------------------------------
     1  Na    c     1.339893    1.339893    0.000000   -1.128000
     2  Cl    c    -2.941702    0.018428    0.000000    1.485000
     3  Cl    c    -0.353883    3.142134    0.000000    1.485000
     4  Cl    c     0.087466    0.087466    2.753344    1.485000
     5  Na    c    -2.714736   -2.714736    0.000000   -1.128000
     6  Na    c     2.862643   -0.053649    2.800499   -1.128000
     7  Na    c     0.029434   -2.707344    2.705897   -1.128000
     8  Na    c    -2.924342    2.770974    0.000000   -1.128000
     9  Cl    c     2.714138    2.714138    2.792330    1.485000
    10  Cl    c    -2.778886   -2.778886    2.797441    1.485000
    11  Cl    c    -2.847883    2.812925   -2.828749    1.485000
    12  Na    c     0.023604    0.023604    5.521798   -1.128000
    13  Na    c     0.034159    5.708632    0.000000   -1.128000
    14  Na    c    -5.616905   -0.007272    0.000000   -1.128000
    15  Cl    c     2.772173    5.723290    0.000000    1.485000
    16  Cl    c    -5.593882   -2.808280    0.000000    1.485000
    17  Cl    c     2.809533   -0.024446    5.607535    1.485000
    18  Cl    c     0.003416   -2.780576    5.566571    1.485000
    19  Cl    c    -5.599974    0.002146   -2.803527    1.485000
    20  Cl    c    -0.019098    5.634023   -2.823473    1.485000
    21  Cl    c    -5.658882    2.810013    0.000000    1.485000
    22  Cl    c    -2.858186    5.645105    0.000000    1.485000
    23  Na    c     2.794147   -2.799944    5.585322   -1.128000
    24  Na    c     2.780180    2.780180    5.541191   -1.128000
    25  Na    c    -2.775853   -2.775853    5.566512   -1.128000
    26  Na    c     5.510159    2.779350    2.710939   -1.128000
    27  Na    c    -2.774475   -5.561316    2.780037   -1.128000
    28  Na    c    -5.598236    2.786356   -2.798188   -1.128000
    29  Na    c    -2.793209    5.592207   -2.769746   -1.128000
    30  Na    c     5.519092    5.519092    0.000000   -1.128000
    31  Na    c    -5.569717   -5.569717    0.000000   -1.128000
    32  Na    c     5.589634    0.008015    5.578243   -1.128000
    33  Na    c     0.001558   -5.563395    5.565742   -1.128000
    34  Na    c    -5.590373    5.592603    0.000000   -1.128000
    35  Cl    c     5.578642    5.578642    2.802013    1.485000
    36  Cl    c    -5.586321   -5.586321    2.796609    1.485000
    37  Cl    c     0.000397    0.000397    8.373744    1.485000
    38  Cl    c    -0.024401    8.437567    0.000000    1.485000
    39  Cl    c    -8.400864   -0.004311    0.000000    1.485000
    40  Cl    c    -5.605365    5.589442   -2.800868    1.485000
    41  Cl    c     5.580293    2.787580    5.582488    1.485000
    42  Cl    c    -2.793564   -5.586158    5.589118    1.485000
    43  Cl    c    -5.601452    2.792692   -5.600654    1.485000
    44  Cl    c    -2.800396    5.592921   -5.594722    1.485000
    45  Na    c     2.789663    0.003618    8.361252   -1.128000
    46  Na    c     0.002394   -2.779570    8.349452   -1.128000
    47  Na    c     2.804133    8.394870    0.000000   -1.128000
    48  Na    c    -8.360109   -2.792103    0.000000   -1.128000
    49  Na    c     0.015753    8.379837   -2.793674   -1.128000
    50  Na    c    -8.361963   -0.001909   -2.791582   -1.128000
    51  Na    c    -2.798275    8.379830    0.000000   -1.128000
    52  Na    c    -8.385205    2.790682    0.000000   -1.128000
    53  Cl    c     2.795721    8.398797   -2.814078    1.485000
    54  Cl    c    -8.387355   -2.799339   -2.797959    1.485000
    55  Cl    c    -8.400766    2.795053   -2.799887    1.485000
    56  Cl    c    -2.803409    8.398273   -2.805514    1.485000
    57  Cl    c     2.794827   -2.801718    8.393246    1.485000
    58  Cl    c     2.793383    2.793383    8.387865    1.485000
    59  Cl    c    -2.796500   -2.796500    8.383604    1.485000
    60  Na    c     5.562511    5.562511    5.557998   -1.128000
    61  Na    c    -5.567926   -5.567926    5.569132   -1.128000
    62  Na    c    -5.568934    5.574050   -5.570940   -1.128000
    63  Na    s     1.339893    1.339893    0.000000    2.128000
    64  Cl    s    -2.984138    0.016881    0.000000   -2.485000
    65  Cl    s    -0.336281    3.120876    0.000000   -2.485000
    66  Cl    s     0.090215    0.090215    2.784122   -2.485000
    67  Na    s    -2.712953   -2.712953    0.000000    2.128000
    68  Na    s     2.862658   -0.053097    2.801049    2.128000
    69  Na    s     0.029897   -2.706853    2.703434    2.128000
    70  Na    s    -2.920003    2.770177    0.000000    2.128000
    71  Cl    s     2.711306    2.711306    2.826350   -2.485000
    72  Cl    s    -2.780580   -2.780580    2.798718   -2.485000
    73  Cl    s    -2.851112    2.813683   -2.834036   -2.485000
    74  Na    s     0.023970    0.023970    5.519882    2.128000
    75  Na    s     0.035506    5.704591    0.000000    2.128000
    76  Na    s    -5.612368   -0.007460    0.000000    2.128000
    77  Cl    s     2.771075    5.767853    0.000000   -2.485000
    78  Cl    s    -5.604365   -2.811069    0.000000   -2.485000
    79  Cl    s     2.810216   -0.026890    5.611317   -2.485000
    80  Cl    s     0.002506   -2.782442    5.574137   -2.485000
    81  Cl    s    -5.611944    0.001393   -2.806945   -2.485000
    82  Cl    s    -0.021504    5.635581   -2.828699   -2.485000
    83  Cl    s    -5.658407    2.812220    0.000000   -2.485000
    84  Cl    s    -2.872644    5.658074    0.000000   -2.485000
    85  Na    s     2.794052   -2.799374    5.584072    2.128000
    86  Na    s     2.780241    2.780241    5.538598    2.128000
    87  Na    s    -2.775225   -2.775225    5.565495    2.128000
    88  Na    s     5.509660    2.779328    2.708455    2.128000
    89  Na    s    -2.773854   -5.560601    2.779558    2.128000
    90  Na    s    -5.597075    2.786088   -2.798209    2.128000
    91  Na    s    -2.792637    5.591821   -2.768960    2.128000
    92  Na    s     5.518090    5.518090    0.000000    2.128000
    93  Na    s    -5.568865   -5.568865    0.000000    2.128000
    94  Na    s     5.589622    0.008528    5.577318    2.128000
    95  Na    s     0.001652   -5.563053    5.564813    2.128000
    96  Na    s    -5.588936    5.592763    0.000000    2.128000
    97  Cl    s     5.577961    5.577961    2.805480   -2.485000
    98  Cl    s    -5.588245   -5.588245    2.798900   -2.485000
    99  Cl    s    -0.000382   -0.000382    8.378904   -2.485000
   100  Cl    s    -0.028088    8.436140    0.000000   -2.485000
   101  Cl    s    -8.402195   -0.004975    0.000000   -2.485000
   102  Cl    s    -5.609223    5.591211   -2.803713   -2.485000
   103  Cl    s     5.580339    2.788004    5.589497   -2.485000
   104  Cl    s    -2.795551   -5.587852    5.590960   -2.485000
   105  Cl    s    -5.603654    2.793751   -5.602711   -2.485000
   106  Cl    s    -2.804558    5.594433   -5.598807   -2.485000
   107  Na    s     2.789672    0.003900    8.360209    2.128000
   108  Na    s     0.002524   -2.779162    8.348875    2.128000
   109  Na    s     2.805062    8.390511    0.000000    2.128000
   110  Na    s    -8.359240   -2.792117    0.000000    2.128000
   111  Na    s     0.016419    8.379069   -2.793976    2.128000
   112  Na    s    -8.360997   -0.001888   -2.791676    2.128000
   113  Na    s    -2.798198    8.378464    0.000000    2.128000
   114  Na    s    -8.383940    2.790848    0.000000    2.128000
   115  Cl    s     2.794695    8.409838   -2.817419   -2.485000
   116  Cl    s    -8.391616   -2.800386   -2.799010   -2.485000
   117  Cl    s    -8.403980    2.795856   -2.801408   -2.485000
   118  Cl    s    -2.807205    8.401730   -2.807732   -2.485000
   119  Cl    s     2.795238   -2.803902    8.396085   -2.485000
   120  Cl    s     2.793199    2.793199    8.394264   -2.485000
   121  Cl    s    -2.797439   -2.797439    8.386556   -2.485000
   122  Na    s     5.561862    5.561862    5.556804    2.128000
   123  Na    s    -5.567334   -5.567334    5.568517    2.128000
   124  Na    s    -5.568257    5.573751   -5.570330    2.128000
--------------------------------------------------------------------------------


  Final derivatives for region 1 :

--------------------------------------------------------------------------------
   No.  Atomic          x             y             z            Radius
        Label       (eV/Angs)     (eV/Angs)     (eV/Angs)       (eV/Angs)
--------------------------------------------------------------------------------
     1  Na    c       0.000000      0.000000      0.000000      0.000000
     2  Cl    c       0.001074     -0.000169      0.000000      0.000000
     3  Cl    c       0.001132      0.000689      0.000000      0.000000
     4  Cl    c      -0.000176      0.000000     -0.000933      0.000000
     5  Na    c      -0.000081      0.000000      0.000000      0.000000
     6  Na    c       0.000188     -0.000335      0.000561      0.000000
     7  Na    c      -0.000020     -0.000393      0.000202      0.000000
     8  Na    c      -0.000416      0.000195      0.000000      0.000000
     9  Cl    c       0.000113      0.000000     -0.001006      0.000000
    10  Cl    c       0.000388      0.000000     -0.000157      0.000000
    11  Cl    c       0.000514     -0.000350      0.000341      0.000000
    12  Na    c      -0.000070      0.000000      0.000236      0.000000
    13  Na    c      -0.000149      0.000348      0.000000      0.000000
    14  Na    c      -0.000505      0.000028      0.000000      0.000000
    15  Cl    c       0.000082     -0.001153      0.000000      0.000000
    16  Cl    c       0.000178      0.000142      0.000000      0.000000
    17  Cl    c      -0.000127      0.000132     -0.000477      0.000000
    18  Cl    c       0.000027      0.000219     -0.000277      0.000000
    19  Cl    c       0.000362     -0.000019      0.000272      0.000000
    20  Cl    c       0.000323     -0.000499      0.000273      0.000000
    21  Cl    c       0.000189     -0.000107      0.000000      0.000000
    22  Cl    c       0.000077     -0.000123      0.000000      0.000000
    23  Na    c       0.000067     -0.000147      0.000203      0.000000
    24  Na    c       0.000077      0.000000      0.000182      0.000000
    25  Na    c      -0.000099      0.000000      0.000095      0.000000
    26  Na    c       0.000474      0.000024      0.000354      0.000000
    27  Na    c      -0.000120     -0.000189      0.000109      0.000000
    28  Na    c      -0.000198      0.000094     -0.000103      0.000000
    29  Na    c      -0.000175      0.000185     -0.000060      0.000000
    30  Na    c       0.000155      0.000000      0.000000      0.000000
    31  Na    c      -0.000069      0.000000      0.000000      0.000000
    32  Na    c       0.000151     -0.000083      0.000208      0.000000
    33  Na    c      -0.000006     -0.000125      0.000134      0.000000
    34  Na    c      -0.000053      0.000077      0.000000      0.000000
    35  Cl    c      -0.000433      0.000000     -0.000197      0.000000
    36  Cl    c       0.000149      0.000000     -0.000041      0.000000
    37  Cl    c       0.000028      0.000000     -0.000120      0.000000
    38  Cl    c       0.000170     -0.000143      0.000000      0.000000
    39  Cl    c       0.000121      0.000002      0.000000      0.000000
    40  Cl    c       0.000168     -0.000143      0.000068      0.000000
    41  Cl    c      -0.000193     -0.000019     -0.000330      0.000000
    42  Cl    c       0.000084      0.000148     -0.000148      0.000000
    43  Cl    c       0.000165     -0.000057      0.000146      0.000000
    44  Cl    c       0.000147     -0.000144      0.000174      0.000000
    45  Na    c       0.000028     -0.000026      0.000192      0.000000
    46  Na    c      -0.000013     -0.000066      0.000144      0.000000
    47  Na    c      -0.000025      0.000488      0.000000      0.000000
    48  Na    c      -0.000083     -0.000028      0.000000      0.000000
    49  Na    c      -0.000116      0.000164     -0.000120      0.000000
    50  Na    c      -0.000158     -0.000003     -0.000058      0.000000
    51  Na    c      -0.000080      0.000037      0.000000      0.000000
    52  Na    c      -0.000087      0.000026      0.000000      0.000000
    53  Cl    c      -0.000006     -0.000385      0.000264      0.000000
    54  Cl    c       0.000179      0.000071      0.000069      0.000000
    55  Cl    c       0.000185     -0.000061      0.000066      0.000000
    56  Cl    c       0.000146     -0.000165      0.000072      0.000000
    57  Cl    c      -0.000043      0.000092     -0.000185      0.000000
    58  Cl    c      -0.000031      0.000000     -0.000113      0.000000
    59  Cl    c       0.000073      0.000000     -0.000081      0.000000
    60  Na    c       0.000101      0.000000      0.000108      0.000000
    61  Na    c      -0.000069      0.000000      0.000034      0.000000
    62  Na    c      -0.000092      0.000063     -0.000070      0.000000
    63  Na    s       0.000000      0.000000      0.000000      0.000000
    64  Cl    s      -0.000863      0.000381      0.000000      0.000000
    65  Cl    s       0.005586     -0.005111      0.000000      0.000000
    66  Cl    s       0.000314      0.000000      0.001271      0.000000
    67  Na    s       0.000209      0.000000      0.000000      0.000000
    68  Na    s      -0.000305      0.000519     -0.000754      0.000000
    69  Na    s       0.000051      0.000816     -0.000571      0.000000
    70  Na    s       0.000502     -0.000361      0.000000      0.000000
    71  Cl    s      -0.000151      0.000000      0.001480      0.000000
    72  Cl    s      -0.000606      0.000000      0.000249      0.000000
    73  Cl    s      -0.000848      0.000565     -0.000561      0.000000
    74  Na    s       0.000114      0.000000     -0.000343      0.000000
    75  Na    s       0.000248     -0.000868      0.000000      0.000000
    76  Na    s      -0.000036     -0.000037      0.000000      0.000000
    77  Cl    s      -0.000199      0.001047      0.000000      0.000000
    78  Cl    s      -0.000288     -0.000227      0.000000      0.000000
    79  Cl    s       0.000210     -0.000214      0.000753      0.000000
    80  Cl    s      -0.000053     -0.000346      0.000557      0.000000
    81  Cl    s      -0.000565      0.000019     -0.000435      0.000000
    82  Cl    s      -0.000546      0.000856     -0.000448      0.000000
    83  Cl    s      -0.000217      0.000179      0.000000      0.000000
    84  Cl    s      -0.000110      0.000210      0.000000      0.000000
    85  Na    s      -0.000129      0.000278     -0.000383      0.000000
    86  Na    s      -0.000127      0.000000     -0.000369      0.000000
    87  Na    s       0.000190      0.000000     -0.000168      0.000000
    88  Na    s      -0.000946     -0.000007     -0.000706      0.000000
    89  Na    s       0.000229      0.000348     -0.000217      0.000000
    90  Na    s       0.000359     -0.000180      0.000201      0.000000
    91  Na    s       0.000306     -0.000338      0.000089      0.000000
    92  Na    s      -0.000358      0.000000      0.000000      0.000000
    93  Na    s       0.000114      0.000000      0.000000      0.000000
    94  Na    s      -0.000274      0.000151     -0.000402      0.000000
    95  Na    s       0.000011      0.000230     -0.000231      0.000000
    96  Na    s       0.000131     -0.000131      0.000000      0.000000
    97  Cl    s       0.000705      0.000000      0.000298      0.000000
    98  Cl    s      -0.000251      0.000000      0.000065      0.000000
    99  Cl    s      -0.000049      0.000000      0.000203      0.000000
   100  Cl    s      -0.000228      0.000215      0.000000      0.000000
   101  Cl    s      -0.000224     -0.000002      0.000000      0.000000
   102  Cl    s      -0.000285      0.000245     -0.000110      0.000000
   103  Cl    s       0.000323      0.000039      0.000598      0.000000
   104  Cl    s      -0.000133     -0.000249      0.000251      0.000000
   105  Cl    s      -0.000275      0.000089     -0.000246      0.000000
   106  Cl    s      -0.000243      0.000245     -0.000288      0.000000
   107  Na    s      -0.000054      0.000057     -0.000313      0.000000
   108  Na    s       0.000025      0.000122     -0.000274      0.000000
   109  Na    s       0.000028      0.000054      0.000000      0.000000
   110  Na    s       0.000145      0.000055      0.000000      0.000000
   111  Na    s       0.000218     -0.000364      0.000216      0.000000
   112  Na    s       0.000293      0.000006      0.000110      0.000000
   113  Na    s       0.000118     -0.000112      0.000000      0.000000
   114  Na    s       0.000151     -0.000050      0.000000      0.000000
   115  Cl    s       0.000013      0.000661     -0.000431      0.000000
   116  Cl    s      -0.000298     -0.000117     -0.000112      0.000000
   117  Cl    s      -0.000309      0.000099     -0.000108      0.000000
   118  Cl    s      -0.000244      0.000288     -0.000111      0.000000
   119  Cl    s       0.000069     -0.000155      0.000314      0.000000
   120  Cl    s       0.000051      0.000000      0.000213      0.000000
   121  Cl    s      -0.000120      0.000000      0.000140      0.000000
   122  Na    s      -0.000192      0.000000     -0.000182      0.000000
   123  Na    s       0.000130      0.000000     -0.000064      0.000000
   124  Na    s       0.000173     -0.000119      0.000135      0.000000
--------------------------------------------------------------------------------


  Time to end of optimisation  =        4.7227 seconds


  Peak dynamic memory used =      32.57 MB 


  Timing analysis for GULP :

--------------------------------------------------------------------------------
  Task / Subroutine                                          Time (Seconds)
--------------------------------------------------------------------------------
  Calculation of reciprocal space energy and derivatives          0.0003
  Calculation of reciprocal space energy using symmetry           0.0004
  Calculation of real space energy and derivatives                0.0019
  Calculation of real space energy using symmetry                 0.0097
  Calculation for region 1 energy and derivatives (2-b)           1.3665
  Calculation for region 2a energy                                3.0351
  Calculation for region 2b energy                                0.0016
  Calculation and manipulation of Hessian matrix                  0.2403
  Calculation of matrix inversion                                 0.0161
  Symmetry generation of equivalent positions                     0.0028
--------------------------------------------------------------------------------
  Total CPU time                                                  4.7227
--------------------------------------------------------------------------------


  Dump file written as NaCl.grs


  Job Finished at 19:09.11  4th October    2020                               

