********************************************************************************
*                       GENERAL UTILITY LATTICE PROGRAM                        *
*                                 Julian Gale                                  *
*                       Curtin Institute for Computation                       *
*                    School of Molecular and Life Sciences                     *
*                    Curtin University, Western Australia                      *
********************************************************************************
* Version = 5.2.0 * Last modified =  10th September 2020                       *
********************************************************************************
*  optimise     - perform optimisation run                                     *
*  conp         - constant pressure calculation                                *
*  property     - calculate properties for final geometry                      *
*  defect       - perform defect calculation after bulk run                    *
*  compare      - compare initial and final structures                         *
********************************************************************************

  Job Started  at 12:29.04  1st December   2020                               

  Number of CPUs =     1


  Total number of configurations input =      1

********************************************************************************
*  Input for Configuration =   1                                               *
********************************************************************************

  Formula = ClOLi3                                                      

  Number of irreducible atoms/shells =       5


  Total number atoms/shells =       7

  Dimensionality = 3               :  Bulk   


  Symmetry :

  Crystal family                   :  Cubic       
  Crystal class  (Groth - 1921)    :  Cubic Hexakisoctahedral              

  Space group (centrosymmetric)    :  P M 3 M         

  Patterson group                  :  P m -3 m 

  Cartesian lattice vectors (Angstroms) :

        3.918873    0.000000    0.000000
        0.000000    3.918873    0.000000
        0.000000    0.000000    3.918873

  Cell parameters (Angstroms/Degrees):

  a =       3.9189    alpha =  90.0000
  b =       3.9189    beta  =  90.0000
  c =       3.9189    gamma =  90.0000

  Initial cell volume =          60.184349 Angs**3

  Temperature of configuration =   0.00     K 

  Pressure of configuration =         0.000 GPa 

  Fractional coordinates of asymmetric unit :

--------------------------------------------------------------------------------
   No.  Atomic       x           y          z         Charge      Occupancy
        Label      (Frac)      (Frac)     (Frac)        (e)         (Frac)  
--------------------------------------------------------------------------------
      1 Cl    c    0.000000    0.000000    0.000000     1.48500    1.000000    
      2 O     c    0.500000    0.500000    0.500000     0.18300    1.000000    
      3 Li    c    0.500000    0.500000    0.000000     1.00000    1.000000    
      4 Cl    s    0.000000    0.000000    0.000000    -2.48500    1.000000    
      5 O     s    0.500000    0.500000    0.500000    -2.18300    1.000000    
--------------------------------------------------------------------------------


  Constraints : 

--------------------------------------------------------------------------------
  Constraint no.      Unconstrained     Constrained    Coefficient    Offset
                         Variable         Variable
--------------------------------------------------------------------------------
           1              Strain 1        Strain 2       1.00000      0.0000
           2              Strain 1        Strain 3       1.00000      0.0000
--------------------------------------------------------------------------------


********************************************************************************
*  General input information                                                   *
********************************************************************************

  Species output for all configurations : 

--------------------------------------------------------------------------------
  Species    Type    Atomic    Atomic    Charge       Radii (Angs)     Library
                     Number     Mass       (e)     Cova   Ionic  VDW   Symbol
--------------------------------------------------------------------------------
    Li       Core        3       6.94   1.000000   0.680  0.000  1.800          
    O        Core        8      16.00   0.183000   0.730  0.000  1.360          
    O        Shell       8       0.00  -2.183000   0.730  0.000  1.360          
    Cl       Core       17      35.45   1.485000   0.990  0.000  1.650          
    Cl       Shell      17       0.00  -2.485000   0.990  0.000  1.650          
    Mg       Core       12      24.31   0.415000   1.100  0.000  0.000          
    Mg       Shell      12       0.00   1.585000   1.100  0.000  0.000          
    Ca       Core       20      40.08  -1.135000   0.990  0.000  0.000          
    Ca       Shell      20       0.00   3.135000   0.990  0.000  0.000          
    Sr       Core       38      87.62  -1.251000   1.120  0.000  0.000          
    Sr       Shell      38       0.00   3.251000   1.120  0.000  0.000          
    Ba       Core       56     137.33  -7.203000   1.340  0.000  0.000          
    Ba       Shell      56       0.00   9.203000   1.340  0.000  0.000          
--------------------------------------------------------------------------------


  Lattice summation method               =    Ewald          (3-D)
                                         =    Parry          (2-D)
                                         =    Saunders et al (1-D)
  Accuracy factor for lattice sums       =   12.000


  Analytic derivatives to be used

  Time limit = Infinity

  Maximum range for interatomic potentials =    100000.000000 Angstroms

  General interatomic potentials :

--------------------------------------------------------------------------------
Atom  Types   Potential      Parameter       Value         Units   Cutoffs(Ang)
  1     2                                                            Min /  Max 
--------------------------------------------------------------------------------
O    c O    s Spring (c-s)  Spring k 2       593.71600    eV*Ang^-2 0.000  0.800
                            Spring k 4       0.0000000    eV*Ang^-4 
--------------------------------------------------------------------------------
Cl   c Cl   s Spring (c-s)  Spring k 2       29.380000    eV*Ang^-2 0.000  0.800
                            Spring k 4       0.0000000    eV*Ang^-4 
--------------------------------------------------------------------------------
Mg   c Mg   s Spring (c-s)  Spring k 2       361.60000    eV*Ang^-2 0.000  0.800
                            Spring k 4       0.0000000    eV*Ang^-4 
--------------------------------------------------------------------------------
Ca   c Ca   s Spring (c-s)  Spring k 2       110.20000    eV*Ang^-2 0.000  0.800
                            Spring k 4       0.0000000    eV*Ang^-4 
--------------------------------------------------------------------------------
Sr   c Sr   s Spring (c-s)  Spring k 2       71.700000    eV*Ang^-2 0.000  0.800
                            Spring k 4       0.0000000    eV*Ang^-4 
--------------------------------------------------------------------------------
Ba   c Ba   s Spring (c-s)  Spring k 2       495.20000    eV*Ang^-2 0.000  0.800
                            Spring k 4       0.0000000    eV*Ang^-4 
--------------------------------------------------------------------------------
Li   c Li   c Buckingham    Buckingham A     360.53000    eV        0.000 12.000
                            Buckingham rho  0.16100000    Ang       
                            Buckingham C     0.0000000    eV*Ang^6  
--------------------------------------------------------------------------------
Li   c O    s Buckingham    Buckingham A     292.30000    eV        0.000 12.000
                            Buckingham rho  0.34700000    Ang       
                            Buckingham C     0.0000000    eV*Ang^6  
--------------------------------------------------------------------------------
Li   c Cl   s Buckingham    Buckingham A     421.04000    eV        0.000 12.000
                            Buckingham rho  0.33400000    Ang       
                            Buckingham C     0.0000000    eV*Ang^6  
--------------------------------------------------------------------------------
O    s O    s Buckingham    Buckingham A     22764.300    eV        0.000 12.000
                            Buckingham rho  0.14900000    Ang       
                            Buckingham C     13.190000    eV*Ang^6  
--------------------------------------------------------------------------------
O    s Cl   s Buckingham    Buckingham A     8286.9100    eV        0.000 12.000
                            Buckingham rho  0.25900000    Ang       
                            Buckingham C     62.200000    eV*Ang^6  
--------------------------------------------------------------------------------
Cl   s Cl   s Buckingham    Buckingham A     1227.2000    eV        0.000 12.000
                            Buckingham rho  0.32100000    Ang       
                            Buckingham C     14.530000    eV*Ang^6  
--------------------------------------------------------------------------------
O    s Mg   s Buckingham    Buckingham A     1428.5000    eV        0.000 12.000
                            Buckingham rho  0.29450000    Ang       
                            Buckingham C     0.0000000    eV*Ang^6  
--------------------------------------------------------------------------------
Mg   s Cl   s Buckingham    Buckingham A     4914.5400    eV        0.000 12.000
                            Buckingham rho  0.25700000    Ang       
                            Buckingham C     0.0000000    eV*Ang^6  
--------------------------------------------------------------------------------
O    s Ca   s Buckingham    Buckingham A     1090.4000    eV        0.000 12.000
                            Buckingham rho  0.34370000    Ang       
                            Buckingham C     0.0000000    eV*Ang^6  
--------------------------------------------------------------------------------
Cl   s Ca   s Buckingham    Buckingham A     2302.0000    eV        0.000 12.000
                            Buckingham rho  0.34020000    Ang       
                            Buckingham C     0.0000000    eV*Ang^6  
--------------------------------------------------------------------------------
O    s Sr   s Buckingham    Buckingham A     959.10000    eV        0.000 12.000
                            Buckingham rho  0.37210000    Ang       
                            Buckingham C     0.0000000    eV*Ang^6  
--------------------------------------------------------------------------------
Cl   s Sr   s Buckingham    Buckingham A     2191.0900    eV        0.000 12.000
                            Buckingham rho  0.34570000    Ang       
                            Buckingham C     0.0000000    eV*Ang^6  
--------------------------------------------------------------------------------
O    s Ba   s Buckingham    Buckingham A     905.70000    eV        0.000 12.000
                            Buckingham rho  0.39760000    Ang       
                            Buckingham C     0.0000000    eV*Ang^6  
--------------------------------------------------------------------------------
Cl   s Ba   s Buckingham    Buckingham A     2704.5500    eV        0.000 12.000
                            Buckingham rho  0.35280000    Ang       
                            Buckingham C     0.0000000    eV*Ang^6  
--------------------------------------------------------------------------------

********************************************************************************
*  Output for configuration   1                                                *
********************************************************************************


  Components of energy : 

--------------------------------------------------------------------------------
  Interatomic potentials     =           7.24802695 eV    
  Monopole - monopole (real) =         -11.53475722 eV    
  Monopole - monopole (recip)=         -33.94580548 eV    
  Monopole - monopole (total)=         -45.48056271 eV    
--------------------------------------------------------------------------------
  Total lattice energy       =         -38.23253575 eV    
--------------------------------------------------------------------------------
  Total lattice energy       =           -3688.8553 kJ/(mole unit cells)
--------------------------------------------------------------------------------


  Number of variables =        1

  Maximum number of calculations  =          1000
  Maximum Hessian update interval =            10
  Maximum step size               =   1.000000000
  Maximum parameter tolerance     =   0.000010000
  Maximum function  tolerance     =   0.000010000
  Maximum gradient  tolerance     =   0.001000000
  Maximum gradient  component     =   0.010000000

  Symmetry constrained optimisation

  Symmetry used for second derivatives

  Cell parameters to be optimised using strains

  Newton-Raphson optimiser to be used

  BFGS hessian update to be used

  Lower half triangular hessian to be used

  Start of bulk optimisation :

  Cycle:      0 Energy:       -38.232536  Gnorm:      0.000019  CPU:    0.009


  **** Optimisation achieved ****


  Final energy =     -38.23253575 eV
  Final Gnorm  =       0.00001878

  Components of energy : 

--------------------------------------------------------------------------------
  Interatomic potentials     =           7.24802695 eV    
  Monopole - monopole (real) =         -11.53475722 eV    
  Monopole - monopole (recip)=         -33.94580548 eV    
  Monopole - monopole (total)=         -45.48056271 eV    
--------------------------------------------------------------------------------
  Total lattice energy       =         -38.23253575 eV    
--------------------------------------------------------------------------------
  Total lattice energy       =           -3688.8553 kJ/(mole unit cells)
--------------------------------------------------------------------------------

  Final asymmetric unit coordinates :

--------------------------------------------------------------------------------
   No.  Atomic        x           y           z         Radius
        Label       (Frac)      (Frac)      (Frac)       (Angs) 
--------------------------------------------------------------------------------
     1  Cl    c     0.000000    0.000000    0.000000    0.000000
     2  O     c     0.500000    0.500000    0.500000    0.000000
     3  Li    c     0.500000    0.500000    0.000000    0.000000
     4  Cl    s     0.000000    0.000000    0.000000    0.000000
     5  O     s     0.500000    0.500000    0.500000    0.000000
--------------------------------------------------------------------------------

  Final Cartesian lattice vectors (Angstroms) :

        3.918873    0.000000    0.000000
        0.000000    3.918873    0.000000
        0.000000    0.000000    3.918873


  Final cell parameters and derivatives :

--------------------------------------------------------------------------------
       a            3.918873 Angstrom     dE/de1(xx)    -0.000019 eV/strain
       b            3.918873 Angstrom     dE/de2(yy)     0.000000 eV/strain
       c            3.918873 Angstrom     dE/de3(zz)     0.000000 eV/strain
       alpha       90.000000 Degrees      dE/de4(yz)     0.000000 eV/strain
       beta        90.000000 Degrees      dE/de5(xz)     0.000000 eV/strain
       gamma       90.000000 Degrees      dE/de6(xy)     0.000000 eV/strain
--------------------------------------------------------------------------------

  Primitive cell volume =            60.184349 Angs**3

  Density of cell =      1.994024 g/cm**3

  Non-primitive cell volume =            60.184349 Angs**3


  Final internal derivatives :

--------------------------------------------------------------------------------
   No.  Atomic          a             b             c           Radius
        Label          (eV)          (eV)          (eV)        (eV/Angs)
--------------------------------------------------------------------------------
      1 Cl    c       0.000000      0.000000      0.000000      0.000000
      2 O     c       0.000000      0.000000      0.000000      0.000000
      3 Li    c       0.000000      0.000000      0.000000      0.000000
      4 Cl    s       0.000000      0.000000      0.000000      0.000000
      5 O     s       0.000000      0.000000      0.000000      0.000000
--------------------------------------------------------------------------------
  Maximum abs         0.000000      0.000000      0.000000      0.000000
--------------------------------------------------------------------------------

  Comparison of initial and final structures : 

--------------------------------------------------------------------------------
  Parameter   Initial value   Final value   Difference    Units      Percent
--------------------------------------------------------------------------------
    Volume        60.184349     60.184349     0.000000    Angs**3      0.00
    a              3.918873      3.918873     0.000000    Angstroms    0.00
    b              3.918873      3.918873     0.000000    Angstroms    0.00
    c              3.918873      3.918873     0.000000    Angstroms    0.00
    alpha         90.000000     90.000000     0.000000    Degrees      0.00
    beta          90.000000     90.000000     0.000000    Degrees      0.00
    gamma         90.000000     90.000000     0.000000    Degrees      0.00
      1 x          0.000000      0.000000     0.000000    Fractional   0.00
      1 y          0.000000      0.000000     0.000000    Fractional   0.00
      1 z          0.000000      0.000000     0.000000    Fractional   0.00
      2 x          0.500000      0.500000     0.000000    Fractional   0.00
      2 y          0.500000      0.500000     0.000000    Fractional   0.00
      2 z          0.500000      0.500000     0.000000    Fractional   0.00
      3 x          0.500000      0.500000     0.000000    Fractional   0.00
      3 y          0.500000      0.500000     0.000000    Fractional   0.00
      3 z          0.000000      0.000000     0.000000    Fractional   0.00
      4 x          0.000000      0.000000     0.000000    Fractional   0.00
      4 y          0.000000      0.000000     0.000000    Fractional   0.00
      4 z          0.000000      0.000000     0.000000    Fractional   0.00
      5 x          0.500000      0.500000     0.000000    Fractional   0.00
      5 y          0.500000      0.500000     0.000000    Fractional   0.00
      5 z          0.500000      0.500000     0.000000    Fractional   0.00
--------------------------------------------------------------------------------


  Born effective charge tensors : 

-------------------------------------------------------------------------------
  Atom             x           y             z
-------------------------------------------------------------------------------
    1 Cl    x      -0.9481      0.0000      0.0000
            y       0.0000     -0.9481      0.0000
            z       0.0000      0.0000     -0.9481
-------------------------------------------------------------------------------
    2 O     x      -2.4696     -0.0000     -0.0000
            y      -0.0000     -2.4696     -0.0000
            z      -0.0000     -0.0000     -2.4696
-------------------------------------------------------------------------------
    3 Li    x       1.3129     -0.0000     -0.0000
            y      -0.0000      1.3129      0.0000
            z      -0.0000     -0.0000      0.7918
-------------------------------------------------------------------------------




  Elastic Constant Matrix: (Units=GPa)

-------------------------------------------------------------------------------
  Indices      1         2         3         4         5         6    
-------------------------------------------------------------------------------
       1     94.4615   45.0779   45.0779    0.0000   -0.0000    0.0000
       2     45.0779   94.4615   45.0779   -0.0000    0.0000   -0.0000
       3     45.0779   45.0779   94.4615   -0.0000   -0.0000   -0.0000
       4      0.0000   -0.0000   -0.0000   45.0779   -0.0000   -0.0000
       5     -0.0000    0.0000   -0.0000   -0.0000   45.0779   -0.0000
       6      0.0000   -0.0000   -0.0000   -0.0000   -0.0000   45.0779
-------------------------------------------------------------------------------


  Elastic Compliance Matrix: (Units=1/GPa)

-------------------------------------------------------------------------------
  Indices      1         2         3         4         5         6    
-------------------------------------------------------------------------------
       1    0.015305 -0.004944 -0.004944 -0.000000  0.000000 -0.000000
       2   -0.004944  0.015305 -0.004944  0.000000 -0.000000  0.000000
       3   -0.004944 -0.004944  0.015305  0.000000  0.000000  0.000000
       4   -0.000000  0.000000  0.000000  0.022184  0.000000  0.000000
       5    0.000000 -0.000000  0.000000  0.000000  0.022184  0.000000
       6   -0.000000  0.000000  0.000000  0.000000  0.000000  0.022184
-------------------------------------------------------------------------------

  Mechanical properties :

-------------------------------------------------------------------------------
  Convention :                    Reuss         Voigt         Hill
-------------------------------------------------------------------------------
  Bulk  Modulus (GPa)     =      61.53912      61.53912      61.53912
  Shear Modulus (GPa)     =      33.88682      36.92346      35.40514
-------------------------------------------------------------------------------
  Velocity S-wave (km/s)  =       4.12240       4.30314       4.21374
  Velocity P-wave (km/s)  =       7.31578       7.45327       7.38484
-------------------------------------------------------------------------------
  Compressibility (1/GPa) =    0.01624983
-------------------------------------------------------------------------------
  Stress axis :                     x             y             z
-------------------------------------------------------------------------------
  Youngs Moduli (GPa)     =      65.33688      65.33688      65.33688
-------------------------------------------------------------------------------
  Poissons Ratio (x)      =                     0.32305       0.32305
  Poissons Ratio (y)      =       0.32305                     0.32305
  Poissons Ratio (z)      =       0.32305       0.32305
-------------------------------------------------------------------------------


  Piezoelectric Strain Matrix: (Units=C/m**2)

-------------------------------------------------------------------------------
  Indices      1         2         3         4         5         6    
-------------------------------------------------------------------------------
       x    -0.00000   0.00000   0.00000   0.00000   0.00000   0.00000
       y    -0.00000  -0.00000  -0.00000   0.00000   0.00000  -0.00000
       z    -0.00000  -0.00000   0.00000   0.00000  -0.00000   0.00000
-------------------------------------------------------------------------------


  Piezoelectric Stress Matrix: (Units=10**-11 C/N)

-------------------------------------------------------------------------------
  Indices      1         2         3         4         5         6    
-------------------------------------------------------------------------------
       x    -0.00000   0.00000   0.00000   0.00000   0.00000   0.00000
       y     0.00000   0.00000  -0.00000   0.00000   0.00000  -0.00000
       z    -0.00000  -0.00000   0.00000   0.00000  -0.00000   0.00000
-------------------------------------------------------------------------------


  Static dielectric constant tensor : 

-------------------------------------------------------------------------------
              x         y         z
-------------------------------------------------------------------------------
       x    12.07041   0.00000   0.00000
       y     0.00000  12.07041   0.00000
       z     0.00000   0.00000  12.07041
--------------------------------------------------------------------------------

  High frequency dielectric constant tensor : 

-------------------------------------------------------------------------------
              x         y         z
-------------------------------------------------------------------------------
       x     1.74197  -0.00000  -0.00000
       y    -0.00000   1.74197  -0.00000
       z    -0.00000  -0.00000   1.74197
-------------------------------------------------------------------------------

  Static refractive indices : 

-------------------------------------------------------------------------------
    1 =    3.47425      2 =    3.47425      3 =    3.47425
-------------------------------------------------------------------------------

  High frequency refractive indices : 

-------------------------------------------------------------------------------
    1 =    1.31984      2 =    1.31984      3 =    1.31984
-------------------------------------------------------------------------------


  Time to end of optimisation =       0.0125 seconds

********************************************************************************
*  Defect calculation for configuration   1 :                                  *
********************************************************************************

  Total number of defects =      2

  Total charge on defect  =  -0.00

  Defect centre is at   0.5000   0.2500   0.2500  Frac

  Region 1 radius =  16.0000      Number of ions =   2014

  Number of symmetry inequivalent region 1 ions  =   1111

  Region 2 radius =  20.0000      Number of ions =   1886

  Number of symmetry inequivalent region 2a ions =   1005

  Region 2a mode = 4 : screened electrostatics due to region 1 
                       neglect correction to region 1 forces from 2a
                       region 2a displacements based on defects only

  Region 2a ions will only interact with defects in region 1

  Vacancies:

--------------------------------------------------------------------------------
    Specification type     Symbol/Number         x          y          z
--------------------------------------------------------------------------------
    Fractional                               0.500000   0.000000   0.500000
--------------------------------------------------------------------------------

  Impurities:

--------------------------------------------------------------------------------
    Specification type     Symbol/Number         x          y          z
--------------------------------------------------------------------------------
    Frac/Symbol             Ba               0.500000   0.500000   0.000000
--------------------------------------------------------------------------------


  Symmetry reduced region 1 (Relative to defect centre) :

--------------------------------------------------------------------------------
   No.   Atomic       x            y             z       Radius  Multiplicity   
         Label      (Angs)       (Angs)        (Angs)    (Angs)     
--------------------------------------------------------------------------------
     1  Ba    c      0.0000       0.9797      -0.9797    0.0000     1    Defect
     2  O     c      0.0000       0.9797 *     0.9797 *  0.0000     1          
     3  Cl    c      1.9594 *    -0.9797 *    -0.9797 *  0.0000     2          
     4  Li    c      1.9594 *     0.9797 *     0.9797 *  0.0000     2          
     5  O     c      0.0000       0.9797 *    -2.9392 *  0.0000     1          
     6  O     c      0.0000      -2.9392 *     0.9797 *  0.0000     1          
     7  Li    c      0.0000       0.9797 *     2.9392 *  0.0000     1          
     8  Li    c      0.0000      -2.9392 *    -0.9797 *  0.0000     1          
     9  Li    c      0.0000      -0.9797 *    -2.9392 *  0.0000     1          
    10  Li    c      0.0000       2.9392 *     0.9797 *  0.0000     1          
    11  Cl    c      1.9594 *    -0.9797 *     2.9392 *  0.0000     2          
    12  Cl    c      1.9594 *     2.9392 *    -0.9797 *  0.0000     2          
    13  Li    c      1.9594 *     0.9797 *    -2.9392 *  0.0000     2          
    14  Li    c      1.9594 *    -2.9392 *     0.9797 *  0.0000     2          
    15  O     c      0.0000      -2.9392 *    -2.9392 *  0.0000     1          
    16  O     c      3.9189 *     0.9797 *     0.9797 *  0.0000     2          
    17  Li    c      0.0000      -2.9392 *     2.9392 *  0.0000     1          
    18  Li    c      3.9189 *     0.9797 *    -0.9797 *  0.0000     2          
    19  Li    c      0.0000       2.9392 *    -2.9392 *  0.0000     1          
    20  Li    c      3.9189 *    -0.9797 *     0.9797 *  0.0000     2          
    21  Cl    c      1.9594 *     2.9392 *     2.9392 *  0.0000     2          
    22  Li    c      1.9594 *    -2.9392 *    -2.9392 *  0.0000     2          
    23  O     c      0.0000       0.9797 *     4.8986 *  0.0000     1          
    24  O     c      0.0000       4.8986 *     0.9797 *  0.0000     1          
    25  O     c      3.9189 *     0.9797 *    -2.9392 *  0.0000     2          
    26  Li    c      0.0000       0.9797 *    -4.8986 *  0.0000     1          
    27  Li    c      0.0000       4.8986 *    -0.9797 *  0.0000     1          
    28  Li    c      3.9189 *     0.9797 *     2.9392 *  0.0000     2          
    29  Li    c      0.0000      -0.9797 *     4.8986 *  0.0000     1          
    30  Li    c      0.0000      -4.8986 *     0.9797 *  0.0000     1          
    31  Li    c      3.9189 *    -0.9797 *    -2.9392 *  0.0000     2          
    32  O     c      3.9189 *    -2.9392 *     0.9797 *  0.0000     2          
    33  Li    c      3.9189 *    -2.9392 *    -0.9797 *  0.0000     2          
    34  Li    c      3.9189 *     2.9392 *     0.9797 *  0.0000     2          
    35  Cl    c      1.9594 *    -0.9797 *    -4.8986 *  0.0000     2          
    36  Li    c      1.9594 *     0.9797 *     4.8986 *  0.0000     2          
    37  Cl    c      1.9594 *    -4.8986 *    -0.9797 *  0.0000     2          
    38  Li    c      1.9594 *     4.8986 *     0.9797 *  0.0000     2          
    39  O     c      0.0000       4.8986 *    -2.9392 *  0.0000     1          
    40  O     c      0.0000      -2.9392 *     4.8986 *  0.0000     1          
    41  O     c      3.9189 *    -2.9392 *    -2.9392 *  0.0000     2          
    42  Li    c      0.0000       4.8986 *     2.9392 *  0.0000     1          
    43  Li    c      0.0000      -2.9392 *    -4.8986 *  0.0000     1          
    44  Li    c      3.9189 *    -2.9392 *     2.9392 *  0.0000     2          
    45  Li    c      0.0000       2.9392 *     4.8986 *  0.0000     1          
    46  Li    c      0.0000      -4.8986 *    -2.9392 *  0.0000     1          
    47  Li    c      3.9189 *     2.9392 *    -2.9392 *  0.0000     2          
    48  Cl    c      1.9594 *     2.9392 *    -4.8986 *  0.0000     2          
    49  Cl    c      1.9594 *    -4.8986 *     2.9392 *  0.0000     2          
    50  Cl    c      5.8783 *    -0.9797 *    -0.9797 *  0.0000     2          
    51  Li    c      1.9594 *     4.8986 *    -2.9392 *  0.0000     2          
    52  Li    c      1.9594 *    -2.9392 *     4.8986 *  0.0000     2          
    53  Li    c      5.8783 *     0.9797 *     0.9797 *  0.0000     2          
    54  O     c      3.9189 *     0.9797 *     4.8986 *  0.0000     2          
    55  O     c      3.9189 *     4.8986 *     0.9797 *  0.0000     2          
    56  Li    c      3.9189 *     0.9797 *    -4.8986 *  0.0000     2          
    57  Li    c      3.9189 *     4.8986 *    -0.9797 *  0.0000     2          
    58  Li    c      3.9189 *    -0.9797 *     4.8986 *  0.0000     2          
    59  Li    c      3.9189 *    -4.8986 *     0.9797 *  0.0000     2          
    60  Cl    c      5.8783 *    -0.9797 *     2.9392 *  0.0000     2          
    61  Cl    c      5.8783 *     2.9392 *    -0.9797 *  0.0000     2          
    62  Li    c      5.8783 *     0.9797 *    -2.9392 *  0.0000     2          
    63  Li    c      5.8783 *    -2.9392 *     0.9797 *  0.0000     2          
    64  O     c      0.0000       4.8986 *     4.8986 *  0.0000     1          
    65  O     c      3.9189 *     4.8986 *    -2.9392 *  0.0000     2          
    66  Li    c      0.0000       4.8986 *    -4.8986 *  0.0000     1          
    67  Li    c      3.9189 *     4.8986 *     2.9392 *  0.0000     2          
    68  Li    c      0.0000      -4.8986 *     4.8986 *  0.0000     1          
    69  Li    c      3.9189 *    -4.8986 *    -2.9392 *  0.0000     2          
    70  O     c      0.0000       0.9797 *    -6.8580 *  0.0000     1          
    71  O     c      0.0000      -6.8580 *     0.9797 *  0.0000     1          
    72  O     c      3.9189 *    -2.9392 *     4.8986 *  0.0000     2          
    73  Li    c      0.0000       0.9797 *     6.8580 *  0.0000     1          
    74  Li    c      0.0000      -6.8580 *    -0.9797 *  0.0000     1          
    75  Li    c      3.9189 *    -2.9392 *    -4.8986 *  0.0000     2          
    76  Li    c      0.0000      -0.9797 *    -6.8580 *  0.0000     1          
    77  Li    c      0.0000       6.8580 *     0.9797 *  0.0000     1          
    78  Li    c      3.9189 *     2.9392 *     4.8986 *  0.0000     2          
    79  Cl    c      1.9594 *    -4.8986 *    -4.8986 *  0.0000     2          
    80  Li    c      1.9594 *     4.8986 *     4.8986 *  0.0000     2          
    81  Cl    c      1.9594 *     6.8580 *    -0.9797 *  0.0000     2          
    82  Cl    c      5.8783 *     2.9392 *     2.9392 *  0.0000     2          
    83  Li    c      1.9594 *    -6.8580 *     0.9797 *  0.0000     2          
    84  Li    c      5.8783 *    -2.9392 *    -2.9392 *  0.0000     2          
    85  Cl    c      1.9594 *    -0.9797 *     6.8580 *  0.0000     2          
    86  Li    c      1.9594 *     0.9797 *    -6.8580 *  0.0000     2          
    87  O     c      0.0000      -2.9392 *    -6.8580 *  0.0000     1          
    88  O     c      0.0000      -6.8580 *    -2.9392 *  0.0000     1          
    89  Li    c      0.0000      -2.9392 *     6.8580 *  0.0000     1          
    90  Li    c      0.0000      -6.8580 *     2.9392 *  0.0000     1          
    91  Li    c      0.0000       2.9392 *    -6.8580 *  0.0000     1          
    92  Li    c      0.0000       6.8580 *    -2.9392 *  0.0000     1          
    93  Cl    c      5.8783 *    -4.8986 *    -0.9797 *  0.0000     2          
    94  Li    c      5.8783 *     4.8986 *     0.9797 *  0.0000     2          
    95  Cl    c      1.9594 *     6.8580 *     2.9392 *  0.0000     2          
    96  Cl    c      5.8783 *    -0.9797 *    -4.8986 *  0.0000     2          
    97  Li    c      1.9594 *    -6.8580 *    -2.9392 *  0.0000     2          
    98  Li    c      5.8783 *     0.9797 *     4.8986 *  0.0000     2          
    99  Cl    c      1.9594 *     2.9392 *     6.8580 *  0.0000     2          
   100  Li    c      1.9594 *    -2.9392 *    -6.8580 *  0.0000     2          
   101  O     c      7.8377 *     0.9797 *     0.9797 *  0.0000     2          
   102  Li    c      7.8377 *     0.9797 *    -0.9797 *  0.0000     2          
   103  Li    c      7.8377 *    -0.9797 *     0.9797 *  0.0000     2          
   104  O     c      3.9189 *     4.8986 *     4.8986 *  0.0000     2          
   105  Li    c      3.9189 *     4.8986 *    -4.8986 *  0.0000     2          
   106  Li    c      3.9189 *    -4.8986 *     4.8986 *  0.0000     2          
   107  O     c      3.9189 *     0.9797 *    -6.8580 *  0.0000     2          
   108  O     c      3.9189 *    -6.8580 *     0.9797 *  0.0000     2          
   109  Li    c      3.9189 *     0.9797 *     6.8580 *  0.0000     2          
   110  Li    c      3.9189 *    -6.8580 *    -0.9797 *  0.0000     2          
   111  Li    c      3.9189 *    -0.9797 *    -6.8580 *  0.0000     2          
   112  Li    c      3.9189 *     6.8580 *     0.9797 *  0.0000     2          
   113  Cl    c      5.8783 *     2.9392 *    -4.8986 *  0.0000     2          
   114  Cl    c      5.8783 *    -4.8986 *     2.9392 *  0.0000     2          
   115  Li    c      5.8783 *     4.8986 *    -2.9392 *  0.0000     2          
   116  Li    c      5.8783 *    -2.9392 *     4.8986 *  0.0000     2          
   117  O     c      7.8377 *     0.9797 *    -2.9392 *  0.0000     2          
   118  Li    c      7.8377 *     0.9797 *     2.9392 *  0.0000     2          
   119  Li    c      7.8377 *    -0.9797 *    -2.9392 *  0.0000     2          
   120  O     c      0.0000       4.8986 *    -6.8580 *  0.0000     1          
   121  O     c      0.0000      -6.8580 *     4.8986 *  0.0000     1          
   122  O     c      3.9189 *    -2.9392 *    -6.8580 *  0.0000     2          
   123  O     c      7.8377 *    -2.9392 *     0.9797 *  0.0000     2          
   124  Li    c      0.0000       4.8986 *     6.8580 *  0.0000     1          
   125  Li    c      0.0000      -6.8580 *    -4.8986 *  0.0000     1          
   126  Li    c      3.9189 *    -2.9392 *     6.8580 *  0.0000     2          
   127  Li    c      7.8377 *    -2.9392 *    -0.9797 *  0.0000     2          
   128  Li    c      0.0000       6.8580 *     4.8986 *  0.0000     1          
   129  Li    c      0.0000      -4.8986 *    -6.8580 *  0.0000     1          
   130  Li    c      3.9189 *     2.9392 *    -6.8580 *  0.0000     2          
   131  Li    c      7.8377 *     2.9392 *     0.9797 *  0.0000     2          
   132  O     c      3.9189 *    -6.8580 *    -2.9392 *  0.0000     2          
   133  Li    c      3.9189 *    -6.8580 *     2.9392 *  0.0000     2          
   134  Li    c      3.9189 *     6.8580 *    -2.9392 *  0.0000     2          
   135  Cl    c      1.9594 *     6.8580 *    -4.8986 *  0.0000     2          
   136  Cl    c      1.9594 *    -4.8986 *     6.8580 *  0.0000     2          
   137  Li    c      1.9594 *     4.8986 *    -6.8580 *  0.0000     2          
   138  Li    c      1.9594 *    -6.8580 *     4.8986 *  0.0000     2          
   139  O     c      0.0000       0.9797 *     8.8175 *  0.0000     1          
   140  O     c      0.0000       8.8175 *     0.9797 *  0.0000     1          
   141  O     c      7.8377 *    -2.9392 *    -2.9392 *  0.0000     2          
   142  Li    c      0.0000       0.9797 *    -8.8175 *  0.0000     1          
   143  Li    c      0.0000       8.8175 *    -0.9797 *  0.0000     1          
   144  Li    c      7.8377 *    -2.9392 *     2.9392 *  0.0000     2          
   145  Li    c      0.0000      -0.9797 *     8.8175 *  0.0000     1          
   146  Li    c      0.0000      -8.8175 *     0.9797 *  0.0000     1          
   147  Li    c      7.8377 *     2.9392 *    -2.9392 *  0.0000     2          
   148  Cl    c      1.9594 *    -0.9797 *    -8.8175 *  0.0000     2          
   149  Li    c      1.9594 *     0.9797 *     8.8175 *  0.0000     2          
   150  Cl    c      1.9594 *    -8.8175 *    -0.9797 *  0.0000     2          
   151  Cl    c      5.8783 *    -0.9797 *     6.8580 *  0.0000     2          
   152  Cl    c      5.8783 *    -4.8986 *    -4.8986 *  0.0000     2          
   153  Li    c      1.9594 *     8.8175 *     0.9797 *  0.0000     2          
   154  Li    c      5.8783 *     0.9797 *    -6.8580 *  0.0000     2          
   155  Li    c      5.8783 *     4.8986 *     4.8986 *  0.0000     2          
   156  Cl    c      5.8783 *     6.8580 *    -0.9797 *  0.0000     2          
   157  Li    c      5.8783 *    -6.8580 *     0.9797 *  0.0000     2          
   158  O     c      0.0000       8.8175 *    -2.9392 *  0.0000     1          
   159  O     c      0.0000      -2.9392 *     8.8175 *  0.0000     1          
   160  O     c      7.8377 *     0.9797 *     4.8986 *  0.0000     2          
   161  O     c      7.8377 *     4.8986 *     0.9797 *  0.0000     2          
   162  Li    c      0.0000       8.8175 *     2.9392 *  0.0000     1          
   163  Li    c      0.0000      -2.9392 *    -8.8175 *  0.0000     1          
   164  Li    c      7.8377 *     0.9797 *    -4.8986 *  0.0000     2          
   165  Li    c      7.8377 *     4.8986 *    -0.9797 *  0.0000     2          
   166  Li    c      0.0000       2.9392 *     8.8175 *  0.0000     1          
   167  Li    c      0.0000      -8.8175 *    -2.9392 *  0.0000     1          
   168  Li    c      7.8377 *    -0.9797 *     4.8986 *  0.0000     2          
   169  Li    c      7.8377 *    -4.8986 *     0.9797 *  0.0000     2          
   170  O     c      3.9189 *     4.8986 *    -6.8580 *  0.0000     2          
   171  O     c      3.9189 *    -6.8580 *     4.8986 *  0.0000     2          
   172  Li    c      3.9189 *     4.8986 *     6.8580 *  0.0000     2          
   173  Li    c      3.9189 *    -6.8580 *    -4.8986 *  0.0000     2          
   174  Li    c      3.9189 *     6.8580 *     4.8986 *  0.0000     2          
   175  Li    c      3.9189 *    -4.8986 *    -6.8580 *  0.0000     2          
   176  Cl    c      1.9594 *     2.9392 *    -8.8175 *  0.0000     2          
   177  Cl    c      1.9594 *    -8.8175 *     2.9392 *  0.0000     2          
   178  Li    c      1.9594 *     8.8175 *    -2.9392 *  0.0000     2          
   179  Li    c      1.9594 *    -2.9392 *     8.8175 *  0.0000     2          
   180  Cl    c      5.8783 *     2.9392 *     6.8580 *  0.0000     2          
   181  Cl    c      5.8783 *     6.8580 *     2.9392 *  0.0000     2          
   182  Li    c      5.8783 *    -2.9392 *    -6.8580 *  0.0000     2          
   183  Li    c      5.8783 *    -6.8580 *    -2.9392 *  0.0000     2          
   184  O     c      7.8377 *     4.8986 *    -2.9392 *  0.0000     2          
   185  Li    c      7.8377 *     4.8986 *     2.9392 *  0.0000     2          
   186  Li    c      7.8377 *    -4.8986 *    -2.9392 *  0.0000     2          
   187  O     c      3.9189 *     0.9797 *     8.8175 *  0.0000     2          
   188  O     c      3.9189 *     8.8175 *     0.9797 *  0.0000     2          
   189  O     c      7.8377 *    -2.9392 *     4.8986 *  0.0000     2          
   190  Li    c      3.9189 *     0.9797 *    -8.8175 *  0.0000     2          
   191  Li    c      3.9189 *     8.8175 *    -0.9797 *  0.0000     2          
   192  Li    c      7.8377 *    -2.9392 *    -4.8986 *  0.0000     2          
   193  Li    c      3.9189 *    -0.9797 *     8.8175 *  0.0000     2          
   194  Li    c      3.9189 *    -8.8175 *     0.9797 *  0.0000     2          
   195  Li    c      7.8377 *     2.9392 *     4.8986 *  0.0000     2          
   196  O     c      0.0000      -6.8580 *    -6.8580 *  0.0000     1          
   197  Li    c      0.0000      -6.8580 *     6.8580 *  0.0000     1          
   198  Li    c      0.0000       6.8580 *    -6.8580 *  0.0000     1          
   199  Cl    c      9.7972 *    -0.9797 *    -0.9797 *  0.0000     2          
   200  Li    c      9.7972 *     0.9797 *     0.9797 *  0.0000     2          
   201  Cl    c      1.9594 *     6.8580 *     6.8580 *  0.0000     2          
   202  Li    c      1.9594 *    -6.8580 *    -6.8580 *  0.0000     2          
   203  O     c      0.0000       4.8986 *     8.8175 *  0.0000     1          
   204  O     c      0.0000       8.8175 *     4.8986 *  0.0000     1          
   205  O     c      3.9189 *     8.8175 *    -2.9392 *  0.0000     2          
   206  O     c      3.9189 *    -2.9392 *     8.8175 *  0.0000     2          
   207  Li    c      0.0000       4.8986 *    -8.8175 *  0.0000     1          
   208  Li    c      0.0000       8.8175 *    -4.8986 *  0.0000     1          
   209  Li    c      3.9189 *     8.8175 *     2.9392 *  0.0000     2          
   210  Li    c      3.9189 *    -2.9392 *    -8.8175 *  0.0000     2          
   211  Li    c      0.0000      -4.8986 *     8.8175 *  0.0000     1          
   212  Li    c      0.0000      -8.8175 *     4.8986 *  0.0000     1          
   213  Li    c      3.9189 *     2.9392 *     8.8175 *  0.0000     2          
   214  Li    c      3.9189 *    -8.8175 *    -2.9392 *  0.0000     2          
   215  Cl    c      1.9594 *    -4.8986 *    -8.8175 *  0.0000     2          
   216  Cl    c      1.9594 *    -8.8175 *    -4.8986 *  0.0000     2          
   217  Cl    c      5.8783 *    -4.8986 *     6.8580 *  0.0000     2          
   218  Cl    c      9.7972 *    -0.9797 *     2.9392 *  0.0000     2          
   219  Cl    c      9.7972 *     2.9392 *    -0.9797 *  0.0000     2          
   220  Li    c      1.9594 *     4.8986 *     8.8175 *  0.0000     2          
   221  Li    c      1.9594 *     8.8175 *     4.8986 *  0.0000     2          
   222  Li    c      5.8783 *     4.8986 *    -6.8580 *  0.0000     2          
   223  Li    c      9.7972 *     0.9797 *    -2.9392 *  0.0000     2          
   224  Li    c      9.7972 *    -2.9392 *     0.9797 *  0.0000     2          
   225  Cl    c      5.8783 *     6.8580 *    -4.8986 *  0.0000     2          
   226  Li    c      5.8783 *    -6.8580 *     4.8986 *  0.0000     2          
   227  O     c      7.8377 *     0.9797 *    -6.8580 *  0.0000     2          
   228  O     c      7.8377 *     4.8986 *     4.8986 *  0.0000     2          
   229  Li    c      7.8377 *     0.9797 *     6.8580 *  0.0000     2          
   230  Li    c      7.8377 *     4.8986 *    -4.8986 *  0.0000     2          
   231  Li    c      7.8377 *    -0.9797 *    -6.8580 *  0.0000     2          
   232  Li    c      7.8377 *    -4.8986 *     4.8986 *  0.0000     2          
   233  O     c      7.8377 *    -6.8580 *     0.9797 *  0.0000     2          
   234  Li    c      7.8377 *    -6.8580 *    -0.9797 *  0.0000     2          
   235  Li    c      7.8377 *     6.8580 *     0.9797 *  0.0000     2          
   236  O     c      3.9189 *    -6.8580 *    -6.8580 *  0.0000     2          
   237  Li    c      3.9189 *    -6.8580 *     6.8580 *  0.0000     2          
   238  Li    c      3.9189 *     6.8580 *    -6.8580 *  0.0000     2          
   239  Cl    c      5.8783 *    -0.9797 *    -8.8175 *  0.0000     2          
   240  Cl    c      9.7972 *     2.9392 *     2.9392 *  0.0000     2          
   241  Li    c      5.8783 *     0.9797 *     8.8175 *  0.0000     2          
   242  Li    c      9.7972 *    -2.9392 *    -2.9392 *  0.0000     2          
   243  Cl    c      5.8783 *    -8.8175 *    -0.9797 *  0.0000     2          
   244  Li    c      5.8783 *     8.8175 *     0.9797 *  0.0000     2          
   245  O     c      3.9189 *     4.8986 *     8.8175 *  0.0000     2          
   246  O     c      3.9189 *     8.8175 *     4.8986 *  0.0000     2          
   247  O     c      7.8377 *    -2.9392 *    -6.8580 *  0.0000     2          
   248  O     c      7.8377 *    -6.8580 *    -2.9392 *  0.0000     2          
   249  Li    c      3.9189 *     4.8986 *    -8.8175 *  0.0000     2          
   250  Li    c      3.9189 *     8.8175 *    -4.8986 *  0.0000     2          
   251  Li    c      7.8377 *    -2.9392 *     6.8580 *  0.0000     2          
   252  Li    c      7.8377 *    -6.8580 *     2.9392 *  0.0000     2          
   253  Li    c      3.9189 *    -4.8986 *     8.8175 *  0.0000     2          
   254  Li    c      3.9189 *    -8.8175 *     4.8986 *  0.0000     2          
   255  Li    c      7.8377 *     2.9392 *    -6.8580 *  0.0000     2          
   256  Li    c      7.8377 *     6.8580 *    -2.9392 *  0.0000     2          
   257  O     c      0.0000       0.9797 *   -10.7769 *  0.0000     1          
   258  O     c      0.0000     -10.7769 *     0.9797 *  0.0000     1          
   259  Li    c      0.0000       0.9797 *    10.7769 *  0.0000     1          
   260  Li    c      0.0000     -10.7769 *    -0.9797 *  0.0000     1          
   261  Li    c      0.0000      -0.9797 *   -10.7769 *  0.0000     1          
   262  Li    c      0.0000      10.7769 *     0.9797 *  0.0000     1          
   263  Cl    c      5.8783 *     2.9392 *    -8.8175 *  0.0000     2          
   264  Li    c      5.8783 *    -2.9392 *     8.8175 *  0.0000     2          
   265  Cl    c      5.8783 *    -8.8175 *     2.9392 *  0.0000     2          
   266  Cl    c      9.7972 *    -0.9797 *    -4.8986 *  0.0000     2          
   267  Cl    c      9.7972 *    -4.8986 *    -0.9797 *  0.0000     2          
   268  Li    c      5.8783 *     8.8175 *    -2.9392 *  0.0000     2          
   269  Li    c      9.7972 *     0.9797 *     4.8986 *  0.0000     2          
   270  Li    c      9.7972 *     4.8986 *     0.9797 *  0.0000     2          
   271  Cl    c      1.9594 *    -0.9797 *    10.7769 *  0.0000     2          
   272  Li    c      1.9594 *     0.9797 *   -10.7769 *  0.0000     2          
   273  Cl    c      1.9594 *    10.7769 *    -0.9797 *  0.0000     2          
   274  Li    c      1.9594 *   -10.7769 *     0.9797 *  0.0000     2          
   275  O     c      0.0000       8.8175 *    -6.8580 *  0.0000     1          
   276  O     c      0.0000      -6.8580 *     8.8175 *  0.0000     1          
   277  Li    c      0.0000       8.8175 *     6.8580 *  0.0000     1          
   278  Li    c      0.0000      -6.8580 *    -8.8175 *  0.0000     1          
   279  Li    c      0.0000       6.8580 *     8.8175 *  0.0000     1          
   280  Li    c      0.0000      -8.8175 *    -6.8580 *  0.0000     1          
   281  O     c      0.0000      -2.9392 *   -10.7769 *  0.0000     1          
   282  O     c      0.0000     -10.7769 *    -2.9392 *  0.0000     1          
   283  Li    c      0.0000      -2.9392 *    10.7769 *  0.0000     1          
   284  Li    c      0.0000     -10.7769 *     2.9392 *  0.0000     1          
   285  Li    c      0.0000       2.9392 *   -10.7769 *  0.0000     1          
   286  Li    c      0.0000      10.7769 *    -2.9392 *  0.0000     1          
   287  Cl    c      1.9594 *     6.8580 *    -8.8175 *  0.0000     2          
   288  Cl    c      1.9594 *    -8.8175 *     6.8580 *  0.0000     2          
   289  Cl    c      9.7972 *     2.9392 *    -4.8986 *  0.0000     2          
   290  Cl    c      9.7972 *    -4.8986 *     2.9392 *  0.0000     2          
   291  Li    c      1.9594 *     8.8175 *    -6.8580 *  0.0000     2          
   292  Li    c      1.9594 *    -6.8580 *     8.8175 *  0.0000     2          
   293  Li    c      9.7972 *     4.8986 *    -2.9392 *  0.0000     2          
   294  Li    c      9.7972 *    -2.9392 *     4.8986 *  0.0000     2          
   295  Cl    c      1.9594 *     2.9392 *    10.7769 *  0.0000     2          
   296  Cl    c      1.9594 *    10.7769 *     2.9392 *  0.0000     2          
   297  Cl    c      5.8783 *     6.8580 *     6.8580 *  0.0000     2          
   298  Li    c      1.9594 *    -2.9392 *   -10.7769 *  0.0000     2          
   299  Li    c      1.9594 *   -10.7769 *    -2.9392 *  0.0000     2          
   300  Li    c      5.8783 *    -6.8580 *    -6.8580 *  0.0000     2          
   301  O     c      7.8377 *     4.8986 *    -6.8580 *  0.0000     2          
   302  O     c      7.8377 *    -6.8580 *     4.8986 *  0.0000     2          
   303  Li    c      7.8377 *     4.8986 *     6.8580 *  0.0000     2          
   304  Li    c      7.8377 *    -6.8580 *    -4.8986 *  0.0000     2          
   305  Li    c      7.8377 *     6.8580 *     4.8986 *  0.0000     2          
   306  Li    c      7.8377 *    -4.8986 *    -6.8580 *  0.0000     2          
   307  O     c      3.9189 *     0.9797 *   -10.7769 *  0.0000     2          
   308  O     c      3.9189 *   -10.7769 *     0.9797 *  0.0000     2          
   309  Li    c      3.9189 *     0.9797 *    10.7769 *  0.0000     2          
   310  Li    c      3.9189 *   -10.7769 *    -0.9797 *  0.0000     2          
   311  Li    c      3.9189 *    -0.9797 *   -10.7769 *  0.0000     2          
   312  Li    c      3.9189 *    10.7769 *     0.9797 *  0.0000     2          
   313  Cl    c      5.8783 *    -4.8986 *    -8.8175 *  0.0000     2          
   314  Li    c      5.8783 *     4.8986 *     8.8175 *  0.0000     2          
   315  Cl    c      5.8783 *    -8.8175 *    -4.8986 *  0.0000     2          
   316  Li    c      5.8783 *     8.8175 *     4.8986 *  0.0000     2          
   317  O     c    -11.7566 *     0.9797 *     0.9797 *  0.0000     2          
   318  Li    c    -11.7566 *     0.9797 *    -0.9797 *  0.0000     2          
   319  Li    c    -11.7566 *    -0.9797 *     0.9797 *  0.0000     2          
   320  O     c      3.9189 *     8.8175 *    -6.8580 *  0.0000     2          
   321  O     c      3.9189 *    -6.8580 *     8.8175 *  0.0000     2          
   322  O     c      7.8377 *     0.9797 *     8.8175 *  0.0000     2          
   323  O     c      7.8377 *     8.8175 *     0.9797 *  0.0000     2          
   324  Li    c      3.9189 *     8.8175 *     6.8580 *  0.0000     2          
   325  Li    c      3.9189 *    -6.8580 *    -8.8175 *  0.0000     2          
   326  Li    c      7.8377 *     0.9797 *    -8.8175 *  0.0000     2          
   327  Li    c      7.8377 *     8.8175 *    -0.9797 *  0.0000     2          
   328  Li    c      3.9189 *     6.8580 *     8.8175 *  0.0000     2          
   329  Li    c      3.9189 *    -8.8175 *    -6.8580 *  0.0000     2          
   330  Li    c      7.8377 *    -0.9797 *     8.8175 *  0.0000     2          
   331  Li    c      7.8377 *    -8.8175 *     0.9797 *  0.0000     2          
   332  O     c      0.0000       4.8986 *   -10.7769 *  0.0000     1          
   333  O     c      0.0000     -10.7769 *     4.8986 *  0.0000     1          
   334  O     c      3.9189 *    -2.9392 *   -10.7769 *  0.0000     2          
   335  O     c      3.9189 *   -10.7769 *    -2.9392 *  0.0000     2          
   336  Li    c      0.0000       4.8986 *    10.7769 *  0.0000     1          
   337  Li    c      0.0000     -10.7769 *    -4.8986 *  0.0000     1          
   338  Li    c      3.9189 *    -2.9392 *    10.7769 *  0.0000     2          
   339  Li    c      3.9189 *   -10.7769 *     2.9392 *  0.0000     2          
   340  Li    c      0.0000      10.7769 *     4.8986 *  0.0000     1          
   341  Li    c      0.0000      -4.8986 *   -10.7769 *  0.0000     1          
   342  Li    c      3.9189 *     2.9392 *   -10.7769 *  0.0000     2          
   343  Li    c      3.9189 *    10.7769 *    -2.9392 *  0.0000     2          
   344  Cl    c      9.7972 *    -4.8986 *    -4.8986 *  0.0000     2          
   345  Li    c      9.7972 *     4.8986 *     4.8986 *  0.0000     2          
   346  Cl    c      1.9594 *    10.7769 *    -4.8986 *  0.0000     2          
   347  Cl    c      1.9594 *    -4.8986 *    10.7769 *  0.0000     2          
   348  Cl    c      9.7972 *    -0.9797 *     6.8580 *  0.0000     2          
   349  Cl    c      9.7972 *     6.8580 *    -0.9797 *  0.0000     2          
   350  Li    c      1.9594 *     4.8986 *   -10.7769 *  0.0000     2          
   351  Li    c      1.9594 *   -10.7769 *     4.8986 *  0.0000     2          
   352  Li    c      9.7972 *     0.9797 *    -6.8580 *  0.0000     2          
   353  Li    c      9.7972 *    -6.8580 *     0.9797 *  0.0000     2          
   354  O     c      7.8377 *    -2.9392 *     8.8175 *  0.0000     2          
   355  O     c    -11.7566 *     0.9797 *    -2.9392 *  0.0000     2          
   356  O     c    -11.7566 *    -2.9392 *     0.9797 *  0.0000     2          
   357  Li    c      7.8377 *    -2.9392 *    -8.8175 *  0.0000     2          
   358  Li    c    -11.7566 *     0.9797 *     2.9392 *  0.0000     2          
   359  Li    c    -11.7566 *    -2.9392 *    -0.9797 *  0.0000     2          
   360  Li    c      7.8377 *     2.9392 *     8.8175 *  0.0000     2          
   361  Li    c    -11.7566 *    -0.9797 *    -2.9392 *  0.0000     2          
   362  Li    c    -11.7566 *     2.9392 *     0.9797 *  0.0000     2          
   363  O     c      7.8377 *     8.8175 *    -2.9392 *  0.0000     2          
   364  Li    c      7.8377 *     8.8175 *     2.9392 *  0.0000     2          
   365  Li    c      7.8377 *    -8.8175 *    -2.9392 *  0.0000     2          
   366  Cl    c      9.7972 *     2.9392 *     6.8580 *  0.0000     2          
   367  Li    c      9.7972 *    -2.9392 *    -6.8580 *  0.0000     2          
   368  Cl    c      5.8783 *    -0.9797 *    10.7769 *  0.0000     2          
   369  Cl    c      5.8783 *    10.7769 *    -0.9797 *  0.0000     2          
   370  Cl    c      9.7972 *     6.8580 *     2.9392 *  0.0000     2          
   371  Li    c      5.8783 *     0.9797 *   -10.7769 *  0.0000     2          
   372  Li    c      5.8783 *   -10.7769 *     0.9797 *  0.0000     2          
   373  Li    c      9.7972 *    -6.8580 *    -2.9392 *  0.0000     2          
   374  O     c      0.0000       8.8175 *     8.8175 *  0.0000     1          
   375  O     c    -11.7566 *    -2.9392 *    -2.9392 *  0.0000     2          
   376  Li    c      0.0000       8.8175 *    -8.8175 *  0.0000     1          
   377  Li    c    -11.7566 *    -2.9392 *     2.9392 *  0.0000     2          
   378  Li    c      0.0000      -8.8175 *     8.8175 *  0.0000     1          
   379  Li    c    -11.7566 *     2.9392 *    -2.9392 *  0.0000     2          
   380  O     c      3.9189 *     4.8986 *   -10.7769 *  0.0000     2          
   381  O     c      3.9189 *   -10.7769 *     4.8986 *  0.0000     2          
   382  O     c      7.8377 *    -6.8580 *    -6.8580 *  0.0000     2          
   383  Li    c      3.9189 *     4.8986 *    10.7769 *  0.0000     2          
   384  Li    c      3.9189 *   -10.7769 *    -4.8986 *  0.0000     2          
   385  Li    c      7.8377 *    -6.8580 *     6.8580 *  0.0000     2          
   386  Li    c      3.9189 *    10.7769 *     4.8986 *  0.0000     2          
   387  Li    c      3.9189 *    -4.8986 *   -10.7769 *  0.0000     2          
   388  Li    c      7.8377 *     6.8580 *    -6.8580 *  0.0000     2          
   389  Cl    c      1.9594 *    -8.8175 *    -8.8175 *  0.0000     2          
   390  Li    c      1.9594 *     8.8175 *     8.8175 *  0.0000     2          
   391  Cl    c      5.8783 *     6.8580 *    -8.8175 *  0.0000     2          
   392  Cl    c      5.8783 *    -8.8175 *     6.8580 *  0.0000     2          
   393  Li    c      5.8783 *     8.8175 *    -6.8580 *  0.0000     2          
   394  Li    c      5.8783 *    -6.8580 *     8.8175 *  0.0000     2          
   395  Cl    c      5.8783 *     2.9392 *    10.7769 *  0.0000     2          
   396  Cl    c      5.8783 *    10.7769 *     2.9392 *  0.0000     2          
   397  Li    c      5.8783 *    -2.9392 *   -10.7769 *  0.0000     2          
   398  Li    c      5.8783 *   -10.7769 *    -2.9392 *  0.0000     2          
   399  O     c    -11.7566 *     0.9797 *     4.8986 *  0.0000     2          
   400  O     c    -11.7566 *     4.8986 *     0.9797 *  0.0000     2          
   401  Li    c    -11.7566 *     0.9797 *    -4.8986 *  0.0000     2          
   402  Li    c    -11.7566 *     4.8986 *    -0.9797 *  0.0000     2          
   403  Li    c    -11.7566 *    -0.9797 *     4.8986 *  0.0000     2          
   404  Li    c    -11.7566 *    -4.8986 *     0.9797 *  0.0000     2          
   405  O     c      0.0000       0.9797 *    12.7363 *  0.0000     1          
   406  O     c      0.0000      12.7363 *     0.9797 *  0.0000     1          
   407  O     c      7.8377 *     4.8986 *     8.8175 *  0.0000     2          
   408  O     c      7.8377 *     8.8175 *     4.8986 *  0.0000     2          
   409  Li    c      0.0000       0.9797 *   -12.7363 *  0.0000     1          
   410  Li    c      0.0000      12.7363 *    -0.9797 *  0.0000     1          
   411  Li    c      7.8377 *     4.8986 *    -8.8175 *  0.0000     2          
   412  Li    c      7.8377 *     8.8175 *    -4.8986 *  0.0000     2          
   413  Li    c      0.0000      -0.9797 *    12.7363 *  0.0000     1          
   414  Li    c      0.0000     -12.7363 *     0.9797 *  0.0000     1          
   415  Li    c      7.8377 *    -4.8986 *     8.8175 *  0.0000     2          
   416  Li    c      7.8377 *    -8.8175 *     4.8986 *  0.0000     2          
   417  O     c      0.0000      -6.8580 *   -10.7769 *  0.0000     1          
   418  O     c      0.0000     -10.7769 *    -6.8580 *  0.0000     1          
   419  Li    c      0.0000      -6.8580 *    10.7769 *  0.0000     1          
   420  Li    c      0.0000     -10.7769 *     6.8580 *  0.0000     1          
   421  Li    c      0.0000       6.8580 *   -10.7769 *  0.0000     1          
   422  Li    c      0.0000      10.7769 *    -6.8580 *  0.0000     1          
   423  Cl    c      1.9594 *    -0.9797 *   -12.7363 *  0.0000     2          
   424  Cl    c      1.9594 *   -12.7363 *    -0.9797 *  0.0000     2          
   425  Li    c      1.9594 *     0.9797 *    12.7363 *  0.0000     2          
   426  Li    c      1.9594 *    12.7363 *     0.9797 *  0.0000     2          
   427  Cl    c      1.9594 *     6.8580 *    10.7769 *  0.0000     2          
   428  Cl    c      9.7972 *     6.8580 *    -4.8986 *  0.0000     2          
   429  Cl    c      9.7972 *    -4.8986 *     6.8580 *  0.0000     2          
   430  Li    c      1.9594 *    -6.8580 *   -10.7769 *  0.0000     2          
   431  Li    c      9.7972 *     4.8986 *    -6.8580 *  0.0000     2          
   432  Li    c      9.7972 *    -6.8580 *     4.8986 *  0.0000     2          
   433  Cl    c      1.9594 *    10.7769 *     6.8580 *  0.0000     2          
   434  Li    c      1.9594 *   -10.7769 *    -6.8580 *  0.0000     2          
   435  O     c      3.9189 *     8.8175 *     8.8175 *  0.0000     2          
   436  O     c    -11.7566 *     4.8986 *    -2.9392 *  0.0000     2          
   437  O     c    -11.7566 *    -2.9392 *     4.8986 *  0.0000     2          
   438  Li    c      3.9189 *     8.8175 *    -8.8175 *  0.0000     2          
   439  Li    c    -11.7566 *     4.8986 *     2.9392 *  0.0000     2          
   440  Li    c    -11.7566 *    -2.9392 *    -4.8986 *  0.0000     2          
   441  Li    c      3.9189 *    -8.8175 *     8.8175 *  0.0000     2          
   442  Li    c    -11.7566 *     2.9392 *     4.8986 *  0.0000     2          
   443  Li    c    -11.7566 *    -4.8986 *    -2.9392 *  0.0000     2          
   444  O     c      0.0000      12.7363 *    -2.9392 *  0.0000     1          
   445  O     c      0.0000      -2.9392 *    12.7363 *  0.0000     1          
   446  Li    c      0.0000      12.7363 *     2.9392 *  0.0000     1          
   447  Li    c      0.0000      -2.9392 *   -12.7363 *  0.0000     1          
   448  Li    c      0.0000       2.9392 *    12.7363 *  0.0000     1          
   449  Li    c      0.0000     -12.7363 *    -2.9392 *  0.0000     1          
   450  Cl    c      1.9594 *     2.9392 *   -12.7363 *  0.0000     2          
   451  Cl    c      1.9594 *   -12.7363 *     2.9392 *  0.0000     2          
   452  Cl    c      9.7972 *    -0.9797 *    -8.8175 *  0.0000     2          
   453  Cl    c      9.7972 *    -8.8175 *    -0.9797 *  0.0000     2          
   454  Li    c      1.9594 *    12.7363 *    -2.9392 *  0.0000     2          
   455  Li    c      1.9594 *    -2.9392 *    12.7363 *  0.0000     2          
   456  Li    c      9.7972 *     0.9797 *     8.8175 *  0.0000     2          
   457  Li    c      9.7972 *     8.8175 *     0.9797 *  0.0000     2          
   458  Cl    c      5.8783 *    10.7769 *    -4.8986 *  0.0000     2          
   459  Cl    c      5.8783 *    -4.8986 *    10.7769 *  0.0000     2          
   460  Li    c      5.8783 *     4.8986 *   -10.7769 *  0.0000     2          
   461  Li    c      5.8783 *   -10.7769 *     4.8986 *  0.0000     2          
   462  O     c      3.9189 *     0.9797 *    12.7363 *  0.0000     2          
   463  O     c      3.9189 *    12.7363 *     0.9797 *  0.0000     2          
   464  Li    c      3.9189 *     0.9797 *   -12.7363 *  0.0000     2          
   465  Li    c      3.9189 *    12.7363 *    -0.9797 *  0.0000     2          
   466  Li    c      3.9189 *    -0.9797 *    12.7363 *  0.0000     2          
   467  Li    c      3.9189 *   -12.7363 *     0.9797 *  0.0000     2          
   468  O     c      3.9189 *   -10.7769 *    -6.8580 *  0.0000     2          
   469  O     c      7.8377 *     0.9797 *   -10.7769 *  0.0000     2          
   470  O     c      7.8377 *   -10.7769 *     0.9797 *  0.0000     2          
   471  Li    c      3.9189 *   -10.7769 *     6.8580 *  0.0000     2          
   472  Li    c      7.8377 *     0.9797 *    10.7769 *  0.0000     2          
   473  Li    c      7.8377 *   -10.7769 *    -0.9797 *  0.0000     2          
   474  Li    c      3.9189 *    10.7769 *    -6.8580 *  0.0000     2          
   475  Li    c      7.8377 *    -0.9797 *   -10.7769 *  0.0000     2          
   476  Li    c      7.8377 *    10.7769 *     0.9797 *  0.0000     2          
   477  O     c      3.9189 *    -6.8580 *   -10.7769 *  0.0000     2          
   478  Li    c      3.9189 *    -6.8580 *    10.7769 *  0.0000     2          
   479  Li    c      3.9189 *     6.8580 *   -10.7769 *  0.0000     2          
   480  Cl    c      9.7972 *     2.9392 *    -8.8175 *  0.0000     2          
   481  Li    c      9.7972 *    -2.9392 *     8.8175 *  0.0000     2          
   482  Cl    c      9.7972 *    -8.8175 *     2.9392 *  0.0000     2          
   483  Li    c      9.7972 *     8.8175 *    -2.9392 *  0.0000     2          
   484  O     c    -11.7566 *     0.9797 *    -6.8580 *  0.0000     2          
   485  O     c    -11.7566 *     4.8986 *     4.8986 *  0.0000     2          
   486  O     c    -11.7566 *    -6.8580 *     0.9797 *  0.0000     2          
   487  Li    c    -11.7566 *     0.9797 *     6.8580 *  0.0000     2          
   488  Li    c    -11.7566 *     4.8986 *    -4.8986 *  0.0000     2          
   489  Li    c    -11.7566 *    -6.8580 *    -0.9797 *  0.0000     2          
   490  Li    c    -11.7566 *    -0.9797 *    -6.8580 *  0.0000     2          
   491  Li    c    -11.7566 *     6.8580 *     0.9797 *  0.0000     2          
   492  Li    c    -11.7566 *    -4.8986 *     4.8986 *  0.0000     2          
   493  O     c      0.0000       4.8986 *    12.7363 *  0.0000     1          
   494  O     c      0.0000      12.7363 *     4.8986 *  0.0000     1          
   495  O     c      3.9189 *    12.7363 *    -2.9392 *  0.0000     2          
   496  O     c      3.9189 *    -2.9392 *    12.7363 *  0.0000     2          
   497  O     c      7.8377 *     8.8175 *    -6.8580 *  0.0000     2          
   498  O     c      7.8377 *    -6.8580 *     8.8175 *  0.0000     2          
   499  Li    c      0.0000       4.8986 *   -12.7363 *  0.0000     1          
   500  Li    c      0.0000      12.7363 *    -4.8986 *  0.0000     1          
   501  Li    c      3.9189 *    12.7363 *     2.9392 *  0.0000     2          
   502  Li    c      3.9189 *    -2.9392 *   -12.7363 *  0.0000     2          
   503  Li    c      7.8377 *     8.8175 *     6.8580 *  0.0000     2          
   504  Li    c      7.8377 *    -6.8580 *    -8.8175 *  0.0000     2          
   505  Li    c      0.0000      -4.8986 *    12.7363 *  0.0000     1          
   506  Li    c      0.0000     -12.7363 *     4.8986 *  0.0000     1          
   507  Li    c      3.9189 *     2.9392 *    12.7363 *  0.0000     2          
   508  Li    c      3.9189 *   -12.7363 *    -2.9392 *  0.0000     2          
   509  Li    c      7.8377 *     6.8580 *     8.8175 *  0.0000     2          
   510  Li    c      7.8377 *    -8.8175 *    -6.8580 *  0.0000     2          
   511  O     c      7.8377 *    -2.9392 *   -10.7769 *  0.0000     2          
   512  O     c      7.8377 *   -10.7769 *    -2.9392 *  0.0000     2          
   513  Li    c      7.8377 *    -2.9392 *    10.7769 *  0.0000     2          
   514  Li    c      7.8377 *   -10.7769 *     2.9392 *  0.0000     2          
   515  Li    c      7.8377 *     2.9392 *   -10.7769 *  0.0000     2          
   516  Li    c      7.8377 *    10.7769 *    -2.9392 *  0.0000     2          
   517  Cl    c    -13.7161 *    -0.9797 *    -0.9797 *  0.0000     2          
   518  Li    c    -13.7161 *     0.9797 *     0.9797 *  0.0000     2          
   519  Cl    c      1.9594 *    -4.8986 *   -12.7363 *  0.0000     2          
   520  Cl    c      1.9594 *   -12.7363 *    -4.8986 *  0.0000     2          
   521  Li    c      1.9594 *     4.8986 *    12.7363 *  0.0000     2          
   522  Li    c      1.9594 *    12.7363 *     4.8986 *  0.0000     2          
   523  Cl    c      5.8783 *    -8.8175 *    -8.8175 *  0.0000     2          
   524  Cl    c      9.7972 *     6.8580 *     6.8580 *  0.0000     2          
   525  Li    c      5.8783 *     8.8175 *     8.8175 *  0.0000     2          
   526  Li    c      9.7972 *    -6.8580 *    -6.8580 *  0.0000     2          
   527  O     c    -11.7566 *    -2.9392 *    -6.8580 *  0.0000     2          
   528  O     c    -11.7566 *    -6.8580 *    -2.9392 *  0.0000     2          
   529  Li    c    -11.7566 *    -2.9392 *     6.8580 *  0.0000     2          
   530  Li    c    -11.7566 *    -6.8580 *     2.9392 *  0.0000     2          
   531  Li    c    -11.7566 *     2.9392 *    -6.8580 *  0.0000     2          
   532  Li    c    -11.7566 *     6.8580 *    -2.9392 *  0.0000     2          
   533  O     c      0.0000       8.8175 *   -10.7769 *  0.0000     1          
   534  O     c      0.0000     -10.7769 *     8.8175 *  0.0000     1          
   535  Li    c      0.0000       8.8175 *    10.7769 *  0.0000     1          
   536  Li    c      0.0000     -10.7769 *    -8.8175 *  0.0000     1          
   537  Li    c      0.0000      10.7769 *     8.8175 *  0.0000     1          
   538  Li    c      0.0000      -8.8175 *   -10.7769 *  0.0000     1          
   539  Cl    c    -13.7161 *    -0.9797 *     2.9392 *  0.0000     2          
   540  Cl    c    -13.7161 *     2.9392 *    -0.9797 *  0.0000     2          
   541  Li    c    -13.7161 *     0.9797 *    -2.9392 *  0.0000     2          
   542  Li    c    -13.7161 *    -2.9392 *     0.9797 *  0.0000     2          
   543  Cl    c      5.8783 *    -0.9797 *   -12.7363 *  0.0000     2          
   544  Cl    c      5.8783 *   -12.7363 *    -0.9797 *  0.0000     2          
   545  Cl    c      9.7972 *    -4.8986 *    -8.8175 *  0.0000     2          
   546  Cl    c      9.7972 *    -8.8175 *    -4.8986 *  0.0000     2          
   547  Li    c      5.8783 *     0.9797 *    12.7363 *  0.0000     2          
   548  Li    c      5.8783 *    12.7363 *     0.9797 *  0.0000     2          
   549  Li    c      9.7972 *     4.8986 *     8.8175 *  0.0000     2          
   550  Li    c      9.7972 *     8.8175 *     4.8986 *  0.0000     2          
   551  Cl    c      1.9594 *    10.7769 *    -8.8175 *  0.0000     2          
   552  Cl    c      1.9594 *    -8.8175 *    10.7769 *  0.0000     2          
   553  Cl    c      5.8783 *    10.7769 *     6.8580 *  0.0000     2          
   554  Li    c      1.9594 *     8.8175 *   -10.7769 *  0.0000     2          
   555  Li    c      1.9594 *   -10.7769 *     8.8175 *  0.0000     2          
   556  Li    c      5.8783 *   -10.7769 *    -6.8580 *  0.0000     2          
   557  Cl    c      5.8783 *     6.8580 *    10.7769 *  0.0000     2          
   558  Li    c      5.8783 *    -6.8580 *   -10.7769 *  0.0000     2          
   559  O     c      3.9189 *     4.8986 *    12.7363 *  0.0000     2          
   560  O     c      3.9189 *    12.7363 *     4.8986 *  0.0000     2          
   561  Li    c      3.9189 *     4.8986 *   -12.7363 *  0.0000     2          
   562  Li    c      3.9189 *    12.7363 *    -4.8986 *  0.0000     2          
   563  Li    c      3.9189 *    -4.8986 *    12.7363 *  0.0000     2          
   564  Li    c      3.9189 *   -12.7363 *     4.8986 *  0.0000     2          
   565  O     c      7.8377 *     4.8986 *   -10.7769 *  0.0000     2          
   566  O     c      7.8377 *   -10.7769 *     4.8986 *  0.0000     2          
   567  Li    c      7.8377 *     4.8986 *    10.7769 *  0.0000     2          
   568  Li    c      7.8377 *   -10.7769 *    -4.8986 *  0.0000     2          
   569  Li    c      7.8377 *    10.7769 *     4.8986 *  0.0000     2          
   570  Li    c      7.8377 *    -4.8986 *   -10.7769 *  0.0000     2          
   571  Cl    c    -13.7161 *     2.9392 *     2.9392 *  0.0000     2          
   572  Li    c    -13.7161 *    -2.9392 *    -2.9392 *  0.0000     2          
   573  Cl    c      5.8783 *     2.9392 *   -12.7363 *  0.0000     2          
   574  Cl    c      5.8783 *   -12.7363 *     2.9392 *  0.0000     2          
   575  Li    c      5.8783 *    12.7363 *    -2.9392 *  0.0000     2          
   576  Li    c      5.8783 *    -2.9392 *    12.7363 *  0.0000     2          
   577  O     c    -11.7566 *     4.8986 *    -6.8580 *  0.0000     2          
   578  O     c    -11.7566 *    -6.8580 *     4.8986 *  0.0000     2          
   579  Li    c    -11.7566 *     4.8986 *     6.8580 *  0.0000     2          
   580  Li    c    -11.7566 *    -6.8580 *    -4.8986 *  0.0000     2          
   581  Li    c    -11.7566 *     6.8580 *     4.8986 *  0.0000     2          
   582  Li    c    -11.7566 *    -4.8986 *    -6.8580 *  0.0000     2          
   583  O     c      0.0000      12.7363 *    -6.8580 *  0.0000     1          
   584  O     c      0.0000      -6.8580 *    12.7363 *  0.0000     1          
   585  O     c      3.9189 *   -10.7769 *     8.8175 *  0.0000     2          
   586  Li    c      0.0000      12.7363 *     6.8580 *  0.0000     1          
   587  Li    c      0.0000      -6.8580 *   -12.7363 *  0.0000     1          
   588  Li    c      3.9189 *   -10.7769 *    -8.8175 *  0.0000     2          
   589  Li    c      0.0000       6.8580 *    12.7363 *  0.0000     1          
   590  Li    c      0.0000     -12.7363 *    -6.8580 *  0.0000     1          
   591  Li    c      3.9189 *    10.7769 *     8.8175 *  0.0000     2          
   592  O     c      3.9189 *     8.8175 *   -10.7769 *  0.0000     2          
   593  Li    c      3.9189 *     8.8175 *    10.7769 *  0.0000     2          
   594  Li    c      3.9189 *    -8.8175 *   -10.7769 *  0.0000     2          
   595  Cl    c    -13.7161 *    -0.9797 *    -4.8986 *  0.0000     2          
   596  Cl    c    -13.7161 *    -4.8986 *    -0.9797 *  0.0000     2          
   597  Li    c    -13.7161 *     0.9797 *     4.8986 *  0.0000     2          
   598  Li    c    -13.7161 *     4.8986 *     0.9797 *  0.0000     2          
   599  Cl    c      1.9594 *   -12.7363 *     6.8580 *  0.0000     2          
   600  Li    c      1.9594 *    12.7363 *    -6.8580 *  0.0000     2          
   601  Cl    c      1.9594 *     6.8580 *   -12.7363 *  0.0000     2          
   602  Cl    c      9.7972 *    -0.9797 *    10.7769 *  0.0000     2          
   603  Li    c      1.9594 *    -6.8580 *    12.7363 *  0.0000     2          
   604  Li    c      9.7972 *     0.9797 *   -10.7769 *  0.0000     2          
   605  Cl    c      9.7972 *    10.7769 *    -0.9797 *  0.0000     2          
   606  Li    c      9.7972 *   -10.7769 *     0.9797 *  0.0000     2          
   607  O     c    -11.7566 *     8.8175 *     0.9797 *  0.0000     2          
   608  Li    c    -11.7566 *     8.8175 *    -0.9797 *  0.0000     2          
   609  Li    c    -11.7566 *    -8.8175 *     0.9797 *  0.0000     2          
   610  O     c      7.8377 *     8.8175 *     8.8175 *  0.0000     2          
   611  O     c    -11.7566 *     0.9797 *     8.8175 *  0.0000     2          
   612  Li    c      7.8377 *     8.8175 *    -8.8175 *  0.0000     2          
   613  Li    c    -11.7566 *     0.9797 *    -8.8175 *  0.0000     2          
   614  Li    c      7.8377 *    -8.8175 *     8.8175 *  0.0000     2          
   615  Li    c    -11.7566 *    -0.9797 *     8.8175 *  0.0000     2          
   616  O     c      0.0000       0.9797 *   -14.6958 *  0.0000     1          
   617  O     c      0.0000     -14.6958 *     0.9797 *  0.0000     1          
   618  Li    c      0.0000       0.9797 *    14.6958 *  0.0000     1          
   619  Li    c      0.0000     -14.6958 *    -0.9797 *  0.0000     1          
   620  Li    c      0.0000      -0.9797 *   -14.6958 *  0.0000     1          
   621  Li    c      0.0000      14.6958 *     0.9797 *  0.0000     1          
   622  Cl    c    -13.7161 *     2.9392 *    -4.8986 *  0.0000     2          
   623  Cl    c    -13.7161 *    -4.8986 *     2.9392 *  0.0000     2          
   624  Li    c    -13.7161 *     4.8986 *    -2.9392 *  0.0000     2          
   625  Li    c    -13.7161 *    -2.9392 *     4.8986 *  0.0000     2          
   626  Cl    c      5.8783 *    -4.8986 *   -12.7363 *  0.0000     2          
   627  Cl    c      5.8783 *   -12.7363 *    -4.8986 *  0.0000     2          
   628  Cl    c      9.7972 *     6.8580 *    -8.8175 *  0.0000     2          
   629  Cl    c      9.7972 *    -8.8175 *     6.8580 *  0.0000     2          
   630  Li    c      5.8783 *     4.8986 *    12.7363 *  0.0000     2          
   631  Li    c      5.8783 *    12.7363 *     4.8986 *  0.0000     2          
   632  Li    c      9.7972 *     8.8175 *    -6.8580 *  0.0000     2          
   633  Li    c      9.7972 *    -6.8580 *     8.8175 *  0.0000     2          
   634  Cl    c      1.9594 *    -0.9797 *    14.6958 *  0.0000     2          
   635  Cl    c      1.9594 *    14.6958 *    -0.9797 *  0.0000     2          
   636  Cl    c      9.7972 *     2.9392 *    10.7769 *  0.0000     2          
   637  Li    c      1.9594 *     0.9797 *   -14.6958 *  0.0000     2          
   638  Li    c      1.9594 *   -14.6958 *     0.9797 *  0.0000     2          
   639  Li    c      9.7972 *    -2.9392 *   -10.7769 *  0.0000     2          
   640  Cl    c      9.7972 *    10.7769 *     2.9392 *  0.0000     2          
   641  Li    c      9.7972 *   -10.7769 *    -2.9392 *  0.0000     2          
   642  O     c    -11.7566 *     8.8175 *    -2.9392 *  0.0000     2          
   643  O     c    -11.7566 *    -2.9392 *     8.8175 *  0.0000     2          
   644  Li    c    -11.7566 *     8.8175 *     2.9392 *  0.0000     2          
   645  Li    c    -11.7566 *    -2.9392 *    -8.8175 *  0.0000     2          
   646  Li    c    -11.7566 *     2.9392 *     8.8175 *  0.0000     2          
   647  Li    c    -11.7566 *    -8.8175 *    -2.9392 *  0.0000     2          
   648  O     c      3.9189 *    12.7363 *    -6.8580 *  0.0000     2          
   649  O     c      7.8377 *     0.9797 *    12.7363 *  0.0000     2          
   650  O     c      7.8377 *    12.7363 *     0.9797 *  0.0000     2          
   651  Li    c      3.9189 *    12.7363 *     6.8580 *  0.0000     2          
   652  Li    c      7.8377 *     0.9797 *   -12.7363 *  0.0000     2          
[...]
   898  O     s      7.8377 *    -6.8580 *    -2.9392 *  0.0000     2          
   899  O     s      0.0000       0.9797 *   -10.7769 *  0.0000     1          
   900  O     s      0.0000     -10.7769 *     0.9797 *  0.0000     1          
   901  Cl    s      5.8783 *     2.9392 *    -8.8175 *  0.0000     2          
   902  Cl    s      5.8783 *    -8.8175 *     2.9392 *  0.0000     2          
   903  Cl    s      9.7972 *    -0.9797 *    -4.8986 *  0.0000     2          
   904  Cl    s      9.7972 *    -4.8986 *    -0.9797 *  0.0000     2          
   905  Cl    s      1.9594 *    -0.9797 *    10.7769 *  0.0000     2          
   906  Cl    s      1.9594 *    10.7769 *    -0.9797 *  0.0000     2          
   907  O     s      0.0000       8.8175 *    -6.8580 *  0.0000     1          
   908  O     s      0.0000      -6.8580 *     8.8175 *  0.0000     1          
   909  O     s      0.0000      -2.9392 *   -10.7769 *  0.0000     1          
   910  O     s      0.0000     -10.7769 *    -2.9392 *  0.0000     1          
   911  Cl    s      1.9594 *     6.8580 *    -8.8175 *  0.0000     2          
   912  Cl    s      1.9594 *    -8.8175 *     6.8580 *  0.0000     2          
   913  Cl    s      9.7972 *     2.9392 *    -4.8986 *  0.0000     2          
   914  Cl    s      9.7972 *    -4.8986 *     2.9392 *  0.0000     2          
   915  Cl    s      1.9594 *     2.9392 *    10.7769 *  0.0000     2          
   916  Cl    s      1.9594 *    10.7769 *     2.9392 *  0.0000     2          
   917  Cl    s      5.8783 *     6.8580 *     6.8580 *  0.0000     2          
   918  O     s      7.8377 *     4.8986 *    -6.8580 *  0.0000     2          
   919  O     s      7.8377 *    -6.8580 *     4.8986 *  0.0000     2          
   920  O     s      3.9189 *     0.9797 *   -10.7769 *  0.0000     2          
   921  O     s      3.9189 *   -10.7769 *     0.9797 *  0.0000     2          
   922  Cl    s      5.8783 *    -4.8986 *    -8.8175 *  0.0000     2          
   923  Cl    s      5.8783 *    -8.8175 *    -4.8986 *  0.0000     2          
   924  O     s    -11.7566 *     0.9797 *     0.9797 *  0.0000     2          
   925  O     s      3.9189 *     8.8175 *    -6.8580 *  0.0000     2          
   926  O     s      3.9189 *    -6.8580 *     8.8175 *  0.0000     2          
   927  O     s      7.8377 *     0.9797 *     8.8175 *  0.0000     2          
   928  O     s      7.8377 *     8.8175 *     0.9797 *  0.0000     2          
   929  O     s      0.0000       4.8986 *   -10.7769 *  0.0000     1          
   930  O     s      0.0000     -10.7769 *     4.8986 *  0.0000     1          
   931  O     s      3.9189 *    -2.9392 *   -10.7769 *  0.0000     2          
   932  O     s      3.9189 *   -10.7769 *    -2.9392 *  0.0000     2          
   933  Cl    s      9.7972 *    -4.8986 *    -4.8986 *  0.0000     2          
   934  Cl    s      1.9594 *    10.7769 *    -4.8986 *  0.0000     2          
   935  Cl    s      1.9594 *    -4.8986 *    10.7769 *  0.0000     2          
   936  Cl    s      9.7972 *    -0.9797 *     6.8580 *  0.0000     2          
   937  Cl    s      9.7972 *     6.8580 *    -0.9797 *  0.0000     2          
   938  O     s      7.8377 *    -2.9392 *     8.8175 *  0.0000     2          
   939  O     s    -11.7566 *     0.9797 *    -2.9392 *  0.0000     2          
   940  O     s    -11.7566 *    -2.9392 *     0.9797 *  0.0000     2          
   941  O     s      7.8377 *     8.8175 *    -2.9392 *  0.0000     2          
   942  Cl    s      9.7972 *     2.9392 *     6.8580 *  0.0000     2          
   943  Cl    s      5.8783 *    -0.9797 *    10.7769 *  0.0000     2          
   944  Cl    s      5.8783 *    10.7769 *    -0.9797 *  0.0000     2          
   945  Cl    s      9.7972 *     6.8580 *     2.9392 *  0.0000     2          
   946  O     s      0.0000       8.8175 *     8.8175 *  0.0000     1          
   947  O     s    -11.7566 *    -2.9392 *    -2.9392 *  0.0000     2          
   948  O     s      3.9189 *     4.8986 *   -10.7769 *  0.0000     2          
   949  O     s      3.9189 *   -10.7769 *     4.8986 *  0.0000     2          
   950  O     s      7.8377 *    -6.8580 *    -6.8580 *  0.0000     2          
   951  Cl    s      1.9594 *    -8.8175 *    -8.8175 *  0.0000     2          
   952  Cl    s      5.8783 *     6.8580 *    -8.8175 *  0.0000     2          
   953  Cl    s      5.8783 *    -8.8175 *     6.8580 *  0.0000     2          
   954  Cl    s      5.8783 *     2.9392 *    10.7769 *  0.0000     2          
   955  Cl    s      5.8783 *    10.7769 *     2.9392 *  0.0000     2          
   956  O     s    -11.7566 *     0.9797 *     4.8986 *  0.0000     2          
   957  O     s    -11.7566 *     4.8986 *     0.9797 *  0.0000     2          
   958  O     s      0.0000       0.9797 *    12.7363 *  0.0000     1          
   959  O     s      0.0000      12.7363 *     0.9797 *  0.0000     1          
   960  O     s      7.8377 *     4.8986 *     8.8175 *  0.0000     2          
   961  O     s      7.8377 *     8.8175 *     4.8986 *  0.0000     2          
   962  O     s      0.0000      -6.8580 *   -10.7769 *  0.0000     1          
   963  O     s      0.0000     -10.7769 *    -6.8580 *  0.0000     1          
   964  Cl    s      1.9594 *    -0.9797 *   -12.7363 *  0.0000     2          
   965  Cl    s      1.9594 *   -12.7363 *    -0.9797 *  0.0000     2          
   966  Cl    s      1.9594 *     6.8580 *    10.7769 *  0.0000     2          
   967  Cl    s      9.7972 *     6.8580 *    -4.8986 *  0.0000     2          
   968  Cl    s      9.7972 *    -4.8986 *     6.8580 *  0.0000     2          
   969  Cl    s      1.9594 *    10.7769 *     6.8580 *  0.0000     2          
   970  O     s      3.9189 *     8.8175 *     8.8175 *  0.0000     2          
   971  O     s    -11.7566 *     4.8986 *    -2.9392 *  0.0000     2          
   972  O     s    -11.7566 *    -2.9392 *     4.8986 *  0.0000     2          
   973  O     s      0.0000      12.7363 *    -2.9392 *  0.0000     1          
   974  O     s      0.0000      -2.9392 *    12.7363 *  0.0000     1          
   975  Cl    s      1.9594 *     2.9392 *   -12.7363 *  0.0000     2          
   976  Cl    s      1.9594 *   -12.7363 *     2.9392 *  0.0000     2          
   977  Cl    s      9.7972 *    -0.9797 *    -8.8175 *  0.0000     2          
   978  Cl    s      9.7972 *    -8.8175 *    -0.9797 *  0.0000     2          
   979  Cl    s      5.8783 *    10.7769 *    -4.8986 *  0.0000     2          
   980  Cl    s      5.8783 *    -4.8986 *    10.7769 *  0.0000     2          
   981  O     s      3.9189 *     0.9797 *    12.7363 *  0.0000     2          
   982  O     s      3.9189 *    12.7363 *     0.9797 *  0.0000     2          
   983  O     s      3.9189 *   -10.7769 *    -6.8580 *  0.0000     2          
   984  O     s      7.8377 *     0.9797 *   -10.7769 *  0.0000     2          
   985  O     s      7.8377 *   -10.7769 *     0.9797 *  0.0000     2          
   986  O     s      3.9189 *    -6.8580 *   -10.7769 *  0.0000     2          
   987  Cl    s      9.7972 *     2.9392 *    -8.8175 *  0.0000     2          
   988  Cl    s      9.7972 *    -8.8175 *     2.9392 *  0.0000     2          
   989  O     s    -11.7566 *     0.9797 *    -6.8580 *  0.0000     2          
   990  O     s    -11.7566 *     4.8986 *     4.8986 *  0.0000     2          
   991  O     s    -11.7566 *    -6.8580 *     0.9797 *  0.0000     2          
   992  O     s      0.0000       4.8986 *    12.7363 *  0.0000     1          
   993  O     s      0.0000      12.7363 *     4.8986 *  0.0000     1          
   994  O     s      3.9189 *    12.7363 *    -2.9392 *  0.0000     2          
   995  O     s      3.9189 *    -2.9392 *    12.7363 *  0.0000     2          
   996  O     s      7.8377 *     8.8175 *    -6.8580 *  0.0000     2          
   997  O     s      7.8377 *    -6.8580 *     8.8175 *  0.0000     2          
   998  O     s      7.8377 *    -2.9392 *   -10.7769 *  0.0000     2          
   999  O     s      7.8377 *   -10.7769 *    -2.9392 *  0.0000     2          
  1000  Cl    s    -13.7161 *    -0.9797 *    -0.9797 *  0.0000     2          
  1001  Cl    s      1.9594 *    -4.8986 *   -12.7363 *  0.0000     2          
  1002  Cl    s      1.9594 *   -12.7363 *    -4.8986 *  0.0000     2          
  1003  Cl    s      5.8783 *    -8.8175 *    -8.8175 *  0.0000     2          
  1004  Cl    s      9.7972 *     6.8580 *     6.8580 *  0.0000     2          
  1005  O     s    -11.7566 *    -2.9392 *    -6.8580 *  0.0000     2          
  1006  O     s    -11.7566 *    -6.8580 *    -2.9392 *  0.0000     2          
  1007  O     s      0.0000       8.8175 *   -10.7769 *  0.0000     1          
  1008  O     s      0.0000     -10.7769 *     8.8175 *  0.0000     1          
  1009  Cl    s    -13.7161 *    -0.9797 *     2.9392 *  0.0000     2          
  1010  Cl    s    -13.7161 *     2.9392 *    -0.9797 *  0.0000     2          
  1011  Cl    s      5.8783 *    -0.9797 *   -12.7363 *  0.0000     2          
  1012  Cl    s      5.8783 *   -12.7363 *    -0.9797 *  0.0000     2          
  1013  Cl    s      9.7972 *    -4.8986 *    -8.8175 *  0.0000     2          
  1014  Cl    s      9.7972 *    -8.8175 *    -4.8986 *  0.0000     2          
  1015  Cl    s      1.9594 *    10.7769 *    -8.8175 *  0.0000     2          
  1016  Cl    s      1.9594 *    -8.8175 *    10.7769 *  0.0000     2          
  1017  Cl    s      5.8783 *    10.7769 *     6.8580 *  0.0000     2          
  1018  Cl    s      5.8783 *     6.8580 *    10.7769 *  0.0000     2          
  1019  O     s      3.9189 *     4.8986 *    12.7363 *  0.0000     2          
  1020  O     s      3.9189 *    12.7363 *     4.8986 *  0.0000     2          
  1021  O     s      7.8377 *     4.8986 *   -10.7769 *  0.0000     2          
  1022  O     s      7.8377 *   -10.7769 *     4.8986 *  0.0000     2          
  1023  Cl    s    -13.7161 *     2.9392 *     2.9392 *  0.0000     2          
  1024  Cl    s      5.8783 *     2.9392 *   -12.7363 *  0.0000     2          
  1025  Cl    s      5.8783 *   -12.7363 *     2.9392 *  0.0000     2          
  1026  O     s    -11.7566 *     4.8986 *    -6.8580 *  0.0000     2          
  1027  O     s    -11.7566 *    -6.8580 *     4.8986 *  0.0000     2          
  1028  O     s      0.0000      12.7363 *    -6.8580 *  0.0000     1          
  1029  O     s      0.0000      -6.8580 *    12.7363 *  0.0000     1          
  1030  O     s      3.9189 *   -10.7769 *     8.8175 *  0.0000     2          
  1031  O     s      3.9189 *     8.8175 *   -10.7769 *  0.0000     2          
  1032  Cl    s    -13.7161 *    -0.9797 *    -4.8986 *  0.0000     2          
  1033  Cl    s    -13.7161 *    -4.8986 *    -0.9797 *  0.0000     2          
  1034  Cl    s      1.9594 *   -12.7363 *     6.8580 *  0.0000     2          
  1035  Cl    s      1.9594 *     6.8580 *   -12.7363 *  0.0000     2          
  1036  Cl    s      9.7972 *    -0.9797 *    10.7769 *  0.0000     2          
  1037  Cl    s      9.7972 *    10.7769 *    -0.9797 *  0.0000     2          
  1038  O     s    -11.7566 *     8.8175 *     0.9797 *  0.0000     2          
  1039  O     s      7.8377 *     8.8175 *     8.8175 *  0.0000     2          
  1040  O     s    -11.7566 *     0.9797 *     8.8175 *  0.0000     2          
  1041  O     s      0.0000       0.9797 *   -14.6958 *  0.0000     1          
  1042  O     s      0.0000     -14.6958 *     0.9797 *  0.0000     1          
  1043  Cl    s    -13.7161 *     2.9392 *    -4.8986 *  0.0000     2          
  1044  Cl    s    -13.7161 *    -4.8986 *     2.9392 *  0.0000     2          
  1045  Cl    s      5.8783 *    -4.8986 *   -12.7363 *  0.0000     2          
  1046  Cl    s      5.8783 *   -12.7363 *    -4.8986 *  0.0000     2          
  1047  Cl    s      9.7972 *     6.8580 *    -8.8175 *  0.0000     2          
  1048  Cl    s      9.7972 *    -8.8175 *     6.8580 *  0.0000     2          
  1049  Cl    s      1.9594 *    -0.9797 *    14.6958 *  0.0000     2          
  1050  Cl    s      1.9594 *    14.6958 *    -0.9797 *  0.0000     2          
  1051  Cl    s      9.7972 *     2.9392 *    10.7769 *  0.0000     2          
  1052  Cl    s      9.7972 *    10.7769 *     2.9392 *  0.0000     2          
  1053  O     s    -11.7566 *     8.8175 *    -2.9392 *  0.0000     2          
  1054  O     s    -11.7566 *    -2.9392 *     8.8175 *  0.0000     2          
  1055  O     s      3.9189 *    12.7363 *    -6.8580 *  0.0000     2          
  1056  O     s      7.8377 *     0.9797 *    12.7363 *  0.0000     2          
  1057  O     s      7.8377 *    12.7363 *     0.9797 *  0.0000     2          
  1058  O     s      3.9189 *    -6.8580 *    12.7363 *  0.0000     2          
  1059  O     s      7.8377 *    -6.8580 *   -10.7769 *  0.0000     2          
  1060  O     s      7.8377 *   -10.7769 *    -6.8580 *  0.0000     2          
  1061  O     s      0.0000      -2.9392 *   -14.6958 *  0.0000     1          
  1062  O     s      0.0000     -14.6958 *    -2.9392 *  0.0000     1          
  1063  Cl    s      1.9594 *     2.9392 *    14.6958 *  0.0000     2          
  1064  Cl    s      1.9594 *    14.6958 *     2.9392 *  0.0000     2          
  1065  Cl    s      5.8783 *    10.7769 *    -8.8175 *  0.0000     2          
  1066  Cl    s      5.8783 *    -8.8175 *    10.7769 *  0.0000     2          
  1067  O     s    -11.7566 *    -6.8580 *    -6.8580 *  0.0000     2          
  1068  O     s      7.8377 *    12.7363 *    -2.9392 *  0.0000     2          
  1069  O     s      7.8377 *    -2.9392 *    12.7363 *  0.0000     2          
  1070  O     s      3.9189 *     0.9797 *   -14.6958 *  0.0000     2          
  1071  O     s      3.9189 *   -14.6958 *     0.9797 *  0.0000     2          
  1072  O     s      0.0000     -10.7769 *   -10.7769 *  0.0000     1          
  1073  Cl    s    -13.7161 *    -0.9797 *     6.8580 *  0.0000     2          
  1074  Cl    s    -13.7161 *     6.8580 *    -0.9797 *  0.0000     2          
  1075  Cl    s    -13.7161 *    -4.8986 *    -4.8986 *  0.0000     2          
  1076  Cl    s      9.7972 *    -4.8986 *    10.7769 *  0.0000     2          
  1077  Cl    s      9.7972 *    10.7769 *    -4.8986 *  0.0000     2          
  1078  Cl    s      1.9594 *    10.7769 *    10.7769 *  0.0000     2          
  1079  O     s    -11.7566 *     8.8175 *     4.8986 *  0.0000     2          
  1080  O     s      0.0000       8.8175 *    12.7363 *  0.0000     1          
  1081  O     s      0.0000      12.7363 *     8.8175 *  0.0000     1          
  1082  O     s    -11.7566 *     4.8986 *     8.8175 *  0.0000     2          
  1083  O     s      0.0000       4.8986 *   -14.6958 *  0.0000     1          
  1084  O     s      0.0000     -14.6958 *     4.8986 *  0.0000     1          
  1085  O     s      3.9189 *    -2.9392 *   -14.6958 *  0.0000     2          
  1086  O     s      3.9189 *   -14.6958 *    -2.9392 *  0.0000     2          
  1087  Cl    s    -13.7161 *     2.9392 *     6.8580 *  0.0000     2          
  1088  Cl    s    -13.7161 *     6.8580 *     2.9392 *  0.0000     2          
  1089  Cl    s      1.9594 *    -8.8175 *   -12.7363 *  0.0000     2          
  1090  Cl    s      1.9594 *   -12.7363 *    -8.8175 *  0.0000     2          
  1091  Cl    s      5.8783 *     6.8580 *   -12.7363 *  0.0000     2          
  1092  Cl    s      5.8783 *   -12.7363 *     6.8580 *  0.0000     2          
  1093  Cl    s      1.9594 *    14.6958 *    -4.8986 *  0.0000     2          
  1094  Cl    s      1.9594 *    -4.8986 *    14.6958 *  0.0000     2          
  1095  O     s      7.8377 *     4.8986 *    12.7363 *  0.0000     2          
  1096  O     s      7.8377 *    12.7363 *     4.8986 *  0.0000     2          
  1097  O     s      3.9189 *   -10.7769 *   -10.7769 *  0.0000     2          
  1098  O     s     15.6755 *     0.9797 *     0.9797 *  0.0000     2          
  1099  Cl    s      9.7972 *    -8.8175 *    -8.8175 *  0.0000     2          
  1100  Cl    s      5.8783 *    -0.9797 *    14.6958 *  0.0000     2          
  1101  Cl    s      5.8783 *    14.6958 *    -0.9797 *  0.0000     2          
  1102  O     s      3.9189 *     8.8175 *    12.7363 *  0.0000     2          
  1103  O     s      3.9189 *    12.7363 *     8.8175 *  0.0000     2          
  1104  O     s      7.8377 *   -10.7769 *     8.8175 *  0.0000     2          
  1105  O     s    -11.7566 *     0.9797 *   -10.7769 *  0.0000     2          
  1106  O     s    -11.7566 *   -10.7769 *     0.9797 *  0.0000     2          
  1107  O     s      3.9189 *     4.8986 *   -14.6958 *  0.0000     2          
  1108  O     s      3.9189 *   -14.6958 *     4.8986 *  0.0000     2          
  1109  O     s      7.8377 *     8.8175 *   -10.7769 *  0.0000     2          
  1110  O     s     15.6755 *     0.9797 *    -2.9392 *  0.0000     2          
  1111  O     s     15.6755 *    -2.9392 *     0.9797 *  0.0000     2          
--------------------------------------------------------------------------------

  Components of defect energy : 

--------------------------------------------------------------------------------
  Region 1 - region 1                   =      7.27922538 eV
  Region 1 - region 2a (unrelaxed)      =      0.00000003 eV
  Region 1 - 2a (relaxed - correction)  =     -0.00790309 eV
  Region 1 (Total)                      =      7.27132233 eV
  Region 2a                             =      0.00395154 eV
  Region 2b                             =      0.00000000 eV
--------------------------------------------------------------------------------
  Total defect energy                   =      7.27527387 eV
--------------------------------------------------------------------------------

  Largest displacement in region 2 =   0.0015 Angstroms


  Number of variables =     3121

  Maximum number of calculations  =        1000
  Maximum Hessian update interval =          10
  Maximum step size               =   1.0000000
  Maximum parameter tolerance     =   0.0000100
  Maximum function  tolerance     =   0.0000100
  Maximum gradient  tolerance     =   0.0010000

  Symmetry adapted optimisation

  Symmetry to be used for second derivatives

  Newton-Raphson optimiser to be used

  BFGS hessian update to be used

  Lower half triangular hessian to be used

  Start of defect optimisation :

  Cycle:      0 Defect Energy:   7.275274  Gnorm:     0.006361  CPU:   26.871
  ** Hessian calculated **
  Cycle:      1 Defect Energy:   5.071741  Gnorm:     0.003338  CPU:   92.480
  Cycle:      2 Defect Energy:   4.454503  Gnorm:     0.003236  CPU:  127.586
  Cycle:      3 Defect Energy:   3.932855  Gnorm:     0.002982  CPU:  169.082
  Cycle:      4 Defect Energy:   3.510561  Gnorm:     0.002701  CPU:  201.496
  Cycle:      5 Defect Energy:   3.012080  Gnorm:     0.002458  CPU:  223.949
  Cycle:      6 Defect Energy:   2.661894  Gnorm:     0.002300  CPU:  240.119
  Cycle:      7 Defect Energy:   2.390706  Gnorm:     0.002135  CPU:  259.814
  Cycle:      8 Defect Energy:   2.205710  Gnorm:     0.001841  CPU:  274.221
  Cycle:      9 Defect Energy:   2.036010  Gnorm:     0.001838  CPU:  291.447
  Cycle:     10 Defect Energy:   1.863782  Gnorm:     0.001686  CPU:  304.558
  ** Hessian calculated **
  Cycle:     11 Defect Energy:   1.247211  Gnorm:     0.001259  CPU:  334.409
  Cycle:     12 Defect Energy:   1.064610  Gnorm:     0.001086  CPU:  337.361
  Cycle:     13 Defect Energy:   0.828235  Gnorm:     0.000817  CPU:  340.299
  Cycle:     14 Defect Energy:   0.663153  Gnorm:     0.000576  CPU:  343.258
  Cycle:     15 Defect Energy:   0.574864  Gnorm:     0.000405  CPU:  346.224
  Cycle:     16 Defect Energy:   0.527710  Gnorm:     0.000285  CPU:  349.179
  Cycle:     17 Defect Energy:   0.502563  Gnorm:     0.000198  CPU:  352.133
