********************************************************************************
*                       GENERAL UTILITY LATTICE PROGRAM                        *
*                                 Julian Gale                                  *
*                       Curtin Institute for Computation                       *
*                    School of Molecular and Life Sciences                     *
*                    Curtin University, Western Australia                      *
********************************************************************************
* Version = 5.2.0 * Last modified =  10th September 2020                       *
********************************************************************************
* Zirconia doped with calcium                                                  *
*  optimise     - perform optimisation run                                     *
*  conp         - constant pressure calculation                                *
*  property     - calculate properties for final geometry                      *
*  defect       - perform defect calculation after bulk run                    *
*  distance     - calculate distances                                          *
*  compare      - compare initial and final structures                         *
********************************************************************************
* Zirconia doped with calcium                                                  *
********************************************************************************


  Job Started  at 11:48.28 14th October    2020                               

  Number of CPUs =     1


  Total number of configurations input =      1

********************************************************************************
*  Input for Configuration =   1 : ZrO2                                        *
********************************************************************************

  Formula = ZrO2                                                        

  Number of irreducible atoms/shells =       4


  Total number atoms/shells =       6

  Dimensionality = 3               :  Bulk   


  Symmetry :

  Crystal family                   :  Cubic       
  Crystal class  (Groth - 1921)    :  Cubic Hexakisoctahedral              

  Space group (centrosymmetric)    :  F M 3 M         

  Patterson group                  :  F m -3 m 

  Cartesian lattice vectors (Angstroms) :

        0.000000    2.535000    2.535000
        2.535000    0.000000    2.535000
        2.535000    2.535000    0.000000

  Primitive cell parameters :            Full cell parameters :

  a =   3.5850    alpha =  60.0000       a =   5.0700    alpha =  90.0000
  b =   3.5850    beta  =  60.0000       b =   5.0700    beta  =  90.0000
  c =   3.5850    gamma =  60.0000       c =   5.0700    gamma =  90.0000

  Initial volumes (Angstroms**3):

  Primitive cell =          32.580961    Full cell =         130.323843

  Temperature of configuration =   0.00     K 

  Pressure of configuration =         0.000 GPa 

  Fractional coordinates of asymmetric unit :

--------------------------------------------------------------------------------
   No.  Atomic       x           y          z         Charge      Occupancy
        Label      (Frac)      (Frac)     (Frac)        (e)         (Frac)  
--------------------------------------------------------------------------------
      1 Zr    c    0.000000    0.000000    0.000000     2.65000    1.000000    
      2 O     c    0.250000    0.250000    0.250000     0.07700    1.000000    
      3 Zr    s    0.000000    0.000000    0.000000     1.35000    1.000000    
      4 O     s    0.250000    0.250000    0.250000    -2.07700    1.000000    
--------------------------------------------------------------------------------


  Constraints : 

--------------------------------------------------------------------------------
  Constraint no.      Unconstrained     Constrained    Coefficient    Offset
                         Variable         Variable
--------------------------------------------------------------------------------
           1              Strain 1        Strain 2       1.00000      0.0000
           2              Strain 1        Strain 3       1.00000      0.0000
--------------------------------------------------------------------------------


  Distance calculation :


  Cutoff for distances  =      4.000000 Angstroms

--------------------------------------------------------------------------------
  Asymmetric unit site  Full lattice sites    No.  Distance      No.  Distance
      No.   At.No.            At.No.                (Angs)             (Angs) 
--------------------------------------------------------------------------------
       1   Zr    core        Zr    core        12    3.5850
                             Zr    shell       12    3.5850
                             O     core         8    2.1954
                             O     shell        8    2.1954
--------------------------------------------------------------------------------
       2   O     core        Zr    core         4    2.1954
                             Zr    shell        4    2.1954
                             O     core         6    2.5350       12    3.5850
                             O     shell        6    2.5350       12    3.5850
--------------------------------------------------------------------------------
       3   Zr    shell       Zr    core        12    3.5850
                             Zr    shell       12    3.5850
                             O     core         8    2.1954
                             O     shell        8    2.1954
--------------------------------------------------------------------------------
       4   O     shell       Zr    core         4    2.1954
                             Zr    shell        4    2.1954
                             O     core         6    2.5350       12    3.5850
                             O     shell        6    2.5350       12    3.5850
--------------------------------------------------------------------------------



********************************************************************************
*  General input information                                                   *
********************************************************************************

  Species output for all configurations : 

--------------------------------------------------------------------------------
  Species    Type    Atomic    Atomic    Charge       Radii (Angs)     Library
                     Number     Mass       (e)     Cova   Ionic  VDW   Symbol
--------------------------------------------------------------------------------
    Zr       Core       40      91.22   2.650000   1.560  0.000  2.330          
    Zr       Shell      40       0.00   1.350000   1.560  0.000  2.330          
    O        Core        8      16.00   0.077000   0.730  0.000  1.360          
    O        Shell       8       0.00  -2.077000   0.730  0.000  1.360          
--------------------------------------------------------------------------------


  Lattice summation method               =    Ewald          (3-D)
                                         =    Parry          (2-D)
                                         =    Saunders et al (1-D)
  Accuracy factor for lattice sums       =   12.000


  Analytic derivatives to be used

  Time limit = Infinity

  Maximum range for interatomic potentials =    100000.000000 Angstroms

  General interatomic potentials :

--------------------------------------------------------------------------------
Atom  Types   Potential      Parameter       Value         Units   Cutoffs(Ang)
  1     2                                                            Min /  Max 
--------------------------------------------------------------------------------
O    s Zr   s Buckingham    Buckingham A     985.86900    eV        0.000 12.000
                            Buckingham rho  0.37600000    Ang       
                            Buckingham C     0.0000000    eV*Ang^6  
--------------------------------------------------------------------------------
O    s O    s Buckingham    Buckingham A     22764.300    eV        0.000 12.000
                            Buckingham rho  0.14900000    Ang       
                            Buckingham C     27.890000    eV*Ang^6  
--------------------------------------------------------------------------------
Zr   c Zr   s Spring (c-s)  Spring k 2       169.61700    eV*Ang^-2 0.000  0.800
                            Spring k 4       0.0000000    eV*Ang^-4 
--------------------------------------------------------------------------------
O    c O    s Spring (c-s)  Spring k 2       27.290000    eV*Ang^-2 0.000  0.800
                            Spring k 4       0.0000000    eV*Ang^-4 
--------------------------------------------------------------------------------

********************************************************************************
*  Output for configuration   1 : ZrO2                                         *
********************************************************************************


  Components of energy : 

--------------------------------------------------------------------------------
  Interatomic potentials     =          22.43756329 eV    
  Monopole - monopole (real) =         -15.67991073 eV    
  Monopole - monopole (recip)=        -116.52038266 eV    
  Monopole - monopole (total)=        -132.20029339 eV    
--------------------------------------------------------------------------------
  Total lattice energy : 
    Primitive unit cell      =        -109.76273010 eV    
    Non-primitive unit cell  =        -439.05092039 eV    
--------------------------------------------------------------------------------
  Total lattice energy (in kJmol-1): 
    Primitive unit cell      =          -10590.4256 kJ/(mole unit cells)
    Non-primitive unit cell  =          -42361.7023 kJ/(mole unit cells)
--------------------------------------------------------------------------------


  Number of variables =        1

  Maximum number of calculations  =          1000
  Maximum Hessian update interval =            10
  Maximum step size               =   1.000000000
  Maximum parameter tolerance     =   0.000010000
  Maximum function  tolerance     =   0.000010000
  Maximum gradient  tolerance     =   0.001000000
  Maximum gradient  component     =   0.010000000

  Symmetry constrained optimisation

  Symmetry used for second derivatives

  Cell parameters to be optimised using strains

  Newton-Raphson optimiser to be used

  BFGS hessian update to be used

  Lower half triangular hessian to be used

  Start of bulk optimisation :

  Cycle:      0 Energy:      -109.762730  Gnorm:      0.588311  CPU:    0.014
  ** Hessian calculated **
  Cycle:      1 Energy:      -109.763059  Gnorm:      0.000316  CPU:    0.021


  **** Optimisation achieved ****


  Final energy =    -109.76305939 eV
  Final Gnorm  =       0.00000099

  Components of energy : 

--------------------------------------------------------------------------------
  Interatomic potentials     =          22.28919976 eV    
  Monopole - monopole (real) =         -15.66235280 eV    
  Monopole - monopole (recip)=        -116.38990634 eV    
  Monopole - monopole (total)=        -132.05225914 eV    
--------------------------------------------------------------------------------
  Total lattice energy : 
    Primitive unit cell      =        -109.76305939 eV    
    Non-primitive unit cell  =        -439.05223754 eV    
--------------------------------------------------------------------------------
  Total lattice energy (in kJmol-1): 
    Primitive unit cell      =          -10590.4573 kJ/(mole unit cells)
    Non-primitive unit cell  =          -42361.8294 kJ/(mole unit cells)
--------------------------------------------------------------------------------

  Final asymmetric unit coordinates :

--------------------------------------------------------------------------------
   No.  Atomic        x           y           z         Radius
        Label       (Frac)      (Frac)      (Frac)       (Angs) 
--------------------------------------------------------------------------------
     1  Zr    c     0.000000    0.000000    0.000000    0.000000
     2  O     c     0.250000    0.250000    0.250000    0.000000
     3  Zr    s     0.000000    0.000000    0.000000    0.000000
     4  O     s     0.250000    0.250000    0.250000    0.000000
--------------------------------------------------------------------------------

  Final Cartesian lattice vectors (Angstroms) :

        0.000000    2.537842    2.537842
        2.537842    0.000000    2.537842
        2.537842    2.537842    0.000000


  Final cell parameters and derivatives :

--------------------------------------------------------------------------------
       a            3.589050 Angstrom     dE/de1(xx)    -0.000001 eV/strain
       b            3.589050 Angstrom     dE/de2(yy)     0.000000 eV/strain
       c            3.589050 Angstrom     dE/de3(zz)     0.000000 eV/strain
       alpha       60.000000 Degrees      dE/de4(yz)     0.000000 eV/strain
       beta        60.000000 Degrees      dE/de5(xz)     0.000000 eV/strain
       gamma       60.000000 Degrees      dE/de6(xy)     0.000000 eV/strain
--------------------------------------------------------------------------------

  Primitive cell volume =            32.690656 Angs**3

  Density of cell =      6.259124 g/cm**3

  Non-primitive lattice parameters :

  a    =     5.075684  b   =     5.075684  c    =     5.075684
  alpha=    90.000000  beta=    90.000000  gamma=    90.000000

  Non-primitive cell volume =           130.762624 Angs**3


  Final internal derivatives :

--------------------------------------------------------------------------------
   No.  Atomic          a             b             c           Radius
        Label          (eV)          (eV)          (eV)        (eV/Angs)
--------------------------------------------------------------------------------
      1 Zr    c       0.000000      0.000000      0.000000      0.000000
      2 O     c       0.000000      0.000000      0.000000      0.000000
      3 Zr    s       0.000000      0.000000      0.000000      0.000000
      4 O     s       0.000000      0.000000      0.000000      0.000000
--------------------------------------------------------------------------------
  Maximum abs         0.000000      0.000000      0.000000      0.000000
--------------------------------------------------------------------------------

  Comparison of initial and final structures : 

--------------------------------------------------------------------------------
  Parameter   Initial value   Final value   Difference    Units      Percent
--------------------------------------------------------------------------------
    Volume       130.323843    130.762624     0.438781    Angs**3      0.34
    a              5.070000      5.075684     0.005684    Angstroms    0.11
    b              5.070000      5.075684     0.005684    Angstroms    0.11
    c              5.070000      5.075684     0.005684    Angstroms    0.11
    alpha         90.000000     90.000000     0.000000    Degrees      0.00
    beta          90.000000     90.000000     0.000000    Degrees      0.00
    gamma         90.000000     90.000000     0.000000    Degrees      0.00
      1 x          0.000000      0.000000     0.000000    Fractional   0.00
      1 y          0.000000      0.000000     0.000000    Fractional   0.00
      1 z          0.000000      0.000000     0.000000    Fractional   0.00
      2 x          0.250000      0.250000     0.000000    Fractional   0.00
      2 y          0.250000      0.250000     0.000000    Fractional   0.00
      2 z          0.250000      0.250000     0.000000    Fractional   0.00
      3 x          0.000000      0.000000     0.000000    Fractional   0.00
      3 y          0.000000      0.000000     0.000000    Fractional   0.00
      3 z          0.000000      0.000000     0.000000    Fractional   0.00
      4 x          0.250000      0.250000     0.000000    Fractional   0.00
      4 y          0.250000      0.250000     0.000000    Fractional   0.00
      4 z          0.250000      0.250000     0.000000    Fractional   0.00
--------------------------------------------------------------------------------


  Distance calculation :


  Cutoff for distances  =      4.000000 Angstroms

--------------------------------------------------------------------------------
  Asymmetric unit site  Full lattice sites    No.  Distance      No.  Distance
      No.   At.No.            At.No.                (Angs)             (Angs) 
--------------------------------------------------------------------------------
       1   Zr    core        Zr    core        12    3.5891
                             Zr    shell       12    3.5891
                             O     core         8    2.1978
                             O     shell        8    2.1978
--------------------------------------------------------------------------------
       2   O     core        Zr    core         4    2.1978
                             Zr    shell        4    2.1978
                             O     core         6    2.5378       12    3.5891
                             O     shell        6    2.5378       12    3.5891
--------------------------------------------------------------------------------
       3   Zr    shell       Zr    core        12    3.5891
                             Zr    shell       12    3.5891
                             O     core         8    2.1978
                             O     shell        8    2.1978
--------------------------------------------------------------------------------
       4   O     shell       Zr    core         4    2.1978
                             Zr    shell        4    2.1978
                             O     core         6    2.5378       12    3.5891
                             O     shell        6    2.5378       12    3.5891
--------------------------------------------------------------------------------



  Born effective charge tensors : 

-------------------------------------------------------------------------------
  Atom             x           y             z
-------------------------------------------------------------------------------
    1 Zr    x       3.6770      0.0000      0.0000
            y       0.0000      3.6770      0.0000
            z       0.0000      0.0000      3.6770
-------------------------------------------------------------------------------
    2 O     x      -1.8385      0.0000      0.0000
            y       0.0000     -1.8385     -0.0000
            z       0.0000     -0.0000     -1.8385
-------------------------------------------------------------------------------




  Elastic Constant Matrix: (Units=GPa)

-------------------------------------------------------------------------------
  Indices      1         2         3         4         5         6    
-------------------------------------------------------------------------------
       1    616.2933  119.6612  119.6612   -0.0000   -0.0000   -0.0000
       2    119.6612  616.2933  119.6612   -0.0000   -0.0000   -0.0000
       3    119.6612  119.6612  616.2933   -0.0000   -0.0000   -0.0000
       4     -0.0000   -0.0000   -0.0000  100.8598    0.0000   -0.0000
       5     -0.0000   -0.0000   -0.0000    0.0000  100.8598    0.0000
       6     -0.0000   -0.0000   -0.0000   -0.0000    0.0000  100.8598
-------------------------------------------------------------------------------


  Elastic Compliance Matrix: (Units=1/GPa)

-------------------------------------------------------------------------------
  Indices      1         2         3         4         5         6    
-------------------------------------------------------------------------------
       1    0.001732 -0.000282 -0.000282  0.000000  0.000000  0.000000
       2   -0.000282  0.001732 -0.000282 -0.000000  0.000000  0.000000
       3   -0.000282 -0.000282  0.001732  0.000000  0.000000  0.000000
       4    0.000000 -0.000000  0.000000  0.009915 -0.000000  0.000000
       5    0.000000  0.000000  0.000000 -0.000000  0.009915 -0.000000
       6    0.000000  0.000000  0.000000  0.000000 -0.000000  0.009915
-------------------------------------------------------------------------------

  Mechanical properties :

-------------------------------------------------------------------------------
  Convention :                    Reuss         Voigt         Hill
-------------------------------------------------------------------------------
  Bulk  Modulus (GPa)     =     285.20524     285.20524     285.20524
  Shear Modulus (GPa)     =     132.28031     159.84228     146.06129
-------------------------------------------------------------------------------
  Velocity S-wave (km/s)  =       4.59717       5.05346       4.83071
  Velocity P-wave (km/s)  =       8.58749       8.92280       8.75675
-------------------------------------------------------------------------------
  Compressibility (1/GPa) =    0.00350625
-------------------------------------------------------------------------------
  Stress axis :                     x             y             z
-------------------------------------------------------------------------------
  Youngs Moduli (GPa)     =     577.38110     577.38110     577.38110
-------------------------------------------------------------------------------
  Poissons Ratio (x)      =                     0.16259       0.16259
  Poissons Ratio (y)      =       0.16259                     0.16259
  Poissons Ratio (z)      =       0.16259       0.16259
-------------------------------------------------------------------------------


  Piezoelectric Strain Matrix: (Units=C/m**2)

-------------------------------------------------------------------------------
  Indices      1         2         3         4         5         6    
-------------------------------------------------------------------------------
       x    -0.00000   0.00000   0.00000   0.00000   0.00000   0.00000
       y    -0.00000  -0.00000  -0.00000   0.00000   0.00000   0.00000
       z    -0.00000  -0.00000  -0.00000   0.00000   0.00000   0.00000
-------------------------------------------------------------------------------


  Piezoelectric Stress Matrix: (Units=10**-11 C/N)

-------------------------------------------------------------------------------
  Indices      1         2         3         4         5         6    
-------------------------------------------------------------------------------
       x    -0.00000   0.00000   0.00000   0.00000   0.00000   0.00000
       y    -0.00000  -0.00000  -0.00000   0.00000   0.00000   0.00000
       z     0.00000   0.00000  -0.00000   0.00000   0.00000   0.00000
-------------------------------------------------------------------------------


  Static dielectric constant tensor : 

-------------------------------------------------------------------------------
              x         y         z
-------------------------------------------------------------------------------
       x    26.88485   0.00000   0.00000
       y     0.00000  26.88485   0.00000
       z     0.00000   0.00000  26.88485
--------------------------------------------------------------------------------

  High frequency dielectric constant tensor : 

-------------------------------------------------------------------------------
              x         y         z
-------------------------------------------------------------------------------
       x     2.63099   0.00000   0.00000
       y     0.00000   2.63099   0.00000
       z     0.00000   0.00000   2.63099
-------------------------------------------------------------------------------

  Static refractive indices : 

-------------------------------------------------------------------------------
    1 =    5.18506      2 =    5.18506      3 =    5.18506
-------------------------------------------------------------------------------

  High frequency refractive indices : 

-------------------------------------------------------------------------------
    1 =    1.62203      2 =    1.62203      3 =    1.62203
-------------------------------------------------------------------------------


  Time to end of optimisation =       0.0311 seconds

********************************************************************************
*  Defect calculation for configuration   1 :                                  *
********************************************************************************

  Total number of defects =      3

  Total charge on defect  =   2.00

  Defect centre is at   0.2500   0.2500   0.2500  Frac

  Region 1 radius =  12.0000      Number of ions =   1352

  Number of symmetry inequivalent region 1 ions  =    416

  Region 2 radius =  24.0000      Number of ions =   9340

  Number of symmetry inequivalent region 2a ions =   2566

  Region 2a mode = 4 : screened electrostatics due to region 1 
                       neglect correction to region 1 forces from 2a
                       region 2a displacements based on defects only

  Region 2a ions will only interact with defects in region 1

  Vacancies:

--------------------------------------------------------------------------------
    Specification type     Symbol/Number         x          y          z
--------------------------------------------------------------------------------
    Fractional                               0.250000   0.250000   0.250000
    Fractional                               0.750000   0.250000   0.250000
--------------------------------------------------------------------------------

  Interstitials:

--------------------------------------------------------------------------------
    Specification type     Symbol/Number         x          y          z
--------------------------------------------------------------------------------
    Atom/Fractional         O                0.250000   0.250000   0.250000
--------------------------------------------------------------------------------


  Symmetry reduced region 1 (Relative to defect centre) :

--------------------------------------------------------------------------------
   No.   Atomic       x            y             z       Radius  Multiplicity   
         Label      (Angs)       (Angs)        (Angs)    (Angs)     
--------------------------------------------------------------------------------
     1  O     c      0.0000       0.0000       0.0000    0.0000     1          
     2  Zr    c      1.2689 *    -1.2689 *     1.2689    0.0000     2          
     3  Zr    c     -1.2689 *     1.2689 *     1.2689    0.0000     2          
     4  O     c     -0.0000 *     2.5378 *    -0.0000 *  0.0000     4          
     5  O     c      2.5378 *    -0.0000      -0.0000    0.0000     1          
     6  O     c      2.5378 *     2.5378 *     0.0000 *  0.0000     4          
     7  O     c      0.0000 *     2.5378 *     2.5378    0.0000     2          
     8  O     c      0.0000 *    -2.5378 *     2.5378    0.0000     2          
     9  O     c     -2.5378 *     0.0000 *     2.5378 *  0.0000     4          
    10  Zr    c      1.2689 *     1.2689 *     3.8068 *  0.0000     4          
    11  Zr    c     -3.8068 *     1.2689 *    -1.2689    0.0000     2          
    12  Zr    c      3.8068 *     1.2689 *     1.2689    0.0000     2          
    13  Zr    c     -1.2689 *    -3.8068 *     1.2689 *  0.0000     4          
    14  O     c      2.5378 *     2.5378 *     2.5378    0.0000     2          
    15  O     c     -2.5378 *     2.5378 *     2.5378    0.0000     2          
    16  O     c      2.5378 *     2.5378 *    -2.5378    0.0000     2          
    17  O     c     -2.5378 *    -2.5378 *     2.5378    0.0000     2          
    18  O     c      0.0000 *     0.0000 *     5.0757 *  0.0000     4          
    19  O     c     -5.0757 *     0.0000       0.0000    0.0000     1          
    20  O     c      5.0757 *     0.0000       0.0000    0.0000     1          
    21  Zr    c      3.8068 *    -1.2689 *     3.8068 *  0.0000     4          
    22  Zr    c     -1.2689 *     3.8068 *     3.8068    0.0000     2          
    23  Zr    c     -3.8068 *     3.8068 *     1.2689 *  0.0000     4          
    24  Zr    c      1.2689 *    -3.8068 *     3.8068    0.0000     2          
    25  O     c      2.5378 *     5.0757 *    -0.0000 *  0.0000     4          
    26  O     c     -0.0000 *     5.0757 *     2.5378 *  0.0000     4          
    27  O     c      5.0757 *     2.5378 *    -0.0000 *  0.0000     4          
    28  O     c     -0.0000 *    -2.5378 *     5.0757 *  0.0000     4          
    29  O     c     -2.5378 *    -0.0000 *     5.0757 *  0.0000     4          
    30  O     c     -5.0757 *    -0.0000 *     2.5378 *  0.0000     4          
    31  O     c      5.0757 *     2.5378 *     2.5378    0.0000     2          
    32  O     c     -2.5378 *    -5.0757 *     2.5378 *  0.0000     4          
    33  O     c      2.5378 *    -2.5378 *     5.0757 *  0.0000     4          
    34  O     c     -5.0757 *    -2.5378 *    -2.5378    0.0000     2          
    35  O     c      2.5378 *     5.0757 *     2.5378 *  0.0000     4          
    36  O     c     -5.0757 *    -2.5378 *     2.5378    0.0000     2          
    37  O     c     -2.5378 *     2.5378 *     5.0757 *  0.0000     4          
    38  O     c      5.0757 *     2.5378 *    -2.5378    0.0000     2          
    39  Zr    c     -6.3446 *     1.2689 *     1.2689    0.0000     2          
    40  Zr    c      3.8068 *     3.8068 *     3.8068    0.0000     2          
    41  Zr    c      1.2689 *    -1.2689 *     6.3446 *  0.0000     4          
    42  Zr    c     -3.8068 *     3.8068 *    -3.8068    0.0000     2          
    43  Zr    c     -1.2689 *     1.2689 *     6.3446 *  0.0000     4          
    44  Zr    c      6.3446 *     1.2689 *    -1.2689    0.0000     2          
    45  O     c      5.0757 *     5.0757 *     0.0000 *  0.0000     4          
    46  O     c     -5.0757 *    -5.0757 *     0.0000 *  0.0000     4          
    47  O     c      0.0000 *    -5.0757 *     5.0757    0.0000     2          
    48  O     c      0.0000 *     5.0757 *     5.0757    0.0000     2          
    49  Zr    c      3.8068 *    -6.3446 *    -1.2689 *  0.0000     4          
    50  Zr    c     -3.8068 *     1.2689 *    -6.3446 *  0.0000     4          
    51  Zr    c     -1.2689 *     3.8068 *    -6.3446 *  0.0000     4          
    52  Zr    c     -6.3446 *     1.2689 *    -3.8068 *  0.0000     4          
    53  Zr    c      1.2689 *     3.8068 *     6.3446 *  0.0000     4          
    54  Zr    c      6.3446 *    -3.8068 *    -1.2689 *  0.0000     4          
    55  O     c      5.0757 *     5.0757 *     2.5378 *  0.0000     4          
    56  O     c      2.5378 *     5.0757 *     5.0757    0.0000     2          
    57  O     c     -0.0000 *    -0.0000 *     7.6135 *  0.0000     4          
    58  O     c     -2.5378 *     5.0757 *     5.0757    0.0000     2          
    59  O     c     -5.0757 *     5.0757 *     2.5378 *  0.0000     4          
    60  O     c      5.0757 *     5.0757 *    -2.5378 *  0.0000     4          
    61  O     c      7.6135 *    -0.0000      -0.0000    0.0000     1          
    62  O     c      2.5378 *    -5.0757 *     5.0757    0.0000     2          
    63  O     c     -2.5378 *    -5.0757 *     5.0757    0.0000     2          
    64  O     c     -5.0757 *    -2.5378 *     5.0757 *  0.0000     4          
    65  O     c     -7.6135 *    -0.0000      -0.0000    0.0000     1          
    66  O     c      2.5378 *     0.0000 *     7.6135 *  0.0000     4          
    67  O     c      0.0000 *     2.5378 *     7.6135 *  0.0000     4          
    68  O     c     -7.6135 *     0.0000 *     2.5378 *  0.0000     4          
    69  O     c      7.6135 *     2.5378 *     0.0000 *  0.0000     4          
    70  O     c      0.0000 *    -7.6135 *     2.5378 *  0.0000     4          
    71  O     c     -2.5378 *     0.0000 *     7.6135 *  0.0000     4          
    72  Zr    c      3.8068 *    -3.8068 *     6.3446 *  0.0000     4          
    73  Zr    c     -6.3446 *    -3.8068 *    -3.8068    0.0000     2          
    74  Zr    c     -3.8068 *     3.8068 *     6.3446 *  0.0000     4          
    75  Zr    c      6.3446 *     3.8068 *    -3.8068    0.0000     2          
    76  O     c      2.5378 *     7.6135 *    -2.5378 *  0.0000     4          
    77  O     c      2.5378 *     7.6135 *     2.5378 *  0.0000     4          
    78  O     c      7.6135 *     2.5378 *     2.5378    0.0000     2          
    79  O     c      7.6135 *     2.5378 *    -2.5378    0.0000     2          
    80  O     c     -2.5378 *    -2.5378 *     7.6135 *  0.0000     4          
    81  O     c     -2.5378 *     2.5378 *     7.6135 *  0.0000     4          
    82  O     c     -7.6135 *     2.5378 *    -2.5378    0.0000     2          
    83  O     c     -7.6135 *     2.5378 *     2.5378    0.0000     2          
    84  O     c     -5.0757 *     5.0757 *     5.0757    0.0000     2          
    85  O     c      5.0757 *    -5.0757 *    -5.0757    0.0000     2          
    86  O     c     -5.0757 *     5.0757 *    -5.0757    0.0000     2          
    87  O     c      5.0757 *    -5.0757 *     5.0757    0.0000     2          
    88  Zr    c      6.3446 *     6.3446 *    -1.2689 *  0.0000     4          
    89  Zr    c     -6.3446 *    -6.3446 *    -1.2689 *  0.0000     4          
    90  Zr    c      1.2689 *    -6.3446 *     6.3446    0.0000     2          
    91  Zr    c     -1.2689 *     6.3446 *     6.3446    0.0000     2          
    92  Zr    c      1.2689 *     1.2689 *     8.8824 *  0.0000     4          
    93  Zr    c     -8.8824 *    -1.2689 *     1.2689    0.0000     2          
    94  Zr    c     -1.2689 *     8.8824 *    -1.2689 *  0.0000     4          
    95  Zr    c      8.8824 *     1.2689 *     1.2689    0.0000     2          
    96  O     c      5.0757 *     7.6135 *    -0.0000 *  0.0000     4          
    97  O     c     -0.0000 *     7.6135 *     5.0757 *  0.0000     4          
    98  O     c      7.6135 *     5.0757 *    -0.0000 *  0.0000     4          
    99  O     c     -0.0000 *    -5.0757 *     7.6135 *  0.0000     4          
   100  O     c     -5.0757 *    -0.0000 *     7.6135 *  0.0000     4          
   101  O     c     -7.6135 *    -0.0000 *     5.0757 *  0.0000     4          
   102  O     c      7.6135 *     2.5378 *     5.0757 *  0.0000     4          
   103  O     c      5.0757 *    -2.5378 *     7.6135 *  0.0000     4          
   104  O     c      2.5378 *    -5.0757 *     7.6135 *  0.0000     4          
   105  O     c     -5.0757 *     2.5378 *    -7.6135 *  0.0000     4          
   106  O     c     -7.6135 *     2.5378 *    -5.0757 *  0.0000     4          
   107  O     c     -2.5378 *     7.6135 *    -5.0757 *  0.0000     4          
   108  O     c      2.5378 *     7.6135 *     5.0757 *  0.0000     4          
   109  O     c     -2.5378 *     5.0757 *     7.6135 *  0.0000     4          
   110  O     c     -5.0757 *     2.5378 *     7.6135 *  0.0000     4          
   111  O     c     -7.6135 *     2.5378 *     5.0757 *  0.0000     4          
   112  O     c      7.6135 *     2.5378 *    -5.0757 *  0.0000     4          
   113  O     c      5.0757 *     7.6135 *     2.5378 *  0.0000     4          
   114  Zr    c      6.3446 *     6.3446 *     3.8068 *  0.0000     4          
   115  Zr    c     -6.3446 *     3.8068 *    -6.3446 *  0.0000     4          
   116  Zr    c     -3.8068 *     6.3446 *    -6.3446    0.0000     2          
   117  Zr    c      3.8068 *     6.3446 *     6.3446    0.0000     2          
   118  Zr    c      3.8068 *    -1.2689 *     8.8824 *  0.0000     4          
   119  Zr    c      1.2689 *     8.8824 *    -3.8068 *  0.0000     4          
   120  Zr    c     -8.8824 *    -1.2689 *    -3.8068 *  0.0000     4          
   121  Zr    c     -1.2689 *     3.8068 *     8.8824 *  0.0000     4          
   122  Zr    c     -3.8068 *     8.8824 *     1.2689 *  0.0000     4          
   123  Zr    c      8.8824 *     3.8068 *    -1.2689 *  0.0000     4          
   124  O     c      0.0000 *     0.0000 *    10.1514 *  0.0000     4          
   125  O     c    -10.1514 *     0.0000       0.0000    0.0000     1          
   126  O     c     10.1514 *     0.0000       0.0000    0.0000     1          
   127  Zr    c      8.8824 *     3.8068 *     3.8068    0.0000     2          
   128  Zr    c      3.8068 *     8.8824 *     3.8068 *  0.0000     4          
   129  Zr    c     -3.8068 *    -8.8824 *     3.8068 *  0.0000     4          
   130  Zr    c     -8.8824 *    -3.8068 *     3.8068    0.0000     2          
   131  O     c      7.6135 *     5.0757 *     5.0757    0.0000     2          
   132  O     c      5.0757 *     7.6135 *     5.0757 *  0.0000     4          
   133  O     c     -5.0757 *     5.0757 *     7.6135 *  0.0000     4          
   134  O     c      5.0757 *    -5.0757 *     7.6135 *  0.0000     4          
   135  O     c      2.5378 *    -0.0000 *    10.1514 *  0.0000     4          
   136  O     c     -0.0000 *    -2.5378 *    10.1514 *  0.0000     4          
   137  O     c     -0.0000 *     2.5378 *    10.1514 *  0.0000     4          
   138  O     c     -2.5378 *    -0.0000 *    10.1514 *  0.0000     4          
   139  O     c      7.6135 *     5.0757 *    -5.0757    0.0000     2          
   140  O     c     10.1514 *     2.5378 *    -0.0000 *  0.0000     4          
   141  O     c     -5.0757 *     5.0757 *    -7.6135 *  0.0000     4          
   142  O     c     -7.6135 *     5.0757 *     5.0757    0.0000     2          
   143  O     c     -7.6135 *    -5.0757 *     5.0757    0.0000     2          
   144  O     c    -10.1514 *    -2.5378 *    -0.0000 *  0.0000     4          
   145  O     c      7.6135 *     7.6135 *     0.0000 *  0.0000     4          
   146  O     c     -7.6135 *    -7.6135 *     0.0000 *  0.0000     4          
   147  O     c     -0.0000 *    -7.6135 *     7.6135    0.0000     2          
   148  O     c      0.0000 *     7.6135 *     7.6135    0.0000     2          
   149  O     c      2.5378 *    -2.5378 *    10.1514 *  0.0000     4          
   150  O     c    -10.1514 *    -2.5378 *    -2.5378    0.0000     2          
   151  O     c      2.5378 *     2.5378 *    10.1514 *  0.0000     4          
   152  O     c     -2.5378 *    -2.5378 *    10.1514 *  0.0000     4          
   153  O     c    -10.1514 *    -2.5378 *     2.5378    0.0000     2          
   154  O     c     -2.5378 *     2.5378 *    10.1514 *  0.0000     4          
   155  O     c     10.1514 *     2.5378 *     2.5378    0.0000     2          
   156  O     c     10.1514 *     2.5378 *    -2.5378    0.0000     2          
   157  Zr    c     -6.3446 *     6.3446 *     6.3446    0.0000     2          
   158  Zr    c      6.3446 *     6.3446 *    -6.3446    0.0000     2          
   159  Zr    c      8.8824 *     6.3446 *     1.2689 *  0.0000     4          
   160  Zr    c      6.3446 *     8.8824 *     1.2689 *  0.0000     4          
   161  Zr    c     -6.3446 *     8.8824 *    -1.2689 *  0.0000     4          
   162  Zr    c     -8.8824 *     6.3446 *    -1.2689 *  0.0000     4          
   163  Zr    c     -1.2689 *    -8.8824 *     6.3446 *  0.0000     4          
   164  Zr    c      1.2689 *     8.8824 *     6.3446 *  0.0000     4          
   165  O     c      7.6135 *     7.6135 *     2.5378 *  0.0000     4          
   166  O     c      2.5378 *     7.6135 *     7.6135    0.0000     2          
   167  O     c     -2.5378 *     7.6135 *     7.6135    0.0000     2          
   168  O     c      7.6135 *     7.6135 *    -2.5378 *  0.0000     4          
   169  O     c     -2.5378 *    -7.6135 *     7.6135    0.0000     2          
   170  O     c     -7.6135 *    -2.5378 *     7.6135 *  0.0000     4          
   171  O     c     -7.6135 *     2.5378 *     7.6135 *  0.0000     4          
   172  O     c      2.5378 *    -7.6135 *     7.6135    0.0000     2          
   173  O     c      5.0757 *     0.0000 *    10.1514 *  0.0000     4          
   174  O     c     -0.0000 *    -5.0757 *    10.1514 *  0.0000     4          
   175  O     c    -10.1514 *    -5.0757 *     0.0000 *  0.0000     4          
   176  O     c      0.0000 *     5.0757 *    10.1514 *  0.0000     4          
   177  O     c     -5.0757 *    -0.0000 *    10.1514 *  0.0000     4          
   178  O     c     10.1514 *     5.0757 *     0.0000 *  0.0000     4          
   179  Zr    c      6.3446 *    -3.8068 *     8.8824 *  0.0000     4          
   180  Zr    c      3.8068 *    -6.3446 *     8.8824 *  0.0000     4          
   181  Zr    c     -8.8824 *    -6.3446 *    -3.8068 *  0.0000     4          
   182  Zr    c      1.2689 *    -1.2689 *    11.4203 *  0.0000     4          
   183  Zr    c     -1.2689 *     1.2689 *    11.4203 *  0.0000     4          
   184  Zr    c     -3.8068 *     6.3446 *     8.8824 *  0.0000     4          
   185  Zr    c     -6.3446 *     3.8068 *     8.8824 *  0.0000     4          
   186  Zr    c      8.8824 *     6.3446 *    -3.8068 *  0.0000     4          
   187  Zr    c    -11.4203 *    -1.2689 *    -1.2689    0.0000     2          
   188  Zr    c     11.4203 *     1.2689 *    -1.2689    0.0000     2          
   189  O     c      5.0757 *    -2.5378 *    10.1514 *  0.0000     4          
   190  O     c      2.5378 *    -5.0757 *    10.1514 *  0.0000     4          
   191  O     c      5.0757 *    10.1514 *     2.5378 *  0.0000     4          
   192  O     c     -2.5378 *    -5.0757 *    10.1514 *  0.0000     4          
   193  O     c      2.5378 *    10.1514 *     5.0757 *  0.0000     4          
   194  O     c     -5.0757 *    -2.5378 *    10.1514 *  0.0000     4          
   195  O     c     -2.5378 *     5.0757 *    10.1514 *  0.0000     4          
   196  O     c     -5.0757 *     2.5378 *    10.1514 *  0.0000     4          
   197  O     c    -10.1514 *     5.0757 *     2.5378 *  0.0000     4          
   198  O     c     10.1514 *     5.0757 *     2.5378 *  0.0000     4          
   199  O     c     10.1514 *     5.0757 *    -2.5378 *  0.0000     4          
   200  O     c    -10.1514 *    -2.5378 *     5.0757 *  0.0000     4          
   201  O     c      7.6135 *     7.6135 *     5.0757 *  0.0000     4          
   202  O     c     -7.6135 *    -7.6135 *     5.0757 *  0.0000     4          
   203  O     c     -5.0757 *    -7.6135 *     7.6135    0.0000     2          
   204  O     c      5.0757 *     7.6135 *     7.6135    0.0000     2          
   205  O     c     -5.0757 *     7.6135 *     7.6135    0.0000     2          
   206  O     c     -7.6135 *     5.0757 *     7.6135 *  0.0000     4          
   207  O     c      7.6135 *    -5.0757 *     7.6135 *  0.0000     4          
   208  O     c      5.0757 *    -7.6135 *     7.6135    0.0000     2          
   209  O     s      0.0000       0.0000       0.0000    0.0000     1          
   210  Zr    s      1.2689 *    -1.2689 *     1.2689    0.0000     2          
   211  Zr    s     -1.2689 *     1.2689 *     1.2689    0.0000     2          
   212  O     s     -0.0000 *     2.5378 *    -0.0000 *  0.0000     4          
   213  O     s      2.5378 *    -0.0000      -0.0000    0.0000     1          
   214  O     s      2.5378 *     2.5378 *     0.0000 *  0.0000     4          
   215  O     s      0.0000 *     2.5378 *     2.5378    0.0000     2          
   216  O     s      0.0000 *    -2.5378 *     2.5378    0.0000     2          
   217  O     s     -2.5378 *     0.0000 *     2.5378 *  0.0000     4          
   218  Zr    s      1.2689 *     1.2689 *     3.8068 *  0.0000     4          
   219  Zr    s     -3.8068 *     1.2689 *    -1.2689    0.0000     2          
   220  Zr    s      3.8068 *     1.2689 *     1.2689    0.0000     2          
   221  Zr    s     -1.2689 *    -3.8068 *     1.2689 *  0.0000     4          
   222  O     s      2.5378 *     2.5378 *     2.5378    0.0000     2          
   223  O     s     -2.5378 *     2.5378 *     2.5378    0.0000     2          
   224  O     s      2.5378 *     2.5378 *    -2.5378    0.0000     2          
   225  O     s     -2.5378 *    -2.5378 *     2.5378    0.0000     2          
   226  O     s      0.0000 *     0.0000 *     5.0757 *  0.0000     4          
   227  O     s     -5.0757 *     0.0000       0.0000    0.0000     1          
   228  O     s      5.0757 *     0.0000       0.0000    0.0000     1          
   229  Zr    s      3.8068 *    -1.2689 *     3.8068 *  0.0000     4          
   230  Zr    s     -1.2689 *     3.8068 *     3.8068    0.0000     2          
   231  Zr    s     -3.8068 *     3.8068 *     1.2689 *  0.0000     4          
   232  Zr    s      1.2689 *    -3.8068 *     3.8068    0.0000     2          
   233  O     s      2.5378 *     5.0757 *    -0.0000 *  0.0000     4          
   234  O     s     -0.0000 *     5.0757 *     2.5378 *  0.0000     4          
   235  O     s      5.0757 *     2.5378 *    -0.0000 *  0.0000     4          
   236  O     s     -0.0000 *    -2.5378 *     5.0757 *  0.0000     4          
   237  O     s     -2.5378 *    -0.0000 *     5.0757 *  0.0000     4          
   238  O     s     -5.0757 *    -0.0000 *     2.5378 *  0.0000     4          
   239  O     s      5.0757 *     2.5378 *     2.5378    0.0000     2          
   240  O     s     -2.5378 *    -5.0757 *     2.5378 *  0.0000     4          
   241  O     s      2.5378 *    -2.5378 *     5.0757 *  0.0000     4          
   242  O     s     -5.0757 *    -2.5378 *    -2.5378    0.0000     2          
   243  O     s      2.5378 *     5.0757 *     2.5378 *  0.0000     4          
   244  O     s     -5.0757 *    -2.5378 *     2.5378    0.0000     2          
   245  O     s     -2.5378 *     2.5378 *     5.0757 *  0.0000     4          
   246  O     s      5.0757 *     2.5378 *    -2.5378    0.0000     2          
   247  Zr    s     -6.3446 *     1.2689 *     1.2689    0.0000     2          
   248  Zr    s      3.8068 *     3.8068 *     3.8068    0.0000     2          
   249  Zr    s      1.2689 *    -1.2689 *     6.3446 *  0.0000     4          
   250  Zr    s     -3.8068 *     3.8068 *    -3.8068    0.0000     2          
   251  Zr    s     -1.2689 *     1.2689 *     6.3446 *  0.0000     4          
   252  Zr    s      6.3446 *     1.2689 *    -1.2689    0.0000     2          
   253  O     s      5.0757 *     5.0757 *     0.0000 *  0.0000     4          
   254  O     s     -5.0757 *    -5.0757 *     0.0000 *  0.0000     4          
   255  O     s      0.0000 *    -5.0757 *     5.0757    0.0000     2          
   256  O     s      0.0000 *     5.0757 *     5.0757    0.0000     2          
   257  Zr    s      3.8068 *    -6.3446 *    -1.2689 *  0.0000     4          
   258  Zr    s     -3.8068 *     1.2689 *    -6.3446 *  0.0000     4          
   259  Zr    s     -1.2689 *     3.8068 *    -6.3446 *  0.0000     4          
   260  Zr    s     -6.3446 *     1.2689 *    -3.8068 *  0.0000     4          
   261  Zr    s      1.2689 *     3.8068 *     6.3446 *  0.0000     4          
   262  Zr    s      6.3446 *    -3.8068 *    -1.2689 *  0.0000     4          
   263  O     s      5.0757 *     5.0757 *     2.5378 *  0.0000     4          
   264  O     s      2.5378 *     5.0757 *     5.0757    0.0000     2          
   265  O     s     -0.0000 *    -0.0000 *     7.6135 *  0.0000     4          
   266  O     s     -2.5378 *     5.0757 *     5.0757    0.0000     2          
   267  O     s     -5.0757 *     5.0757 *     2.5378 *  0.0000     4          
   268  O     s      5.0757 *     5.0757 *    -2.5378 *  0.0000     4          
   269  O     s      7.6135 *    -0.0000      -0.0000    0.0000     1          
   270  O     s      2.5378 *    -5.0757 *     5.0757    0.0000     2          
   271  O     s     -2.5378 *    -5.0757 *     5.0757    0.0000     2          
   272  O     s     -5.0757 *    -2.5378 *     5.0757 *  0.0000     4          
   273  O     s     -7.6135 *    -0.0000      -0.0000    0.0000     1          
   274  O     s      2.5378 *     0.0000 *     7.6135 *  0.0000     4          
   275  O     s      0.0000 *     2.5378 *     7.6135 *  0.0000     4          
   276  O     s     -7.6135 *     0.0000 *     2.5378 *  0.0000     4          
   277  O     s      7.6135 *     2.5378 *     0.0000 *  0.0000     4          
   278  O     s      0.0000 *    -7.6135 *     2.5378 *  0.0000     4          
   279  O     s     -2.5378 *     0.0000 *     7.6135 *  0.0000     4          
   280  Zr    s      3.8068 *    -3.8068 *     6.3446 *  0.0000     4          
   281  Zr    s     -6.3446 *    -3.8068 *    -3.8068    0.0000     2          
   282  Zr    s     -3.8068 *     3.8068 *     6.3446 *  0.0000     4          
   283  Zr    s      6.3446 *     3.8068 *    -3.8068    0.0000     2          
   284  O     s      2.5378 *     7.6135 *    -2.5378 *  0.0000     4          
   285  O     s      2.5378 *     7.6135 *     2.5378 *  0.0000     4          
   286  O     s      7.6135 *     2.5378 *     2.5378    0.0000     2          
   287  O     s      7.6135 *     2.5378 *    -2.5378    0.0000     2          
   288  O     s     -2.5378 *    -2.5378 *     7.6135 *  0.0000     4          
   289  O     s     -2.5378 *     2.5378 *     7.6135 *  0.0000     4          
   290  O     s     -7.6135 *     2.5378 *    -2.5378    0.0000     2          
   291  O     s     -7.6135 *     2.5378 *     2.5378    0.0000     2          
   292  O     s     -5.0757 *     5.0757 *     5.0757    0.0000     2          
   293  O     s      5.0757 *    -5.0757 *    -5.0757    0.0000     2          
   294  O     s     -5.0757 *     5.0757 *    -5.0757    0.0000     2          
   295  O     s      5.0757 *    -5.0757 *     5.0757    0.0000     2          
   296  Zr    s      6.3446 *     6.3446 *    -1.2689 *  0.0000     4          
   297  Zr    s     -6.3446 *    -6.3446 *    -1.2689 *  0.0000     4          
   298  Zr    s      1.2689 *    -6.3446 *     6.3446    0.0000     2          
   299  Zr    s     -1.2689 *     6.3446 *     6.3446    0.0000     2          
   300  Zr    s      1.2689 *     1.2689 *     8.8824 *  0.0000     4          
   301  Zr    s     -8.8824 *    -1.2689 *     1.2689    0.0000     2          
   302  Zr    s     -1.2689 *     8.8824 *    -1.2689 *  0.0000     4          
   303  Zr    s      8.8824 *     1.2689 *     1.2689    0.0000     2          
   304  O     s      5.0757 *     7.6135 *    -0.0000 *  0.0000     4          
   305  O     s     -0.0000 *     7.6135 *     5.0757 *  0.0000     4          
   306  O     s      7.6135 *     5.0757 *    -0.0000 *  0.0000     4          
   307  O     s     -0.0000 *    -5.0757 *     7.6135 *  0.0000     4          
   308  O     s     -5.0757 *    -0.0000 *     7.6135 *  0.0000     4          
   309  O     s     -7.6135 *    -0.0000 *     5.0757 *  0.0000     4          
   310  O     s      7.6135 *     2.5378 *     5.0757 *  0.0000     4          
   311  O     s      5.0757 *    -2.5378 *     7.6135 *  0.0000     4          
   312  O     s      2.5378 *    -5.0757 *     7.6135 *  0.0000     4          
   313  O     s     -5.0757 *     2.5378 *    -7.6135 *  0.0000     4          
   314  O     s     -7.6135 *     2.5378 *    -5.0757 *  0.0000     4          
   315  O     s     -2.5378 *     7.6135 *    -5.0757 *  0.0000     4          
   316  O     s      2.5378 *     7.6135 *     5.0757 *  0.0000     4          
   317  O     s     -2.5378 *     5.0757 *     7.6135 *  0.0000     4          
   318  O     s     -5.0757 *     2.5378 *     7.6135 *  0.0000     4          
   319  O     s     -7.6135 *     2.5378 *     5.0757 *  0.0000     4          
   320  O     s      7.6135 *     2.5378 *    -5.0757 *  0.0000     4          
   321  O     s      5.0757 *     7.6135 *     2.5378 *  0.0000     4          
   322  Zr    s      6.3446 *     6.3446 *     3.8068 *  0.0000     4          
   323  Zr    s     -6.3446 *     3.8068 *    -6.3446 *  0.0000     4          
   324  Zr    s     -3.8068 *     6.3446 *    -6.3446    0.0000     2          
   325  Zr    s      3.8068 *     6.3446 *     6.3446    0.0000     2          
   326  Zr    s      3.8068 *    -1.2689 *     8.8824 *  0.0000     4          
   327  Zr    s      1.2689 *     8.8824 *    -3.8068 *  0.0000     4          
   328  Zr    s     -8.8824 *    -1.2689 *    -3.8068 *  0.0000     4          
   329  Zr    s     -1.2689 *     3.8068 *     8.8824 *  0.0000     4          
   330  Zr    s     -3.8068 *     8.8824 *     1.2689 *  0.0000     4          
   331  Zr    s      8.8824 *     3.8068 *    -1.2689 *  0.0000     4          
   332  O     s      0.0000 *     0.0000 *    10.1514 *  0.0000     4          
   333  O     s    -10.1514 *     0.0000       0.0000    0.0000     1          
   334  O     s     10.1514 *     0.0000       0.0000    0.0000     1          
   335  Zr    s      8.8824 *     3.8068 *     3.8068    0.0000     2          
   336  Zr    s      3.8068 *     8.8824 *     3.8068 *  0.0000     4          
   337  Zr    s     -3.8068 *    -8.8824 *     3.8068 *  0.0000     4          
   338  Zr    s     -8.8824 *    -3.8068 *     3.8068    0.0000     2          
   339  O     s      7.6135 *     5.0757 *     5.0757    0.0000     2          
   340  O     s      5.0757 *     7.6135 *     5.0757 *  0.0000     4          
   341  O     s     -5.0757 *     5.0757 *     7.6135 *  0.0000     4          
   342  O     s      5.0757 *    -5.0757 *     7.6135 *  0.0000     4          
   343  O     s      2.5378 *    -0.0000 *    10.1514 *  0.0000     4          
   344  O     s     -0.0000 *    -2.5378 *    10.1514 *  0.0000     4          
   345  O     s     -0.0000 *     2.5378 *    10.1514 *  0.0000     4          
   346  O     s     -2.5378 *    -0.0000 *    10.1514 *  0.0000     4          
   347  O     s      7.6135 *     5.0757 *    -5.0757    0.0000     2          
   348  O     s     10.1514 *     2.5378 *    -0.0000 *  0.0000     4          
   349  O     s     -5.0757 *     5.0757 *    -7.6135 *  0.0000     4          
   350  O     s     -7.6135 *     5.0757 *     5.0757    0.0000     2          
   351  O     s     -7.6135 *    -5.0757 *     5.0757    0.0000     2          
   352  O     s    -10.1514 *    -2.5378 *    -0.0000 *  0.0000     4          
   353  O     s      7.6135 *     7.6135 *     0.0000 *  0.0000     4          
   354  O     s     -7.6135 *    -7.6135 *     0.0000 *  0.0000     4          
   355  O     s     -0.0000 *    -7.6135 *     7.6135    0.0000     2          
   356  O     s      0.0000 *     7.6135 *     7.6135    0.0000     2          
   357  O     s      2.5378 *    -2.5378 *    10.1514 *  0.0000     4          
   358  O     s    -10.1514 *    -2.5378 *    -2.5378    0.0000     2          
   359  O     s      2.5378 *     2.5378 *    10.1514 *  0.0000     4          
   360  O     s     -2.5378 *    -2.5378 *    10.1514 *  0.0000     4          
   361  O     s    -10.1514 *    -2.5378 *     2.5378    0.0000     2          
   362  O     s     -2.5378 *     2.5378 *    10.1514 *  0.0000     4          
   363  O     s     10.1514 *     2.5378 *     2.5378    0.0000     2          
   364  O     s     10.1514 *     2.5378 *    -2.5378    0.0000     2          
   365  Zr    s     -6.3446 *     6.3446 *     6.3446    0.0000     2          
   366  Zr    s      6.3446 *     6.3446 *    -6.3446    0.0000     2          
   367  Zr    s      8.8824 *     6.3446 *     1.2689 *  0.0000     4          
   368  Zr    s      6.3446 *     8.8824 *     1.2689 *  0.0000     4          
   369  Zr    s     -6.3446 *     8.8824 *    -1.2689 *  0.0000     4          
   370  Zr    s     -8.8824 *     6.3446 *    -1.2689 *  0.0000     4          
   371  Zr    s     -1.2689 *    -8.8824 *     6.3446 *  0.0000     4          
   372  Zr    s      1.2689 *     8.8824 *     6.3446 *  0.0000     4          
   373  O     s      7.6135 *     7.6135 *     2.5378 *  0.0000     4          
   374  O     s      2.5378 *     7.6135 *     7.6135    0.0000     2          
   375  O     s     -2.5378 *     7.6135 *     7.6135    0.0000     2          
   376  O     s      7.6135 *     7.6135 *    -2.5378 *  0.0000     4          
   377  O     s     -2.5378 *    -7.6135 *     7.6135    0.0000     2          
   378  O     s     -7.6135 *    -2.5378 *     7.6135 *  0.0000     4          
   379  O     s     -7.6135 *     2.5378 *     7.6135 *  0.0000     4          
   380  O     s      2.5378 *    -7.6135 *     7.6135    0.0000     2          
   381  O     s      5.0757 *     0.0000 *    10.1514 *  0.0000     4          
   382  O     s     -0.0000 *    -5.0757 *    10.1514 *  0.0000     4          
   383  O     s    -10.1514 *    -5.0757 *     0.0000 *  0.0000     4          
   384  O     s      0.0000 *     5.0757 *    10.1514 *  0.0000     4          
   385  O     s     -5.0757 *    -0.0000 *    10.1514 *  0.0000     4          
   386  O     s     10.1514 *     5.0757 *     0.0000 *  0.0000     4          
   387  Zr    s      6.3446 *    -3.8068 *     8.8824 *  0.0000     4          
   388  Zr    s      3.8068 *    -6.3446 *     8.8824 *  0.0000     4          
   389  Zr    s     -8.8824 *    -6.3446 *    -3.8068 *  0.0000     4          
   390  Zr    s      1.2689 *    -1.2689 *    11.4203 *  0.0000     4          
   391  Zr    s     -1.2689 *     1.2689 *    11.4203 *  0.0000     4          
   392  Zr    s     -3.8068 *     6.3446 *     8.8824 *  0.0000     4          
   393  Zr    s     -6.3446 *     3.8068 *     8.8824 *  0.0000     4          
   394  Zr    s      8.8824 *     6.3446 *    -3.8068 *  0.0000     4          
   395  Zr    s    -11.4203 *    -1.2689 *    -1.2689    0.0000     2          
   396  Zr    s     11.4203 *     1.2689 *    -1.2689    0.0000     2          
   397  O     s      5.0757 *    -2.5378 *    10.1514 *  0.0000     4          
   398  O     s      2.5378 *    -5.0757 *    10.1514 *  0.0000     4          
   399  O     s      5.0757 *    10.1514 *     2.5378 *  0.0000     4          
   400  O     s     -2.5378 *    -5.0757 *    10.1514 *  0.0000     4          
   401  O     s      2.5378 *    10.1514 *     5.0757 *  0.0000     4          
   402  O     s     -5.0757 *    -2.5378 *    10.1514 *  0.0000     4          
   403  O     s     -2.5378 *     5.0757 *    10.1514 *  0.0000     4          
   404  O     s     -5.0757 *     2.5378 *    10.1514 *  0.0000     4          
   405  O     s    -10.1514 *     5.0757 *     2.5378 *  0.0000     4          
   406  O     s     10.1514 *     5.0757 *     2.5378 *  0.0000     4          
   407  O     s     10.1514 *     5.0757 *    -2.5378 *  0.0000     4          
   408  O     s    -10.1514 *    -2.5378 *     5.0757 *  0.0000     4          
   409  O     s      7.6135 *     7.6135 *     5.0757 *  0.0000     4          
   410  O     s     -7.6135 *    -7.6135 *     5.0757 *  0.0000     4          
   411  O     s     -5.0757 *    -7.6135 *     7.6135    0.0000     2          
   412  O     s      5.0757 *     7.6135 *     7.6135    0.0000     2          
   413  O     s     -5.0757 *     7.6135 *     7.6135    0.0000     2          
   414  O     s     -7.6135 *     5.0757 *     7.6135 *  0.0000     4          
   415  O     s      7.6135 *    -5.0757 *     7.6135 *  0.0000     4          
   416  O     s      5.0757 *    -7.6135 *     7.6135    0.0000     2          
--------------------------------------------------------------------------------


  Constraints on symmetry reduced coordinates :

--------------------------------------------------------------------------------
  Constraint no.      Unconstrained     Constrained    Coefficient    
                         Variable         Variable
--------------------------------------------------------------------------------
           1                 2 y             2 z        -1.00000
           2                 3 y             3 z         1.00000
           3                 7 y             7 z         1.00000
           4                 8 y             8 z        -1.00000
           5                11 y            11 z        -1.00000
           6                12 y            12 z         1.00000
           7                14 y            14 z         1.00000
           8                15 y            15 z         1.00000
           9                16 y            16 z        -1.00000
          10                17 y            17 z        -1.00000
          11                22 y            22 z         1.00000
          12                24 y            24 z        -1.00000
          13                31 y            31 z         1.00000
          14                34 y            34 z         1.00000
          15                36 y            36 z        -1.00000
          16                38 y            38 z        -1.00000
          17                39 y            39 z         1.00000
          18                40 y            40 z         1.00000
          19                42 y            42 z        -1.00000
          20                44 y            44 z        -1.00000
          21                47 y            47 z        -1.00000
          22                48 y            48 z         1.00000
          23                56 y            56 z         1.00000
          24                58 y            58 z         1.00000
          25                62 y            62 z        -1.00000
          26                63 y            63 z        -1.00000
          27                73 y            73 z         1.00000
          28                75 y            75 z        -1.00000
          29                78 y            78 z         1.00000
          30                79 y            79 z        -1.00000
          31                82 y            82 z        -1.00000
          32                83 y            83 z         1.00000
          33                84 y            84 z         1.00000
          34                85 y            85 z         1.00000
          35                86 y            86 z        -1.00000
          36                87 y            87 z        -1.00000
          37                90 y            90 z        -1.00000
          38                91 y            91 z         1.00000
          39                93 y            93 z        -1.00000
          40                95 y            95 z         1.00000
          41               116 y           116 z        -1.00000
          42               117 y           117 z         1.00000
          43               127 y           127 z         1.00000
          44               130 y           130 z        -1.00000
          45               131 y           131 z         1.00000
          46               139 y           139 z        -1.00000
          47               142 y           142 z         1.00000
          48               143 y           143 z        -1.00000
          49               147 y           147 z        -1.00000
          50               148 y           148 z         1.00000
          51               150 y           150 z         1.00000
          52               153 y           153 z        -1.00000
          53               155 y           155 z         1.00000
          54               156 y           156 z        -1.00000
          55               157 y           157 z         1.00000
          56               158 y           158 z        -1.00000
          57               166 y           166 z         1.00000
          58               167 y           167 z         1.00000
          59               169 y           169 z        -1.00000
          60               172 y           172 z        -1.00000
          61               187 y           187 z         1.00000
          62               188 y           188 z        -1.00000
          63               203 y           203 z        -1.00000
          64               204 y           204 z         1.00000
          65               205 y           205 z         1.00000
          66               208 y           208 z        -1.00000
          67               210 y           210 z        -1.00000
          68               211 y           211 z         1.00000
          69               215 y           215 z         1.00000
          70               216 y           216 z        -1.00000
          71               219 y           219 z        -1.00000
          72               220 y           220 z         1.00000
          73               222 y           222 z         1.00000
          74               223 y           223 z         1.00000
          75               224 y           224 z        -1.00000
          76               225 y           225 z        -1.00000
          77               230 y           230 z         1.00000
          78               232 y           232 z        -1.00000
          79               239 y           239 z         1.00000
          80               242 y           242 z         1.00000
          81               244 y           244 z        -1.00000
          82               246 y           246 z        -1.00000
          83               247 y           247 z         1.00000
          84               248 y           248 z         1.00000
          85               250 y           250 z        -1.00000
          86               252 y           252 z        -1.00000
          87               255 y           255 z        -1.00000
          88               256 y           256 z         1.00000
          89               264 y           264 z         1.00000
          90               266 y           266 z         1.00000
          91               270 y           270 z        -1.00000
          92               271 y           271 z        -1.00000
          93               281 y           281 z         1.00000
          94               283 y           283 z        -1.00000
          95               286 y           286 z         1.00000
          96               287 y           287 z        -1.00000
          97               290 y           290 z        -1.00000
          98               291 y           291 z         1.00000
          99               292 y           292 z         1.00000
         100               293 y           293 z         1.00000
         101               294 y           294 z        -1.00000
         102               295 y           295 z        -1.00000
         103               298 y           298 z        -1.00000
         104               299 y           299 z         1.00000
         105               301 y           301 z        -1.00000
         106               303 y           303 z         1.00000
         107               324 y           324 z        -1.00000
         108               325 y           325 z         1.00000
         109               335 y           335 z         1.00000
         110               338 y           338 z        -1.00000
         111               339 y           339 z         1.00000
         112               347 y           347 z        -1.00000
         113               350 y           350 z         1.00000
         114               351 y           351 z        -1.00000
         115               355 y           355 z        -1.00000
         116               356 y           356 z         1.00000
         117               358 y           358 z         1.00000
         118               361 y           361 z        -1.00000
         119               363 y           363 z         1.00000
         120               364 y           364 z        -1.00000
         121               365 y           365 z         1.00000
         122               366 y           366 z        -1.00000
         123               374 y           374 z         1.00000
         124               375 y           375 z         1.00000
         125               377 y           377 z        -1.00000
         126               380 y           380 z        -1.00000
         127               395 y           395 z         1.00000
         128               396 y           396 z        -1.00000
         129               411 y           411 z        -1.00000
         130               412 y           412 z         1.00000
         131               413 y           413 z         1.00000
         132               416 y           416 z        -1.00000
--------------------------------------------------------------------------------


  Components of defect energy : 

--------------------------------------------------------------------------------
  Region 1 - region 1                   =   -106.29428695 eV
  Region 1 - region 2a (unrelaxed)      =    141.77822158 eV
  Region 1 - 2a (relaxed - correction)  =     -2.41977927 eV
  Region 1 (Total)                      =     33.06415537 eV
  Region 2a                             =      1.20990606 eV
  Region 2b                             =     -1.16216618 eV
--------------------------------------------------------------------------------
  Total defect energy                   =     33.11189525 eV
--------------------------------------------------------------------------------

  Largest displacement in region 2 =   0.0067 Angstroms


  Number of variables =     1082

  Maximum number of calculations  =        1000
  Maximum Hessian update interval =          10
  Maximum step size               =   1.0000000
  Maximum parameter tolerance     =   0.0000100
  Maximum function  tolerance     =   0.0000100
  Maximum gradient  tolerance     =   0.0010000

  Symmetry adapted optimisation

  Symmetry to be used for second derivatives

  Newton-Raphson optimiser to be used

  BFGS hessian update to be used

  Lower half triangular hessian to be used

  Start of defect optimisation :

  Cycle:      0 Defect Energy:  33.111895  Gnorm:     0.089786  CPU:    4.764
  ** Hessian calculated **
  Cycle:      1 Defect Energy:  23.381565  Gnorm:     0.036312  CPU:   14.634
  Cycle:      2 Defect Energy:  17.839013  Gnorm:     0.020050  CPU:   23.010
  Cycle:      3 Defect Energy:  17.049421  Gnorm:     0.015344  CPU:   28.633
  Cycle:      4 Defect Energy:  16.279356  Gnorm:     0.008660  CPU:   35.623
  Cycle:      5 Defect Energy:  15.791657  Gnorm:     0.008438  CPU:   42.625
  Cycle:      6 Defect Energy:  15.637340  Gnorm:     0.006419  CPU:   48.239
  Cycle:      7 Defect Energy:  15.481382  Gnorm:     0.004651  CPU:   55.216
  Cycle:      8 Defect Energy:  15.348522  Gnorm:     0.003998  CPU:   62.423
  Cycle:      9 Defect Energy:  15.251072  Gnorm:     0.004224  CPU:   69.651
  Cycle:     10 Defect Energy:  15.161387  Gnorm:     0.004249  CPU:   76.842
  ** Hessian calculated **
  Cycle:     11 Defect Energy:  14.957863  Gnorm:     0.002620  CPU:   91.314
  Cycle:     12 Defect Energy:  14.912017  Gnorm:     0.002056  CPU:   92.850
  Cycle:     13 Defect Energy:  14.876968  Gnorm:     0.001441  CPU:   94.386
  Cycle:     14 Defect Energy:  14.860279  Gnorm:     0.001012  CPU:   95.919
  Cycle:     15 Defect Energy:  14.852318  Gnorm:     0.000709  CPU:   97.460
  Cycle:     16 Defect Energy:  14.848554  Gnorm:     0.000497  CPU:   98.995
  Cycle:     17 Defect Energy:  14.846791  Gnorm:     0.000348  CPU:  100.571
  Cycle:     18 Defect Energy:  14.845980  Gnorm:     0.000244  CPU:  102.105
  Cycle:     19 Defect Energy:  14.845582  Gnorm:     0.000171  CPU:  103.637
  Cycle:     20 Defect Energy:  14.845430  Gnorm:     0.000120  CPU:  105.171
  ** Hessian calculated **
  Cycle:     21 Defect Energy:  14.845373  Gnorm:     0.000084  CPU:  112.770
  Cycle:     22 Defect Energy:  14.845357  Gnorm:     0.000059  CPU:  114.307


  **** Optimisation achieved ****


  Final defect energy  =       14.84535772
  Final defect Gnorm   =        0.00004109

  Components of defect energy : 

--------------------------------------------------------------------------------
  Region 1 - region 1                   =   -108.47007363 eV
  Region 1 - region 2a (unrelaxed)      =    125.51048069 eV
  Region 1 - 2a (relaxed - correction)  =     -2.08274585 eV
  Region 1 (Total)                      =     14.95766121 eV
  Region 2a                             =      1.04135503 eV
  Region 2b                             =     -1.15365852 eV
--------------------------------------------------------------------------------
  Total defect energy                   =     14.84535772 eV
--------------------------------------------------------------------------------

  Largest displacement in region 2 =   0.0067 Angstroms

  Final coordinates of region 1 :

--------------------------------------------------------------------------------
   No.  Atomic        x           y           z          Radius      Charge
        Label       (Angs)      (Angs)      (Angs)       (Angs)       (e) 
--------------------------------------------------------------------------------
     1  O     c     1.268921    1.268921    1.268921    0.000000    0.077000
     2  Zr    c     2.572746   -0.004693    2.542535    0.000000    2.650000
     3  Zr    c     2.572746    2.542535   -0.004693    0.000000    2.650000
     4  Zr    c     0.059870    2.617291    2.617291    0.000000    2.650000
     5  Zr    c     0.059870   -0.079449   -0.079449    0.000000    2.650000
     6  O     c     1.271650    3.877583    1.310940    0.000000    0.077000
     7  O     c     1.271650    1.310940    3.877583    0.000000    0.077000
     8  O     c     1.271650    1.226902   -1.339742    0.000000    0.077000
     9  O     c     1.271650   -1.339742    1.226902    0.000000    0.077000
    10  O     c     3.793928    1.268921    1.268921    0.000000    0.077000
    11  O     c     3.802899    3.795565    1.262074    0.000000    0.077000
    12  O     c     3.802899    1.262074    3.795565    0.000000    0.077000
    13  O     c     3.802899    1.275767   -1.257723    0.000000    0.077000
    14  O     c     3.802899   -1.257723    1.275767    0.000000    0.077000
    15  O     c     1.297933    3.826296    3.826296    0.000000    0.077000
    16  O     c     1.297933   -1.288454   -1.288454    0.000000    0.077000
    17  O     c     1.257784   -1.231725    3.769567    0.000000    0.077000
    18  O     c     1.257784    3.769567   -1.231725    0.000000    0.077000
    19  O     c    -1.239112    1.262175    3.306089    0.000000    0.077000
    20  O     c    -1.239112    3.306089    1.262175    0.000000    0.077000
    21  O     c    -1.239112   -0.768248    1.275667    0.000000    0.077000
    22  O     c    -1.239112    1.275667   -0.768248    0.000000    0.077000
    23  Zr    c     2.570945    2.545999    5.096472    0.000000    2.650000
    24  Zr    c     2.570945   -2.558630   -0.008158    0.000000    2.650000
    25  Zr    c     2.570945    5.096472    2.545999    0.000000    2.650000
    26  Zr    c     2.570945   -0.008158   -2.558630    0.000000    2.650000
    27  Zr    c    -2.564815    2.583171   -0.045329    0.000000    2.650000
    28  Zr    c    -2.564815   -0.045329    2.583171    0.000000    2.650000
    29  Zr    c     5.089643    2.540631    2.540631    0.000000    2.650000
    30  Zr    c     5.089643   -0.002790   -0.002790    0.000000    2.650000
    31  Zr    c     0.046024   -2.555379    2.557756    0.000000    2.650000
    32  Zr    c     0.046024    2.557756   -2.555379    0.000000    2.650000
    33  Zr    c     0.046024   -0.019914    5.093221    0.000000    2.650000
    34  Zr    c     0.046024    5.093221   -0.019914    0.000000    2.650000
    35  O     c     3.826271    3.805151    3.805151    0.000000    0.077000
    36  O     c     3.826271   -1.267309   -1.267309    0.000000    0.077000
    37  O     c    -1.216868    3.833812    3.833812    0.000000    0.077000
    38  O     c    -1.216868   -1.295970   -1.295970    0.000000    0.077000
    39  O     c     3.795762    3.807958   -1.270116    0.000000    0.077000
    40  O     c     3.795762   -1.270116    3.807958    0.000000    0.077000
    41  O     c    -1.305365   -1.306965    3.844807    0.000000    0.077000
    42  O     c    -1.305365    3.844807   -1.306965    0.000000    0.077000
    43  O     c     1.253759    1.245503    6.408852    0.000000    0.077000
    44  O     c     1.253759    6.408852    1.245503    0.000000    0.077000
    45  O     c     1.253759   -3.871010    1.292338    0.000000    0.077000
    46  O     c     1.253759    1.292338   -3.871010    0.000000    0.077000
    47  O     c    -3.539021    1.268921    1.268921    0.000000    0.077000
    48  O     c     6.339281    1.268921    1.268921    0.000000    0.077000
    49  Zr    c     5.091355   -0.002791    5.081851    0.000000    2.650000
    50  Zr    c     5.091355   -2.544009    2.540633    0.000000    2.650000
    51  Zr    c     5.091355    5.081851   -0.002791    0.000000    2.650000
    52  Zr    c     5.091355    2.540633   -2.544009    0.000000    2.650000
    53  Zr    c     0.018024    5.102545    5.102545    0.000000    2.650000
    54  Zr    c     0.018024   -2.564703   -2.564703    0.000000    2.650000
    55  Zr    c    -2.572920    5.109065    2.569602    0.000000    2.650000
    56  Zr    c    -2.572920   -2.571224   -0.031760    0.000000    2.650000
    57  Zr    c    -2.572920   -0.031760   -2.571224    0.000000    2.650000
    58  Zr    c    -2.572920    2.569602    5.109065    0.000000    2.650000
    59  Zr    c     2.563615   -2.551304    5.089146    0.000000    2.650000
    60  Zr    c     2.563615    5.089146   -2.551304    0.000000    2.650000
    61  O     c     3.797002    6.334371    1.277146    0.000000    0.077000
    62  O     c     3.797002    1.277146    6.334371    0.000000    0.077000
    63  O     c     3.797002    1.260696   -3.796529    0.000000    0.077000
    64  O     c     3.797002   -3.796529    1.260696    0.000000    0.077000
    65  O     c     1.251855    6.353620    3.799561    0.000000    0.077000
    66  O     c     1.251855    3.799561    6.353620    0.000000    0.077000
    67  O     c     1.251855   -1.261719   -3.815778    0.000000    0.077000
    68  O     c     1.251855   -3.815778   -1.261719    0.000000    0.077000
    69  O     c     6.341899    3.808916    1.270543    0.000000    0.077000
    70  O     c     6.341899    1.270543    3.808916    0.000000    0.077000
    71  O     c     6.341899    1.267299   -1.271074    0.000000    0.077000
    72  O     c     6.341899   -1.271074    1.267299    0.000000    0.077000
    73  O     c     1.275595   -1.274682    6.297872    0.000000    0.077000
    74  O     c     1.275595    6.297872   -1.274682    0.000000    0.077000
    75  O     c     1.275595   -3.760030    3.812524    0.000000    0.077000
    76  O     c     1.275595    3.812524   -3.760030    0.000000    0.077000
    77  O     c    -1.268038    1.271935    6.016476    0.000000    0.077000
    78  O     c    -1.268038    6.016476    1.271935    0.000000    0.077000
    79  O     c    -1.268038   -3.478634    1.265907    0.000000    0.077000
    80  O     c    -1.268038    1.265907   -3.478634    0.000000    0.077000
    81  O     c    -3.809692    1.249885    3.864143    0.000000    0.077000
    82  O     c    -3.809692    3.864143    1.249885    0.000000    0.077000
    83  O     c    -3.809692   -1.326301    1.287957    0.000000    0.077000
    84  O     c    -3.809692    1.287957   -1.326301    0.000000    0.077000
    85  O     c     6.355369    3.806994    3.806994    0.000000    0.077000
[...]
    336 y         10.151367     10.155567     0.004200    Cartesian    0.04
    336 z          5.075684      5.076214     0.000530    Cartesian    0.01
    337 x         -2.537842     -2.533681     0.004161    Cartesian   -0.16
    337 y         -7.613525     -7.617770    -0.004245    Cartesian    0.06
    337 z          5.075684      5.074793    -0.000890    Cartesian   -0.02
    338 x         -7.613525     -7.617952    -0.004427    Cartesian    0.06
    338 y         -2.537842     -2.542567    -0.004726    Cartesian    0.19
    338 z          5.075684      5.080409     0.004726    Cartesian    0.09
    339 x          8.882446      8.883474     0.001028    Cartesian    0.01
    339 y          6.344605      6.342137    -0.002468    Cartesian   -0.04
    339 z          6.344605      6.342137    -0.002468    Cartesian   -0.04
    340 x          6.344605      6.337312    -0.007292    Cartesian   -0.11
    340 y          8.882446      8.883521     0.001075    Cartesian    0.01
    340 z          6.344605      6.342230    -0.002374    Cartesian   -0.04
    341 x         -3.806763     -3.809587    -0.002825    Cartesian    0.07
    341 y          6.344605      6.340868    -0.003736    Cartesian   -0.06
    341 z          8.882446      8.887732     0.005286    Cartesian    0.06
    342 x          6.344605      6.343538    -0.001066    Cartesian   -0.02
    342 y         -3.806763     -3.804985     0.001778    Cartesian   -0.05
    342 z          8.882446      8.883199     0.000752    Cartesian    0.01
    343 x          3.806763      3.804341    -0.002422    Cartesian   -0.06
    343 y          1.268921      1.270356     0.001435    Cartesian    0.11
    343 z         11.420288     11.416227    -0.004061    Cartesian   -0.04
    344 x          1.268921      1.262837    -0.006084    Cartesian   -0.48
    344 y         -1.268921     -1.267271     0.001650    Cartesian   -0.13
    344 z         11.420288     11.397651    -0.022637    Cartesian   -0.20
    345 x          1.268921      1.263020    -0.005901    Cartesian   -0.47
    345 y          3.806763      3.804477    -0.002286    Cartesian   -0.06
    345 z         11.420288     11.422629     0.002341    Cartesian    0.02
    346 x         -1.268921     -1.273334    -0.004413    Cartesian    0.35
    346 y          1.268921      1.265129    -0.003792    Cartesian   -0.30
    346 z         11.420288     11.339189    -0.081099    Cartesian   -0.71
    347 x          8.882446      8.881217    -0.001229    Cartesian   -0.01
    347 y          6.344605      6.344393    -0.000211    Cartesian   -0.00
    347 z         -3.806763     -3.806552     0.000211    Cartesian   -0.01
    348 x         11.420288     11.418219    -0.002069    Cartesian   -0.02
    348 y          3.806763      3.807718     0.000955    Cartesian    0.03
    348 z          1.268921      1.269927     0.001006    Cartesian    0.08
    349 x         -3.806763     -3.807323    -0.000560    Cartesian    0.01
    349 y          6.344605      6.341231    -0.003373    Cartesian   -0.05
    349 z         -6.344605     -6.340427     0.004177    Cartesian   -0.07
    350 x         -6.344605     -6.340793     0.003812    Cartesian   -0.06
    350 y          6.344605      6.339616    -0.004988    Cartesian   -0.08
    350 z          6.344605      6.339616    -0.004988    Cartesian   -0.08
    351 x         -6.344605     -6.349170    -0.004566    Cartesian    0.07
    351 y         -3.806763     -3.805202     0.001561    Cartesian   -0.04
    351 z          6.344605      6.343043    -0.001561    Cartesian   -0.02
    352 x         -8.882446     -8.886060    -0.003613    Cartesian    0.04
    352 y         -1.268921     -1.268301     0.000620    Cartesian   -0.05
    352 z          1.268921      1.270599     0.001678    Cartesian    0.13
    353 x          8.882446      8.879734    -0.002712    Cartesian   -0.03
    353 y          8.882446      8.882088    -0.000358    Cartesian   -0.00
    353 z          1.268921      1.267363    -0.001558    Cartesian   -0.12
    354 x         -6.344605     -6.346439    -0.001834    Cartesian    0.03
    354 y         -6.344605     -6.335014     0.009590    Cartesian   -0.15
    354 z          1.268921      1.265218    -0.003703    Cartesian   -0.29
    355 x          1.268921      1.266898    -0.002023    Cartesian   -0.16
    355 y         -6.344605     -6.342404     0.002200    Cartesian   -0.03
    355 z          8.882446      8.880246    -0.002200    Cartesian   -0.02
    356 x          1.268921      1.262361    -0.006560    Cartesian   -0.52
    356 y          8.882446      8.880180    -0.002267    Cartesian   -0.03
    356 z          8.882446      8.880180    -0.002267    Cartesian   -0.03
    357 x          3.806763      3.805331    -0.001432    Cartesian   -0.04
    357 y         -1.268921     -1.271747    -0.002826    Cartesian    0.22
    357 z         11.420288     11.422349     0.002061    Cartesian    0.02
    358 x         -8.882446     -8.877408     0.005038    Cartesian   -0.06
    358 y         -1.268921     -1.266525     0.002396    Cartesian   -0.19
    358 z         -1.268921     -1.266525     0.002396    Cartesian   -0.19
    359 x          3.806763      3.800983    -0.005780    Cartesian   -0.15
    359 y          3.806763      3.805206    -0.001557    Cartesian   -0.04
    359 z         11.420288     11.420008    -0.000280    Cartesian   -0.00
    360 x         -1.268921     -1.266501     0.002420    Cartesian   -0.19
    360 y         -1.268921     -1.265117     0.003804    Cartesian   -0.30
    360 z         11.420288     11.437613     0.017325    Cartesian    0.15
    361 x         -8.882446     -8.878471     0.003976    Cartesian   -0.04
    361 y         -1.268921     -1.265065     0.003856    Cartesian   -0.30
    361 z          3.806763      3.802907    -0.003856    Cartesian   -0.10
    362 x         -1.268921     -1.274202    -0.005281    Cartesian    0.42
    362 y          3.806763      3.802770    -0.003993    Cartesian   -0.10
    362 z         11.420288     11.435662     0.015374    Cartesian    0.13
    363 x         11.420288     11.419844    -0.000444    Cartesian   -0.00
    363 y          3.806763      3.805694    -0.001068    Cartesian   -0.03
    363 z          3.806763      3.805694    -0.001068    Cartesian   -0.03
    364 x         11.420288     11.417157    -0.003131    Cartesian   -0.03
    364 y          3.806763      3.807244     0.000481    Cartesian    0.01
    364 z         -1.268921     -1.269402    -0.000481    Cartesian    0.04
    365 x         -5.075684     -5.075837    -0.000153    Cartesian    0.00
    365 y          7.613525      7.619836     0.006311    Cartesian    0.08
    365 z          7.613525      7.619836     0.006311    Cartesian    0.08
    366 x          7.613525      7.618729     0.005203    Cartesian    0.07
    366 y          7.613525      7.615098     0.001573    Cartesian    0.02
    366 z         -5.075684     -5.077256    -0.001573    Cartesian    0.03
    367 x         10.151367     10.156621     0.005254    Cartesian    0.05
    367 y          7.613525      7.616532     0.003007    Cartesian    0.04
    367 z          2.537842      2.537915     0.000073    Cartesian    0.00
    368 x          7.613525      7.619570     0.006044    Cartesian    0.08
    368 y         10.151367     10.155732     0.004365    Cartesian    0.04
    368 z          2.537842      2.537553    -0.000289    Cartesian   -0.01
    369 x         -5.075684     -5.073977     0.001707    Cartesian   -0.03
    369 y         10.151367     10.159879     0.008512    Cartesian    0.08
    369 z         -0.000000      0.001487     0.001487    Cartesian *******
    370 x         -7.613525     -7.618210    -0.004685    Cartesian    0.06
    370 y          7.613525      7.622159     0.008634    Cartesian    0.11
    370 z         -0.000000     -0.002072    -0.002072    Cartesian *******
    371 x         -0.000000      0.002855     0.002855    Cartesian *******
    371 y         -7.613525     -7.618289    -0.004764    Cartesian    0.06
    371 z          7.613525      7.616692     0.003166    Cartesian    0.04
    372 x          2.537842      2.540571     0.002729    Cartesian    0.11
    372 y         10.151367     10.157791     0.006424    Cartesian    0.06
    372 z          7.613525      7.617720     0.004194    Cartesian    0.06
    373 x          8.882446      8.881416    -0.001030    Cartesian   -0.01
    373 y          8.882446      8.882194    -0.000252    Cartesian   -0.00
    373 z          3.806763      3.805784    -0.000978    Cartesian   -0.03
    374 x          3.806763      3.803177    -0.003586    Cartesian   -0.09
    374 y          8.882446      8.882461     0.000015    Cartesian    0.00
    374 z          8.882446      8.882461     0.000015    Cartesian    0.00
    375 x         -1.268921     -1.267020     0.001901    Cartesian   -0.15
    375 y          8.882446      8.882018    -0.000429    Cartesian   -0.00
    375 z          8.882446      8.882018    -0.000429    Cartesian   -0.00
    376 x          8.882446      8.879295    -0.003151    Cartesian   -0.04
    376 y          8.882446      8.881711    -0.000735    Cartesian   -0.01
    376 z         -1.268921     -1.266551     0.002369    Cartesian   -0.19
    377 x         -1.268921     -1.271759    -0.002838    Cartesian    0.22
    377 y         -6.344605     -6.341213     0.003392    Cartesian   -0.05
    377 z          8.882446      8.879055    -0.003392    Cartesian   -0.04
    378 x         -6.344605     -6.347355    -0.002750    Cartesian    0.04
    378 y         -1.268921     -1.268308     0.000613    Cartesian   -0.05
    378 z          8.882446      8.877177    -0.005270    Cartesian   -0.06
    379 x         -6.344605     -6.341570     0.003035    Cartesian   -0.05
    379 y          3.806763      3.804984    -0.001779    Cartesian   -0.05
    379 z          8.882446      8.883127     0.000681    Cartesian    0.01
    380 x          3.806763      3.801659    -0.005104    Cartesian   -0.13
    380 y         -6.344605     -6.342867     0.001738    Cartesian   -0.03
    380 z          8.882446      8.880709    -0.001738    Cartesian   -0.02
    381 x          6.344605      6.341516    -0.003088    Cartesian   -0.05
    381 y          1.268921      1.267273    -0.001648    Cartesian   -0.13
    381 z         11.420288     11.416393    -0.003896    Cartesian   -0.03
    382 x          1.268921      1.269481     0.000560    Cartesian    0.04
    382 y         -3.806763     -3.805791     0.000972    Cartesian   -0.03
    382 z         11.420288     11.419458    -0.000830    Cartesian   -0.01
    383 x         -8.882446     -8.872087     0.010359    Cartesian   -0.12
    383 y         -3.806763     -3.805112     0.001651    Cartesian   -0.04
    383 z          1.268921      1.267912    -0.001009    Cartesian   -0.08
    384 x          1.268921      1.266731    -0.002190    Cartesian   -0.17
    384 y          6.344605      6.340930    -0.003675    Cartesian   -0.06
    384 z         11.420288     11.416141    -0.004148    Cartesian   -0.04
    385 x         -3.806763     -3.802045     0.004718    Cartesian   -0.12
    385 y          1.268921      1.273854     0.004933    Cartesian    0.39
    385 z         11.420288     11.435247     0.014959    Cartesian    0.13
    386 x         11.420288     11.413765    -0.006524    Cartesian   -0.06
    386 y          6.344605      6.343807    -0.000797    Cartesian   -0.01
    386 z          1.268921      1.268252    -0.000669    Cartesian   -0.05
    387 x          7.613525      7.619945     0.006419    Cartesian    0.08
    387 y         -2.537842     -2.541011    -0.003169    Cartesian    0.12
    387 z         10.151367     10.156877     0.005509    Cartesian    0.05
    388 x          5.075684      5.080784     0.005100    Cartesian    0.10
    388 y         -5.075684     -5.081025    -0.005341    Cartesian    0.11
    388 z         10.151367     10.156516     0.005149    Cartesian    0.05
    389 x         -7.613525     -7.621440    -0.007914    Cartesian    0.10
    389 y         -5.075684     -5.082915    -0.007232    Cartesian    0.14
    389 z         -2.537842     -2.540606    -0.002765    Cartesian    0.11
    390 x          2.537842      2.539523     0.001681    Cartesian    0.07
    390 y         -0.000000      0.001507     0.001507    Cartesian *******
    390 z         12.689209     12.700142     0.010933    Cartesian    0.09
    391 x         -0.000000      0.007160     0.007160    Cartesian *******
    391 y          2.537842      2.545650     0.007808    Cartesian    0.31
    391 z         12.689209     12.696339     0.007130    Cartesian    0.06
    392 x         -2.537842     -2.539268    -0.001426    Cartesian    0.06
    392 y          7.613525      7.618268     0.004743    Cartesian    0.06
    392 z         10.151367     10.158828     0.007461    Cartesian    0.07
    393 x         -5.075684     -5.081692    -0.006008    Cartesian    0.12
    393 y          5.075684      5.082157     0.006474    Cartesian    0.13
    393 z         10.151367     10.157580     0.006213    Cartesian    0.06
    394 x         10.151367     10.158566     0.007199    Cartesian    0.07
    394 y          7.613525      7.616925     0.003400    Cartesian    0.04
    394 z         -2.537842     -2.539612    -0.001770    Cartesian    0.07
    395 x        -10.151367    -10.156185    -0.004817    Cartesian    0.05
    395 y         -0.000000     -0.005615    -0.005615    Cartesian *******
    395 z         -0.000000     -0.005615    -0.005615    Cartesian *******
    396 x         12.689209     12.699209     0.010000    Cartesian    0.08
    396 y          2.537842      2.538750     0.000909    Cartesian    0.04
    396 z          0.000000     -0.000909    -0.000909    Cartesian *******
    397 x          6.344605      6.340670    -0.003934    Cartesian   -0.06
    397 y         -1.268921     -1.265840     0.003081    Cartesian   -0.24
    397 z         11.420288     11.412469    -0.007819    Cartesian   -0.07
    398 x          3.806763      3.803471    -0.003292    Cartesian   -0.09
    398 y         -3.806763     -3.803198     0.003564    Cartesian   -0.09
    398 z         11.420288     11.410260    -0.010028    Cartesian   -0.09
    399 x          6.344605      6.339544    -0.005060    Cartesian   -0.08
    399 y         11.420288     11.412865    -0.007424    Cartesian   -0.07
    399 z          3.806763      3.806655    -0.000108    Cartesian   -0.00
    400 x         -1.268921     -1.267805     0.001116    Cartesian   -0.09
    400 y         -3.806763     -3.803057     0.003706    Cartesian   -0.10
    400 z         11.420288     11.405846    -0.014442    Cartesian   -0.13
    401 x          3.806763      3.804105    -0.002658    Cartesian   -0.07
    401 y         11.420288     11.412795    -0.007493    Cartesian   -0.07
    401 z          6.344605      6.343985    -0.000620    Cartesian   -0.01
    402 x         -3.806763     -3.805750     0.001013    Cartesian   -0.03
    402 y         -1.268921     -1.264870     0.004050    Cartesian   -0.32
    402 z         11.420288     11.405253    -0.015035    Cartesian   -0.13
    403 x         -1.268921     -1.268990    -0.000069    Cartesian    0.01
    403 y          6.344605      6.343115    -0.001489    Cartesian   -0.02
    403 z         11.420288     11.409265    -0.011023    Cartesian   -0.10
    404 x         -3.806763     -3.805399     0.001364    Cartesian   -0.04
    404 y          3.806763      3.806689    -0.000073    Cartesian   -0.00
    404 z         11.420288     11.398058    -0.022230    Cartesian   -0.19
    405 x         -8.882446     -8.879162     0.003285    Cartesian   -0.04
    405 y          6.344605      6.339564    -0.005040    Cartesian   -0.08
    405 z          3.806763      3.803263    -0.003500    Cartesian   -0.09
    406 x         11.420288     11.410614    -0.009674    Cartesian   -0.08
    406 y          6.344605      6.342765    -0.001839    Cartesian   -0.03
    406 z          3.806763      3.804758    -0.002005    Cartesian   -0.05
    407 x         11.420288     11.414244    -0.006044    Cartesian   -0.05
    407 y          6.344605      6.342574    -0.002031    Cartesian   -0.03
    407 z         -1.268921     -1.267679     0.001242    Cartesian   -0.10
    408 x         -8.882446     -8.872891     0.009555    Cartesian   -0.11
    408 y         -1.268921     -1.269139    -0.000218    Cartesian    0.02
    408 z          6.344605      6.342459    -0.002145    Cartesian   -0.03
    409 x          8.882446      8.872568    -0.009879    Cartesian   -0.11
    409 y          8.882446      8.874755    -0.007691    Cartesian   -0.09
    409 z          6.344605      6.339449    -0.005156    Cartesian   -0.08
    410 x         -6.344605     -6.335828     0.008777    Cartesian   -0.14
    410 y         -6.344605     -6.335921     0.008684    Cartesian   -0.14
    410 z          6.344605      6.337962    -0.006643    Cartesian   -0.10
    411 x         -3.806763     -3.801486     0.005277    Cartesian   -0.14
    411 y         -6.344605     -6.335643     0.008962    Cartesian   -0.14
    411 z          8.882446      8.873485    -0.008962    Cartesian   -0.10
    412 x          6.344605      6.338632    -0.005972    Cartesian   -0.09
    412 y          8.882446      8.874155    -0.008291    Cartesian   -0.09
    412 z          8.882446      8.874155    -0.008291    Cartesian   -0.09
    413 x         -3.806763     -3.807751    -0.000988    Cartesian    0.03
    413 y          8.882446      8.878582    -0.003864    Cartesian   -0.04
    413 z          8.882446      8.878582    -0.003864    Cartesian   -0.04
    414 x         -6.344605     -6.345362    -0.000757    Cartesian    0.01
    414 y          6.344605      6.342722    -0.001882    Cartesian   -0.03
    414 z          8.882446      8.880489    -0.001958    Cartesian   -0.02
    415 x          8.882446      8.879487    -0.002959    Cartesian   -0.03
    415 y         -3.806763     -3.805263     0.001500    Cartesian   -0.04
    415 z          8.882446      8.881377    -0.001070    Cartesian   -0.01
    416 x          6.344605      6.340336    -0.004268    Cartesian   -0.07
    416 y         -6.344605     -6.343696     0.000909    Cartesian   -0.01
    416 z          8.882446      8.881538    -0.000909    Cartesian   -0.01
--------------------------------------------------------------------------------


  Time to end of optimisation  =      115.8585 seconds


  Peak dynamic memory used =     416.90 MB 


  Timing analysis for GULP :

--------------------------------------------------------------------------------
  Task / Subroutine                                          Time (Seconds)
--------------------------------------------------------------------------------
  Calculation of reciprocal space energy and derivatives          0.0004
  Calculation of reciprocal space energy using symmetry           0.0006
  Calculation of real space energy and derivatives                0.0033
  Calculation of real space energy using symmetry                 0.0156
  Calculation for region 1 energy and derivatives (2-b)          29.6470
  Calculation for region 2a energy                               73.0206
  Calculation for region 2b energy                                0.0097
  Calculation and manipulation of Hessian matrix                 11.8865
  Calculation of matrix inversion                                 0.8618
  Symmetry generation of equivalent positions                     0.0033
--------------------------------------------------------------------------------
  Total CPU time                                                115.8585
--------------------------------------------------------------------------------


  Dump file written as ZrO2.grs


  Job Finished at 11:50.24 14th October    2020                               

