********************************************************************************
*                       GENERAL UTILITY LATTICE PROGRAM                        *
*                                 Julian Gale                                  *
*                       Curtin Institute for Computation                       *
*                    School of Molecular and Life Sciences                     *
*                    Curtin University, Western Australia                      *
********************************************************************************
* Version = 5.2.0 * Last modified =  10th September 2020                       *
********************************************************************************
* Zirconia doped with calcium                                                  *
*  optimise     - perform optimisation run                                     *
*  conp         - constant pressure calculation                                *
*  property     - calculate properties for final geometry                      *
*  defect       - perform defect calculation after bulk run                    *
*  distance     - calculate distances                                          *
*  compare      - compare initial and final structures                         *
********************************************************************************
* Zirconia doped with calcium                                                  *
********************************************************************************


  Job Started  at 11:50.24 14th October    2020                               

  Number of CPUs =     1


  Total number of configurations input =      1

********************************************************************************
*  Input for Configuration =   1 : ZrO2                                        *
********************************************************************************

  Formula = ZrO2                                                        

  Number of irreducible atoms/shells =       4


  Total number atoms/shells =       6

  Dimensionality = 3               :  Bulk   


  Symmetry :

  Crystal family                   :  Cubic       
  Crystal class  (Groth - 1921)    :  Cubic Hexakisoctahedral              

  Space group (centrosymmetric)    :  F M 3 M         

  Patterson group                  :  F m -3 m 

  Cartesian lattice vectors (Angstroms) :

        0.000000    2.535000    2.535000
        2.535000    0.000000    2.535000
        2.535000    2.535000    0.000000

  Primitive cell parameters :            Full cell parameters :

  a =   3.5850    alpha =  60.0000       a =   5.0700    alpha =  90.0000
  b =   3.5850    beta  =  60.0000       b =   5.0700    beta  =  90.0000
  c =   3.5850    gamma =  60.0000       c =   5.0700    gamma =  90.0000

  Initial volumes (Angstroms**3):

  Primitive cell =          32.580961    Full cell =         130.323843

  Temperature of configuration =   0.00     K 

  Pressure of configuration =         0.000 GPa 

  Fractional coordinates of asymmetric unit :

--------------------------------------------------------------------------------
   No.  Atomic       x           y          z         Charge      Occupancy
        Label      (Frac)      (Frac)     (Frac)        (e)         (Frac)  
--------------------------------------------------------------------------------
      1 Zr    c    0.000000    0.000000    0.000000     2.65000    1.000000    
      2 O     c    0.250000    0.250000    0.250000     0.07700    1.000000    
      3 Zr    s    0.000000    0.000000    0.000000     1.35000    1.000000    
      4 O     s    0.250000    0.250000    0.250000    -2.07700    1.000000    
--------------------------------------------------------------------------------


  Constraints : 

--------------------------------------------------------------------------------
  Constraint no.      Unconstrained     Constrained    Coefficient    Offset
                         Variable         Variable
--------------------------------------------------------------------------------
           1              Strain 1        Strain 2       1.00000      0.0000
           2              Strain 1        Strain 3       1.00000      0.0000
--------------------------------------------------------------------------------


  Distance calculation :


  Cutoff for distances  =      4.000000 Angstroms

--------------------------------------------------------------------------------
  Asymmetric unit site  Full lattice sites    No.  Distance      No.  Distance
      No.   At.No.            At.No.                (Angs)             (Angs) 
--------------------------------------------------------------------------------
       1   Zr    core        Zr    core        12    3.5850
                             Zr    shell       12    3.5850
                             O     core         8    2.1954
                             O     shell        8    2.1954
--------------------------------------------------------------------------------
       2   O     core        Zr    core         4    2.1954
                             Zr    shell        4    2.1954
                             O     core         6    2.5350       12    3.5850
                             O     shell        6    2.5350       12    3.5850
--------------------------------------------------------------------------------
       3   Zr    shell       Zr    core        12    3.5850
                             Zr    shell       12    3.5850
                             O     core         8    2.1954
                             O     shell        8    2.1954
--------------------------------------------------------------------------------
       4   O     shell       Zr    core         4    2.1954
                             Zr    shell        4    2.1954
                             O     core         6    2.5350       12    3.5850
                             O     shell        6    2.5350       12    3.5850
--------------------------------------------------------------------------------



********************************************************************************
*  General input information                                                   *
********************************************************************************

  Species output for all configurations : 

--------------------------------------------------------------------------------
  Species    Type    Atomic    Atomic    Charge       Radii (Angs)     Library
                     Number     Mass       (e)     Cova   Ionic  VDW   Symbol
--------------------------------------------------------------------------------
    Zr       Core       40      91.22   2.650000   1.560  0.000  2.330          
    Zr       Shell      40       0.00   1.350000   1.560  0.000  2.330          
    O        Core        8      16.00   0.077000   0.730  0.000  1.360          
    O        Shell       8       0.00  -2.077000   0.730  0.000  1.360          
--------------------------------------------------------------------------------


  Lattice summation method               =    Ewald          (3-D)
                                         =    Parry          (2-D)
                                         =    Saunders et al (1-D)
  Accuracy factor for lattice sums       =   12.000


  Analytic derivatives to be used

  Time limit = Infinity

  Maximum range for interatomic potentials =    100000.000000 Angstroms

  General interatomic potentials :

--------------------------------------------------------------------------------
Atom  Types   Potential      Parameter       Value         Units   Cutoffs(Ang)
  1     2                                                            Min /  Max 
--------------------------------------------------------------------------------
O    s Zr   s Buckingham    Buckingham A     985.86900    eV        0.000 12.000
                            Buckingham rho  0.37600000    Ang       
                            Buckingham C     0.0000000    eV*Ang^6  
--------------------------------------------------------------------------------
O    s O    s Buckingham    Buckingham A     22764.300    eV        0.000 12.000
                            Buckingham rho  0.14900000    Ang       
                            Buckingham C     27.890000    eV*Ang^6  
--------------------------------------------------------------------------------
Zr   c Zr   s Spring (c-s)  Spring k 2       169.61700    eV*Ang^-2 0.000  0.800
                            Spring k 4       0.0000000    eV*Ang^-4 
--------------------------------------------------------------------------------
O    c O    s Spring (c-s)  Spring k 2       27.290000    eV*Ang^-2 0.000  0.800
                            Spring k 4       0.0000000    eV*Ang^-4 
--------------------------------------------------------------------------------

********************************************************************************
*  Output for configuration   1 : ZrO2                                         *
********************************************************************************


  Components of energy : 

--------------------------------------------------------------------------------
  Interatomic potentials     =          22.43756329 eV    
  Monopole - monopole (real) =         -15.67991073 eV    
  Monopole - monopole (recip)=        -116.52038266 eV    
  Monopole - monopole (total)=        -132.20029339 eV    
--------------------------------------------------------------------------------
  Total lattice energy : 
    Primitive unit cell      =        -109.76273010 eV    
    Non-primitive unit cell  =        -439.05092039 eV    
--------------------------------------------------------------------------------
  Total lattice energy (in kJmol-1): 
    Primitive unit cell      =          -10590.4256 kJ/(mole unit cells)
    Non-primitive unit cell  =          -42361.7023 kJ/(mole unit cells)
--------------------------------------------------------------------------------


  Number of variables =        1

  Maximum number of calculations  =          1000
  Maximum Hessian update interval =            10
  Maximum step size               =   1.000000000
  Maximum parameter tolerance     =   0.000010000
  Maximum function  tolerance     =   0.000010000
  Maximum gradient  tolerance     =   0.001000000
  Maximum gradient  component     =   0.010000000

  Symmetry constrained optimisation

  Symmetry used for second derivatives

  Cell parameters to be optimised using strains

  Newton-Raphson optimiser to be used

  BFGS hessian update to be used

  Lower half triangular hessian to be used

  Start of bulk optimisation :

  Cycle:      0 Energy:      -109.762730  Gnorm:      0.588311  CPU:    0.006
  ** Hessian calculated **
  Cycle:      1 Energy:      -109.763059  Gnorm:      0.000316  CPU:    0.009


  **** Optimisation achieved ****


  Final energy =    -109.76305939 eV
  Final Gnorm  =       0.00000099

  Components of energy : 

--------------------------------------------------------------------------------
  Interatomic potentials     =          22.28919976 eV    
  Monopole - monopole (real) =         -15.66235280 eV    
  Monopole - monopole (recip)=        -116.38990634 eV    
  Monopole - monopole (total)=        -132.05225914 eV    
--------------------------------------------------------------------------------
  Total lattice energy : 
    Primitive unit cell      =        -109.76305939 eV    
    Non-primitive unit cell  =        -439.05223754 eV    
--------------------------------------------------------------------------------
  Total lattice energy (in kJmol-1): 
    Primitive unit cell      =          -10590.4573 kJ/(mole unit cells)
    Non-primitive unit cell  =          -42361.8294 kJ/(mole unit cells)
--------------------------------------------------------------------------------

  Final asymmetric unit coordinates :

--------------------------------------------------------------------------------
   No.  Atomic        x           y           z         Radius
        Label       (Frac)      (Frac)      (Frac)       (Angs) 
--------------------------------------------------------------------------------
     1  Zr    c     0.000000    0.000000    0.000000    0.000000
     2  O     c     0.250000    0.250000    0.250000    0.000000
     3  Zr    s     0.000000    0.000000    0.000000    0.000000
     4  O     s     0.250000    0.250000    0.250000    0.000000
--------------------------------------------------------------------------------

  Final Cartesian lattice vectors (Angstroms) :

        0.000000    2.537842    2.537842
        2.537842    0.000000    2.537842
        2.537842    2.537842    0.000000


  Final cell parameters and derivatives :

--------------------------------------------------------------------------------
       a            3.589050 Angstrom     dE/de1(xx)    -0.000001 eV/strain
       b            3.589050 Angstrom     dE/de2(yy)     0.000000 eV/strain
       c            3.589050 Angstrom     dE/de3(zz)     0.000000 eV/strain
       alpha       60.000000 Degrees      dE/de4(yz)     0.000000 eV/strain
       beta        60.000000 Degrees      dE/de5(xz)     0.000000 eV/strain
       gamma       60.000000 Degrees      dE/de6(xy)     0.000000 eV/strain
--------------------------------------------------------------------------------

  Primitive cell volume =            32.690656 Angs**3

  Density of cell =      6.259124 g/cm**3

  Non-primitive lattice parameters :

  a    =     5.075684  b   =     5.075684  c    =     5.075684
  alpha=    90.000000  beta=    90.000000  gamma=    90.000000

  Non-primitive cell volume =           130.762624 Angs**3


  Final internal derivatives :

--------------------------------------------------------------------------------
   No.  Atomic          a             b             c           Radius
        Label          (eV)          (eV)          (eV)        (eV/Angs)
--------------------------------------------------------------------------------
      1 Zr    c       0.000000      0.000000      0.000000      0.000000
      2 O     c       0.000000      0.000000      0.000000      0.000000
      3 Zr    s       0.000000      0.000000      0.000000      0.000000
      4 O     s       0.000000      0.000000      0.000000      0.000000
--------------------------------------------------------------------------------
  Maximum abs         0.000000      0.000000      0.000000      0.000000
--------------------------------------------------------------------------------

  Comparison of initial and final structures : 

--------------------------------------------------------------------------------
  Parameter   Initial value   Final value   Difference    Units      Percent
--------------------------------------------------------------------------------
    Volume       130.323843    130.762624     0.438781    Angs**3      0.34
    a              5.070000      5.075684     0.005684    Angstroms    0.11
    b              5.070000      5.075684     0.005684    Angstroms    0.11
    c              5.070000      5.075684     0.005684    Angstroms    0.11
    alpha         90.000000     90.000000     0.000000    Degrees      0.00
    beta          90.000000     90.000000     0.000000    Degrees      0.00
    gamma         90.000000     90.000000     0.000000    Degrees      0.00
      1 x          0.000000      0.000000     0.000000    Fractional   0.00
      1 y          0.000000      0.000000     0.000000    Fractional   0.00
      1 z          0.000000      0.000000     0.000000    Fractional   0.00
      2 x          0.250000      0.250000     0.000000    Fractional   0.00
      2 y          0.250000      0.250000     0.000000    Fractional   0.00
      2 z          0.250000      0.250000     0.000000    Fractional   0.00
      3 x          0.000000      0.000000     0.000000    Fractional   0.00
      3 y          0.000000      0.000000     0.000000    Fractional   0.00
      3 z          0.000000      0.000000     0.000000    Fractional   0.00
      4 x          0.250000      0.250000     0.000000    Fractional   0.00
      4 y          0.250000      0.250000     0.000000    Fractional   0.00
      4 z          0.250000      0.250000     0.000000    Fractional   0.00
--------------------------------------------------------------------------------


  Distance calculation :


  Cutoff for distances  =      4.000000 Angstroms

--------------------------------------------------------------------------------
  Asymmetric unit site  Full lattice sites    No.  Distance      No.  Distance
      No.   At.No.            At.No.                (Angs)             (Angs) 
--------------------------------------------------------------------------------
       1   Zr    core        Zr    core        12    3.5891
                             Zr    shell       12    3.5891
                             O     core         8    2.1978
                             O     shell        8    2.1978
--------------------------------------------------------------------------------
       2   O     core        Zr    core         4    2.1978
                             Zr    shell        4    2.1978
                             O     core         6    2.5378       12    3.5891
                             O     shell        6    2.5378       12    3.5891
--------------------------------------------------------------------------------
       3   Zr    shell       Zr    core        12    3.5891
                             Zr    shell       12    3.5891
                             O     core         8    2.1978
                             O     shell        8    2.1978
--------------------------------------------------------------------------------
       4   O     shell       Zr    core         4    2.1978
                             Zr    shell        4    2.1978
                             O     core         6    2.5378       12    3.5891
                             O     shell        6    2.5378       12    3.5891
--------------------------------------------------------------------------------



  Born effective charge tensors : 

-------------------------------------------------------------------------------
  Atom             x           y             z
-------------------------------------------------------------------------------
    1 Zr    x       3.6770      0.0000      0.0000
            y       0.0000      3.6770      0.0000
            z       0.0000      0.0000      3.6770
-------------------------------------------------------------------------------
    2 O     x      -1.8385      0.0000      0.0000
            y       0.0000     -1.8385     -0.0000
            z       0.0000     -0.0000     -1.8385
-------------------------------------------------------------------------------




  Elastic Constant Matrix: (Units=GPa)

-------------------------------------------------------------------------------
  Indices      1         2         3         4         5         6    
-------------------------------------------------------------------------------
       1    616.2933  119.6612  119.6612   -0.0000   -0.0000   -0.0000
       2    119.6612  616.2933  119.6612   -0.0000   -0.0000   -0.0000
       3    119.6612  119.6612  616.2933   -0.0000   -0.0000   -0.0000
       4     -0.0000   -0.0000   -0.0000  100.8598    0.0000   -0.0000
       5     -0.0000   -0.0000   -0.0000    0.0000  100.8598    0.0000
       6     -0.0000   -0.0000   -0.0000   -0.0000    0.0000  100.8598
-------------------------------------------------------------------------------


  Elastic Compliance Matrix: (Units=1/GPa)

-------------------------------------------------------------------------------
  Indices      1         2         3         4         5         6    
-------------------------------------------------------------------------------
       1    0.001732 -0.000282 -0.000282  0.000000  0.000000  0.000000
       2   -0.000282  0.001732 -0.000282 -0.000000  0.000000  0.000000
       3   -0.000282 -0.000282  0.001732  0.000000  0.000000  0.000000
       4    0.000000 -0.000000  0.000000  0.009915 -0.000000  0.000000
       5    0.000000  0.000000  0.000000 -0.000000  0.009915 -0.000000
       6    0.000000  0.000000  0.000000  0.000000 -0.000000  0.009915
-------------------------------------------------------------------------------

  Mechanical properties :

-------------------------------------------------------------------------------
  Convention :                    Reuss         Voigt         Hill
-------------------------------------------------------------------------------
  Bulk  Modulus (GPa)     =     285.20524     285.20524     285.20524
  Shear Modulus (GPa)     =     132.28031     159.84228     146.06129
-------------------------------------------------------------------------------
  Velocity S-wave (km/s)  =       4.59717       5.05346       4.83071
  Velocity P-wave (km/s)  =       8.58749       8.92280       8.75675
-------------------------------------------------------------------------------
  Compressibility (1/GPa) =    0.00350625
-------------------------------------------------------------------------------
  Stress axis :                     x             y             z
-------------------------------------------------------------------------------
  Youngs Moduli (GPa)     =     577.38110     577.38110     577.38110
-------------------------------------------------------------------------------
  Poissons Ratio (x)      =                     0.16259       0.16259
  Poissons Ratio (y)      =       0.16259                     0.16259
  Poissons Ratio (z)      =       0.16259       0.16259
-------------------------------------------------------------------------------


  Piezoelectric Strain Matrix: (Units=C/m**2)

-------------------------------------------------------------------------------
  Indices      1         2         3         4         5         6    
-------------------------------------------------------------------------------
       x    -0.00000   0.00000   0.00000   0.00000   0.00000   0.00000
       y    -0.00000  -0.00000  -0.00000   0.00000   0.00000   0.00000
       z    -0.00000  -0.00000  -0.00000   0.00000   0.00000   0.00000
-------------------------------------------------------------------------------


  Piezoelectric Stress Matrix: (Units=10**-11 C/N)

-------------------------------------------------------------------------------
  Indices      1         2         3         4         5         6    
-------------------------------------------------------------------------------
       x    -0.00000   0.00000   0.00000   0.00000   0.00000   0.00000
       y    -0.00000  -0.00000  -0.00000   0.00000   0.00000   0.00000
       z     0.00000   0.00000  -0.00000   0.00000   0.00000   0.00000
-------------------------------------------------------------------------------


  Static dielectric constant tensor : 

-------------------------------------------------------------------------------
              x         y         z
-------------------------------------------------------------------------------
       x    26.88485   0.00000   0.00000
       y     0.00000  26.88485   0.00000
       z     0.00000   0.00000  26.88485
--------------------------------------------------------------------------------

  High frequency dielectric constant tensor : 

-------------------------------------------------------------------------------
              x         y         z
-------------------------------------------------------------------------------
       x     2.63099   0.00000   0.00000
       y     0.00000   2.63099   0.00000
       z     0.00000   0.00000   2.63099
-------------------------------------------------------------------------------

  Static refractive indices : 

-------------------------------------------------------------------------------
    1 =    5.18506      2 =    5.18506      3 =    5.18506
-------------------------------------------------------------------------------

  High frequency refractive indices : 

-------------------------------------------------------------------------------
    1 =    1.62203      2 =    1.62203      3 =    1.62203
-------------------------------------------------------------------------------


  Time to end of optimisation =       0.0143 seconds

********************************************************************************
*  Defect calculation for configuration   1 :                                  *
********************************************************************************

  Total number of defects =      3

  Total charge on defect  =   2.00

  Defect centre is at   0.2600   0.2500   0.2500  Frac

  Region 1 radius =  12.0000      Number of ions =   1352

  Number of symmetry inequivalent region 1 ions  =    416

  Region 2 radius =  24.0000      Number of ions =   9340

  Number of symmetry inequivalent region 2a ions =   2566

  Region 2a mode = 4 : screened electrostatics due to region 1 
                       neglect correction to region 1 forces from 2a
                       region 2a displacements based on defects only

  Region 2a ions will only interact with defects in region 1

  Vacancies:

--------------------------------------------------------------------------------
    Specification type     Symbol/Number         x          y          z
--------------------------------------------------------------------------------
    Fractional                               0.250000   0.250000   0.250000
    Fractional                               0.750000   0.250000   0.250000
--------------------------------------------------------------------------------

  Interstitials:

--------------------------------------------------------------------------------
    Specification type     Symbol/Number         x          y          z
--------------------------------------------------------------------------------
    Atom/Fractional         O                0.260000   0.250000   0.250000
--------------------------------------------------------------------------------


  Symmetry reduced region 1 (Relative to defect centre) :

--------------------------------------------------------------------------------
   No.   Atomic       x            y             z       Radius  Multiplicity   
         Label      (Angs)       (Angs)        (Angs)    (Angs)     
--------------------------------------------------------------------------------
     1  O     c      0.0000       0.0000       0.0000    0.0000     1    Defect
     2  Zr    c      1.2182 *    -1.2689 *     1.2689    0.0000     2          
     3  Zr    c     -1.3197 *     1.2689 *     1.2689    0.0000     2          
     4  O     c     -0.0508 *     2.5378 *    -0.0000 *  0.0000     4          
     5  O     c     -2.5886 *    -0.0000      -0.0000    0.0000     1          
     6  O     c      2.4871 *     0.0000 *    -2.5378 *  0.0000     4          
     7  O     c     -0.0508 *     2.5378 *     2.5378    0.0000     2          
     8  O     c     -0.0508 *    -2.5378 *     2.5378    0.0000     2          
     9  O     c     -2.5886 *     0.0000 *     2.5378 *  0.0000     4          
    10  Zr    c      3.7560 *     1.2689 *     1.2689    0.0000     2          
    11  Zr    c      1.2182 *     1.2689 *     3.8068 *  0.0000     4          
    12  Zr    c     -1.3197 *    -3.8068 *     1.2689 *  0.0000     4          
    13  Zr    c     -3.8575 *    -1.2689 *     1.2689    0.0000     2          
    14  O     c      2.4871 *     2.5378 *     2.5378    0.0000     2          
    15  O     c      2.4871 *     2.5378 *    -2.5378    0.0000     2          
    16  O     c     -2.5886 *     2.5378 *     2.5378    0.0000     2          
    17  O     c     -2.5886 *    -2.5378 *     2.5378    0.0000     2          
    18  O     c      5.0249 *     0.0000       0.0000    0.0000     1          
    19  O     c     -0.0508 *    -5.0757 *     0.0000 *  0.0000     4          
    20  O     c     -5.1264 *     0.0000       0.0000    0.0000     1          
    21  Zr    c      3.7560 *     3.8068 *    -1.2689 *  0.0000     4          
    22  Zr    c      1.2182 *    -3.8068 *     3.8068    0.0000     2          
    23  Zr    c     -1.3197 *     3.8068 *     3.8068    0.0000     2          
    24  Zr    c     -3.8575 *     3.8068 *     1.2689 *  0.0000     4          
    25  O     c      5.0249 *     2.5378 *    -0.0000 *  0.0000     4          
    26  O     c      2.4871 *     5.0757 *    -0.0000 *  0.0000     4          
    27  O     c     -0.0508 *     5.0757 *     2.5378 *  0.0000     4          
    28  O     c     -0.0508 *    -2.5378 *     5.0757 *  0.0000     4          
    29  O     c     -2.5886 *     5.0757 *    -0.0000 *  0.0000     4          
    30  O     c     -5.1264 *    -0.0000 *     2.5378 *  0.0000     4          
    31  O     c      5.0249 *     2.5378 *    -2.5378    0.0000     2          
    32  O     c      5.0249 *     2.5378 *     2.5378    0.0000     2          
    33  O     c      2.4871 *    -5.0757 *     2.5378 *  0.0000     4          
    34  O     c      2.4871 *     5.0757 *     2.5378 *  0.0000     4          
    35  O     c     -2.5886 *     5.0757 *     2.5378 *  0.0000     4          
    36  O     c     -2.5886 *    -5.0757 *     2.5378 *  0.0000     4          
    37  O     c     -5.1264 *     2.5378 *     2.5378    0.0000     2          
    38  O     c     -5.1264 *    -2.5378 *     2.5378    0.0000     2          
    39  Zr    c      6.2938 *     1.2689 *    -1.2689    0.0000     2          
    40  Zr    c      3.7560 *     3.8068 *     3.8068    0.0000     2          
    41  Zr    c      1.2182 *    -1.2689 *     6.3446 *  0.0000     4          
    42  Zr    c     -1.3197 *     1.2689 *     6.3446 *  0.0000     4          
    43  Zr    c     -3.8575 *     3.8068 *    -3.8068    0.0000     2          
    44  Zr    c     -6.3954 *     1.2689 *     1.2689    0.0000     2          
    45  O     c      5.0249 *     5.0757 *     0.0000 *  0.0000     4          
    46  O     c     -0.0508 *     5.0757 *     5.0757    0.0000     2          
    47  O     c     -0.0508 *    -5.0757 *     5.0757    0.0000     2          
    48  O     c     -5.1264 *     5.0757 *     0.0000 *  0.0000     4          
    49  Zr    c      6.2938 *    -1.2689 *    -3.8068 *  0.0000     4          
    50  Zr    c      3.7560 *     1.2689 *     6.3446 *  0.0000     4          
    51  Zr    c      1.2182 *     3.8068 *     6.3446 *  0.0000     4          
    52  Zr    c     -1.3197 *     3.8068 *    -6.3446 *  0.0000     4          
    53  Zr    c     -3.8575 *     1.2689 *    -6.3446 *  0.0000     4          
    54  Zr    c     -6.3954 *     1.2689 *    -3.8068 *  0.0000     4          
    55  O     c      7.5628 *    -0.0000      -0.0000    0.0000     1          
    56  O     c      5.0249 *     5.0757 *     2.5378 *  0.0000     4          
    57  O     c      5.0249 *    -2.5378 *     5.0757 *  0.0000     4          
    58  O     c      2.4871 *     5.0757 *     5.0757    0.0000     2          
    59  O     c      2.4871 *    -5.0757 *     5.0757    0.0000     2          
    60  O     c     -0.0508 *    -0.0000 *     7.6135 *  0.0000     4          
    61  O     c     -2.5886 *     5.0757 *     5.0757    0.0000     2          
    62  O     c     -2.5886 *    -5.0757 *     5.0757    0.0000     2          
    63  O     c     -5.1264 *     2.5378 *     5.0757 *  0.0000     4          
    64  O     c     -5.1264 *    -2.5378 *     5.0757 *  0.0000     4          
    65  O     c     -7.6643 *    -0.0000      -0.0000    0.0000     1          
    66  O     c      7.5628 *     2.5378 *     0.0000 *  0.0000     4          
    67  O     c      2.4871 *     0.0000 *     7.6135 *  0.0000     4          
    68  O     c     -0.0508 *    -7.6135 *     2.5378 *  0.0000     4          
    69  O     c     -0.0508 *     2.5378 *     7.6135 *  0.0000     4          
    70  O     c     -2.5886 *    -7.6135 *     0.0000 *  0.0000     4          
    71  O     c     -7.6643 *    -2.5378 *     0.0000 *  0.0000     4          
    72  Zr    c      6.2938 *     3.8068 *    -3.8068    0.0000     2          
    73  Zr    c      3.7560 *    -3.8068 *     6.3446 *  0.0000     4          
    74  Zr    c     -3.8575 *     3.8068 *     6.3446 *  0.0000     4          
    75  Zr    c     -6.3954 *     3.8068 *     3.8068    0.0000     2          
    76  O     c      7.5628 *     2.5378 *     2.5378    0.0000     2          
    77  O     c      7.5628 *     2.5378 *    -2.5378    0.0000     2          
    78  O     c      2.4871 *    -2.5378 *     7.6135 *  0.0000     4          
    79  O     c      2.4871 *     7.6135 *     2.5378 *  0.0000     4          
    80  O     c     -2.5886 *     7.6135 *    -2.5378 *  0.0000     4          
    81  O     c     -2.5886 *     2.5378 *     7.6135 *  0.0000     4          
    82  O     c     -7.6643 *    -2.5378 *    -2.5378    0.0000     2          
    83  O     c     -7.6643 *    -2.5378 *     2.5378    0.0000     2          
    84  O     c      5.0249 *    -5.0757 *    -5.0757    0.0000     2          
    85  O     c      5.0249 *    -5.0757 *     5.0757    0.0000     2          
    86  O     c     -5.1264 *     5.0757 *     5.0757    0.0000     2          
    87  O     c     -5.1264 *    -5.0757 *     5.0757    0.0000     2          
    88  Zr    c      8.8317 *     1.2689 *     1.2689    0.0000     2          
    89  Zr    c      6.2938 *     6.3446 *    -1.2689 *  0.0000     4          
    90  Zr    c      1.2182 *    -6.3446 *     6.3446    0.0000     2          
    91  Zr    c      1.2182 *     8.8824 *     1.2689 *  0.0000     4          
    92  Zr    c     -1.3197 *     6.3446 *     6.3446    0.0000     2          
    93  Zr    c     -1.3197 *     8.8824 *    -1.2689 *  0.0000     4          
    94  Zr    c     -6.3954 *    -6.3446 *    -1.2689 *  0.0000     4          
    95  O     c      7.5628 *     5.0757 *    -0.0000 *  0.0000     4          
    96  Zr    c     -8.9332 *    -1.2689 *     1.2689    0.0000     2          
    97  O     c      5.0249 *     7.6135 *    -0.0000 *  0.0000     4          
    98  O     c     -0.0508 *     7.6135 *     5.0757 *  0.0000     4          
    99  O     c     -0.0508 *    -5.0757 *     7.6135 *  0.0000     4          
   100  O     c     -5.1264 *    -0.0000 *     7.6135 *  0.0000     4          
   101  O     c     -7.6643 *    -0.0000 *     5.0757 *  0.0000     4          
   102  O     c      7.5628 *     5.0757 *    -2.5378 *  0.0000     4          
   103  O     c      7.5628 *     5.0757 *     2.5378 *  0.0000     4          
   104  O     c      5.0249 *    -2.5378 *     7.6135 *  0.0000     4          
   105  O     c      5.0249 *     2.5378 *     7.6135 *  0.0000     4          
   106  O     c      2.4871 *     5.0757 *     7.6135 *  0.0000     4          
   107  O     c      2.4871 *    -7.6135 *     5.0757 *  0.0000     4          
   108  O     c     -2.5886 *     5.0757 *     7.6135 *  0.0000     4          
   109  O     c     -2.5886 *    -7.6135 *     5.0757 *  0.0000     4          
   110  O     c     -5.1264 *    -2.5378 *    -7.6135 *  0.0000     4          
   111  O     c     -5.1264 *     2.5378 *    -7.6135 *  0.0000     4          
   112  O     c     -7.6643 *    -2.5378 *    -5.0757 *  0.0000     4          
   113  O     c     -7.6643 *     2.5378 *    -5.0757 *  0.0000     4          
   114  Zr    c      8.8317 *     3.8068 *    -1.2689 *  0.0000     4          
   115  Zr    c      6.2938 *     6.3446 *     3.8068 *  0.0000     4          
   116  Zr    c      3.7560 *     6.3446 *     6.3446    0.0000     2          
   117  Zr    c      3.7560 *     8.8824 *    -1.2689 *  0.0000     4          
   118  Zr    c      1.2182 *     8.8824 *    -3.8068 *  0.0000     4          
   119  Zr    c     -1.3197 *     3.8068 *     8.8824 *  0.0000     4          
   120  Zr    c     -3.8575 *    -6.3446 *     6.3446    0.0000     2          
   121  Zr    c     -3.8575 *     1.2689 *     8.8824 *  0.0000     4          
   122  Zr    c     -6.3954 *    -6.3446 *     3.8068 *  0.0000     4          
   123  Zr    c     -8.9332 *    -1.2689 *    -3.8068 *  0.0000     4          
   124  O     c     10.1006 *     0.0000       0.0000    0.0000     1          
   125  O     c     -0.0508 *    -0.0000 *    10.1514 *  0.0000     4          
   126  O     c    -10.2021 *    -0.0000       0.0000    0.0000     1          
   127  Zr    c      8.8317 *     3.8068 *     3.8068    0.0000     2          
   128  Zr    c      3.7560 *     8.8824 *     3.8068 *  0.0000     4          
   129  Zr    c     -3.8575 *    -8.8824 *     3.8068 *  0.0000     4          
   130  O     c     10.1006 *     2.5378 *    -0.0000 *  0.0000     4          
   131  O     c      7.5628 *     5.0757 *     5.0757    0.0000     2          
   132  O     c      7.5628 *     5.0757 *    -5.0757    0.0000     2          
   133  Zr    c     -8.9332 *    -3.8068 *     3.8068    0.0000     2          
   134  O     c      5.0249 *     7.6135 *     5.0757 *  0.0000     4          
   135  O     c      5.0249 *    -5.0757 *     7.6135 *  0.0000     4          
   136  O     c      2.4871 *    -0.0000 *    10.1514 *  0.0000     4          
   137  O     c     -0.0508 *    10.1514 *    -2.5378 *  0.0000     4          
   138  O     c     -0.0508 *     2.5378 *    10.1514 *  0.0000     4          
   139  O     c     -2.5886 *    -0.0000 *    10.1514 *  0.0000     4          
   140  O     c     -5.1264 *    -5.0757 *     7.6135 *  0.0000     4          
   141  O     c     -5.1264 *     5.0757 *     7.6135 *  0.0000     4          
   142  O     c     -7.6643 *     5.0757 *     5.0757    0.0000     2          
   143  O     c     -7.6643 *    -5.0757 *     5.0757    0.0000     2          
   144  O     c    -10.2021 *    -2.5378 *    -0.0000 *  0.0000     4          
   145  O     c     10.1006 *     2.5378 *     2.5378    0.0000     2          
   146  O     c     10.1006 *     2.5378 *    -2.5378    0.0000     2          
   147  O     c      7.5628 *     7.6135 *     0.0000 *  0.0000     4          
   148  O     c      2.4871 *    -2.5378 *    10.1514 *  0.0000     4          
   149  O     c      2.4871 *     2.5378 *    10.1514 *  0.0000     4          
   150  O     c     -0.0508 *    -7.6135 *     7.6135    0.0000     2          
   151  O     c     -0.0508 *     7.6135 *     7.6135    0.0000     2          
   152  O     c     -2.5886 *     2.5378 *    10.1514 *  0.0000     4          
   153  O     c     -2.5886 *   -10.1514 *     2.5378 *  0.0000     4          
   154  O     c     -7.6643 *    -7.6135 *     0.0000 *  0.0000     4          
   155  O     c    -10.2021 *    -2.5378 *    -2.5378    0.0000     2          
   156  O     c    -10.2021 *    -2.5378 *     2.5378    0.0000     2          
   157  Zr    c      8.8317 *     1.2689 *     6.3446 *  0.0000     4          
   158  Zr    c      6.2938 *    -6.3446 *     6.3446    0.0000     2          
   159  Zr    c      6.2938 *     8.8824 *     1.2689 *  0.0000     4          
   160  Zr    c      1.2182 *     8.8824 *     6.3446 *  0.0000     4          
   161  Zr    c     -1.3197 *    -8.8824 *     6.3446 *  0.0000     4          
   162  Zr    c     -6.3954 *     6.3446 *     6.3446    0.0000     2          
   163  Zr    c     -6.3954 *    -8.8824 *     1.2689 *  0.0000     4          
   164  O     c      7.5628 *     2.5378 *     7.6135 *  0.0000     4          
   165  O     c      7.5628 *     7.6135 *    -2.5378 *  0.0000     4          
   166  Zr    c     -8.9332 *     6.3446 *    -1.2689 *  0.0000     4          
   167  O     c      2.4871 *     7.6135 *     7.6135    0.0000     2          
   168  O     c      2.4871 *    -7.6135 *     7.6135    0.0000     2          
   169  O     c     -2.5886 *     7.6135 *     7.6135    0.0000     2          
   170  O     c     -2.5886 *    -7.6135 *     7.6135    0.0000     2          
   171  O     c     -7.6643 *     7.6135 *    -2.5378 *  0.0000     4          
   172  O     c     -7.6643 *     7.6135 *     2.5378 *  0.0000     4          
   173  O     c     10.1006 *     0.0000 *    -5.0757 *  0.0000     4          
   174  O     c      5.0249 *     0.0000 *    10.1514 *  0.0000     4          
   175  O     c     -0.0508 *   -10.1514 *     5.0757 *  0.0000     4          
   176  O     c     -0.0508 *     5.0757 *    10.1514 *  0.0000     4          
   177  O     c     -5.1264 *   -10.1514 *     0.0000 *  0.0000     4          
   178  O     c    -10.2021 *    -0.0000 *     5.0757 *  0.0000     4          
   179  Zr    c     11.3695 *     1.2689 *    -1.2689    0.0000     2          
   180  Zr    c      8.8317 *     3.8068 *    -6.3446 *  0.0000     4          
   181  Zr    c      6.2938 *    -3.8068 *     8.8824 *  0.0000     4          
   182  Zr    c      3.7560 *    -6.3446 *     8.8824 *  0.0000     4          
   183  Zr    c      1.2182 *    -1.2689 *    11.4203 *  0.0000     4          
   184  Zr    c     -1.3197 *     1.2689 *    11.4203 *  0.0000     4          
   185  Zr    c     -3.8575 *     6.3446 *     8.8824 *  0.0000     4          
   186  O     c     10.1006 *     5.0757 *     2.5378 *  0.0000     4          
   187  O     c     10.1006 *     5.0757 *    -2.5378 *  0.0000     4          
   188  Zr    c     -6.3954 *     3.8068 *     8.8824 *  0.0000     4          
   189  Zr    c     -8.9332 *    -6.3446 *    -3.8068 *  0.0000     4          
   190  O     c      5.0249 *    -2.5378 *    10.1514 *  0.0000     4          
   191  O     c      5.0249 *    10.1514 *     2.5378 *  0.0000     4          
   192  Zr    c    -11.4710 *    -1.2689 *    -1.2689    0.0000     2          
   193  O     c      2.4871 *    -5.0757 *    10.1514 *  0.0000     4          
   194  O     c      2.4871 *    10.1514 *     5.0757 *  0.0000     4          
   195  O     c     -2.5886 *     5.0757 *    10.1514 *  0.0000     4          
   196  O     c     -2.5886 *    -5.0757 *    10.1514 *  0.0000     4          
   197  O     c     -5.1264 *     2.5378 *    10.1514 *  0.0000     4          
   198  O     c     -5.1264 *    -2.5378 *    10.1514 *  0.0000     4          
   199  O     c    -10.2021 *     5.0757 *     2.5378 *  0.0000     4          
   200  O     c    -10.2021 *    -2.5378 *     5.0757 *  0.0000     4          
   201  O     c      7.5628 *    -5.0757 *     7.6135 *  0.0000     4          
   202  O     c      7.5628 *     7.6135 *     5.0757 *  0.0000     4          
   203  O     c      5.0249 *    -7.6135 *     7.6135    0.0000     2          
   204  O     c      5.0249 *     7.6135 *     7.6135    0.0000     2          
   205  O     c     -5.1264 *    -7.6135 *     7.6135    0.0000     2          
   206  O     c     -5.1264 *     7.6135 *     7.6135    0.0000     2          
   207  O     c     -7.6643 *    -7.6135 *    -5.0757 *  0.0000     4          
   208  O     c     -7.6643 *    -7.6135 *     5.0757 *  0.0000     4          
   209  O     s      0.0000       0.0000       0.0000    0.0000     1    Defect
   210  Zr    s      1.2182 *    -1.2689 *     1.2689    0.0000     2          
   211  Zr    s     -1.3197 *     1.2689 *     1.2689    0.0000     2          
   212  O     s     -0.0508 *     2.5378 *    -0.0000 *  0.0000     4          
   213  O     s     -2.5886 *    -0.0000      -0.0000    0.0000     1          
   214  O     s      2.4871 *     0.0000 *    -2.5378 *  0.0000     4          
   215  O     s     -0.0508 *     2.5378 *     2.5378    0.0000     2          
   216  O     s     -0.0508 *    -2.5378 *     2.5378    0.0000     2          
   217  O     s     -2.5886 *     0.0000 *     2.5378 *  0.0000     4          
   218  Zr    s      3.7560 *     1.2689 *     1.2689    0.0000     2          
   219  Zr    s      1.2182 *     1.2689 *     3.8068 *  0.0000     4          
   220  Zr    s     -1.3197 *    -3.8068 *     1.2689 *  0.0000     4          
   221  Zr    s     -3.8575 *    -1.2689 *     1.2689    0.0000     2          
   222  O     s      2.4871 *     2.5378 *     2.5378    0.0000     2          
   223  O     s      2.4871 *     2.5378 *    -2.5378    0.0000     2          
   224  O     s     -2.5886 *     2.5378 *     2.5378    0.0000     2          
   225  O     s     -2.5886 *    -2.5378 *     2.5378    0.0000     2          
   226  O     s      5.0249 *     0.0000       0.0000    0.0000     1          
   227  O     s     -0.0508 *    -5.0757 *     0.0000 *  0.0000     4          
   228  O     s     -5.1264 *     0.0000       0.0000    0.0000     1          
   229  Zr    s      3.7560 *     3.8068 *    -1.2689 *  0.0000     4          
   230  Zr    s      1.2182 *    -3.8068 *     3.8068    0.0000     2          
   231  Zr    s     -1.3197 *     3.8068 *     3.8068    0.0000     2          
   232  Zr    s     -3.8575 *     3.8068 *     1.2689 *  0.0000     4          
   233  O     s      5.0249 *     2.5378 *    -0.0000 *  0.0000     4          
   234  O     s      2.4871 *     5.0757 *    -0.0000 *  0.0000     4          
   235  O     s     -0.0508 *     5.0757 *     2.5378 *  0.0000     4          
   236  O     s     -0.0508 *    -2.5378 *     5.0757 *  0.0000     4          
   237  O     s     -2.5886 *     5.0757 *    -0.0000 *  0.0000     4          
   238  O     s     -5.1264 *    -0.0000 *     2.5378 *  0.0000     4          
   239  O     s      5.0249 *     2.5378 *    -2.5378    0.0000     2          
   240  O     s      5.0249 *     2.5378 *     2.5378    0.0000     2          
   241  O     s      2.4871 *    -5.0757 *     2.5378 *  0.0000     4          
   242  O     s      2.4871 *     5.0757 *     2.5378 *  0.0000     4          
   243  O     s     -2.5886 *     5.0757 *     2.5378 *  0.0000     4          
   244  O     s     -2.5886 *    -5.0757 *     2.5378 *  0.0000     4          
   245  O     s     -5.1264 *     2.5378 *     2.5378    0.0000     2          
   246  O     s     -5.1264 *    -2.5378 *     2.5378    0.0000     2          
   247  Zr    s      6.2938 *     1.2689 *    -1.2689    0.0000     2          
   248  Zr    s      3.7560 *     3.8068 *     3.8068    0.0000     2          
   249  Zr    s      1.2182 *    -1.2689 *     6.3446 *  0.0000     4          
   250  Zr    s     -1.3197 *     1.2689 *     6.3446 *  0.0000     4          
   251  Zr    s     -3.8575 *     3.8068 *    -3.8068    0.0000     2          
   252  Zr    s     -6.3954 *     1.2689 *     1.2689    0.0000     2          
   253  O     s      5.0249 *     5.0757 *     0.0000 *  0.0000     4          
   254  O     s     -0.0508 *     5.0757 *     5.0757    0.0000     2          
   255  O     s     -0.0508 *    -5.0757 *     5.0757    0.0000     2          
   256  O     s     -5.1264 *     5.0757 *     0.0000 *  0.0000     4          
   257  Zr    s      6.2938 *    -1.2689 *    -3.8068 *  0.0000     4          
   258  Zr    s      3.7560 *     1.2689 *     6.3446 *  0.0000     4          
   259  Zr    s      1.2182 *     3.8068 *     6.3446 *  0.0000     4          
   260  Zr    s     -1.3197 *     3.8068 *    -6.3446 *  0.0000     4          
   261  Zr    s     -3.8575 *     1.2689 *    -6.3446 *  0.0000     4          
   262  Zr    s     -6.3954 *     1.2689 *    -3.8068 *  0.0000     4          
   263  O     s      7.5628 *    -0.0000      -0.0000    0.0000     1          
   264  O     s      5.0249 *     5.0757 *     2.5378 *  0.0000     4          
   265  O     s      5.0249 *    -2.5378 *     5.0757 *  0.0000     4          
   266  O     s      2.4871 *     5.0757 *     5.0757    0.0000     2          
   267  O     s      2.4871 *    -5.0757 *     5.0757    0.0000     2          
   268  O     s     -0.0508 *    -0.0000 *     7.6135 *  0.0000     4          
   269  O     s     -2.5886 *     5.0757 *     5.0757    0.0000     2          
   270  O     s     -2.5886 *    -5.0757 *     5.0757    0.0000     2          
   271  O     s     -5.1264 *     2.5378 *     5.0757 *  0.0000     4          
   272  O     s     -5.1264 *    -2.5378 *     5.0757 *  0.0000     4          
   273  O     s     -7.6643 *    -0.0000      -0.0000    0.0000     1          
   274  O     s      7.5628 *     2.5378 *     0.0000 *  0.0000     4          
   275  O     s      2.4871 *     0.0000 *     7.6135 *  0.0000     4          
   276  O     s     -0.0508 *    -7.6135 *     2.5378 *  0.0000     4          
   277  O     s     -0.0508 *     2.5378 *     7.6135 *  0.0000     4          
   278  O     s     -2.5886 *    -7.6135 *     0.0000 *  0.0000     4          
   279  O     s     -7.6643 *    -2.5378 *     0.0000 *  0.0000     4          
   280  Zr    s      6.2938 *     3.8068 *    -3.8068    0.0000     2          
   281  Zr    s      3.7560 *    -3.8068 *     6.3446 *  0.0000     4          
   282  Zr    s     -3.8575 *     3.8068 *     6.3446 *  0.0000     4          
   283  Zr    s     -6.3954 *     3.8068 *     3.8068    0.0000     2          
   284  O     s      7.5628 *     2.5378 *     2.5378    0.0000     2          
   285  O     s      7.5628 *     2.5378 *    -2.5378    0.0000     2          
   286  O     s      2.4871 *    -2.5378 *     7.6135 *  0.0000     4          
   287  O     s      2.4871 *     7.6135 *     2.5378 *  0.0000     4          
   288  O     s     -2.5886 *     7.6135 *    -2.5378 *  0.0000     4          
   289  O     s     -2.5886 *     2.5378 *     7.6135 *  0.0000     4          
   290  O     s     -7.6643 *    -2.5378 *    -2.5378    0.0000     2          
   291  O     s     -7.6643 *    -2.5378 *     2.5378    0.0000     2          
   292  O     s      5.0249 *    -5.0757 *    -5.0757    0.0000     2          
   293  O     s      5.0249 *    -5.0757 *     5.0757    0.0000     2          
   294  O     s     -5.1264 *     5.0757 *     5.0757    0.0000     2          
   295  O     s     -5.1264 *    -5.0757 *     5.0757    0.0000     2          
   296  Zr    s      8.8317 *     1.2689 *     1.2689    0.0000     2          
   297  Zr    s      6.2938 *     6.3446 *    -1.2689 *  0.0000     4          
   298  Zr    s      1.2182 *    -6.3446 *     6.3446    0.0000     2          
   299  Zr    s      1.2182 *     8.8824 *     1.2689 *  0.0000     4          
   300  Zr    s     -1.3197 *     6.3446 *     6.3446    0.0000     2          
   301  Zr    s     -1.3197 *     8.8824 *    -1.2689 *  0.0000     4          
   302  Zr    s     -6.3954 *    -6.3446 *    -1.2689 *  0.0000     4          
   303  O     s      7.5628 *     5.0757 *    -0.0000 *  0.0000     4          
   304  Zr    s     -8.9332 *    -1.2689 *     1.2689    0.0000     2          
   305  O     s      5.0249 *     7.6135 *    -0.0000 *  0.0000     4          
   306  O     s     -0.0508 *     7.6135 *     5.0757 *  0.0000     4          
   307  O     s     -0.0508 *    -5.0757 *     7.6135 *  0.0000     4          
   308  O     s     -5.1264 *    -0.0000 *     7.6135 *  0.0000     4          
   309  O     s     -7.6643 *    -0.0000 *     5.0757 *  0.0000     4          
   310  O     s      7.5628 *     5.0757 *    -2.5378 *  0.0000     4          
   311  O     s      7.5628 *     5.0757 *     2.5378 *  0.0000     4          
   312  O     s      5.0249 *    -2.5378 *     7.6135 *  0.0000     4          
   313  O     s      5.0249 *     2.5378 *     7.6135 *  0.0000     4          
   314  O     s      2.4871 *     5.0757 *     7.6135 *  0.0000     4          
   315  O     s      2.4871 *    -7.6135 *     5.0757 *  0.0000     4          
   316  O     s     -2.5886 *     5.0757 *     7.6135 *  0.0000     4          
   317  O     s     -2.5886 *    -7.6135 *     5.0757 *  0.0000     4          
   318  O     s     -5.1264 *    -2.5378 *    -7.6135 *  0.0000     4          
   319  O     s     -5.1264 *     2.5378 *    -7.6135 *  0.0000     4          
   320  O     s     -7.6643 *    -2.5378 *    -5.0757 *  0.0000     4          
   321  O     s     -7.6643 *     2.5378 *    -5.0757 *  0.0000     4          
   322  Zr    s      8.8317 *     3.8068 *    -1.2689 *  0.0000     4          
   323  Zr    s      6.2938 *     6.3446 *     3.8068 *  0.0000     4          
   324  Zr    s      3.7560 *     6.3446 *     6.3446    0.0000     2          
   325  Zr    s      3.7560 *     8.8824 *    -1.2689 *  0.0000     4          
   326  Zr    s      1.2182 *     8.8824 *    -3.8068 *  0.0000     4          
   327  Zr    s     -1.3197 *     3.8068 *     8.8824 *  0.0000     4          
   328  Zr    s     -3.8575 *    -6.3446 *     6.3446    0.0000     2          
   329  Zr    s     -3.8575 *     1.2689 *     8.8824 *  0.0000     4          
   330  Zr    s     -6.3954 *    -6.3446 *     3.8068 *  0.0000     4          
   331  Zr    s     -8.9332 *    -1.2689 *    -3.8068 *  0.0000     4          
   332  O     s     10.1006 *     0.0000       0.0000    0.0000     1          
   333  O     s     -0.0508 *    -0.0000 *    10.1514 *  0.0000     4          
   334  O     s    -10.2021 *    -0.0000       0.0000    0.0000     1          
   335  Zr    s      8.8317 *     3.8068 *     3.8068    0.0000     2          
   336  Zr    s      3.7560 *     8.8824 *     3.8068 *  0.0000     4          
   337  Zr    s     -3.8575 *    -8.8824 *     3.8068 *  0.0000     4          
   338  O     s     10.1006 *     2.5378 *    -0.0000 *  0.0000     4          
   339  O     s      7.5628 *     5.0757 *     5.0757    0.0000     2          
   340  O     s      7.5628 *     5.0757 *    -5.0757    0.0000     2          
   341  Zr    s     -8.9332 *    -3.8068 *     3.8068    0.0000     2          
   342  O     s      5.0249 *     7.6135 *     5.0757 *  0.0000     4          
   343  O     s      5.0249 *    -5.0757 *     7.6135 *  0.0000     4          
   344  O     s      2.4871 *    -0.0000 *    10.1514 *  0.0000     4          
   345  O     s     -0.0508 *    10.1514 *    -2.5378 *  0.0000     4          
   346  O     s     -0.0508 *     2.5378 *    10.1514 *  0.0000     4          
   347  O     s     -2.5886 *    -0.0000 *    10.1514 *  0.0000     4          
   348  O     s     -5.1264 *    -5.0757 *     7.6135 *  0.0000     4          
   349  O     s     -5.1264 *     5.0757 *     7.6135 *  0.0000     4          
   350  O     s     -7.6643 *     5.0757 *     5.0757    0.0000     2          
   351  O     s     -7.6643 *    -5.0757 *     5.0757    0.0000     2          
   352  O     s    -10.2021 *    -2.5378 *    -0.0000 *  0.0000     4          
   353  O     s     10.1006 *     2.5378 *     2.5378    0.0000     2          
   354  O     s     10.1006 *     2.5378 *    -2.5378    0.0000     2          
   355  O     s      7.5628 *     7.6135 *     0.0000 *  0.0000     4          
   356  O     s      2.4871 *    -2.5378 *    10.1514 *  0.0000     4          
   357  O     s      2.4871 *     2.5378 *    10.1514 *  0.0000     4          
   358  O     s     -0.0508 *    -7.6135 *     7.6135    0.0000     2          
   359  O     s     -0.0508 *     7.6135 *     7.6135    0.0000     2          
   360  O     s     -2.5886 *     2.5378 *    10.1514 *  0.0000     4          
   361  O     s     -2.5886 *   -10.1514 *     2.5378 *  0.0000     4          
   362  O     s     -7.6643 *    -7.6135 *     0.0000 *  0.0000     4          
   363  O     s    -10.2021 *    -2.5378 *    -2.5378    0.0000     2          
   364  O     s    -10.2021 *    -2.5378 *     2.5378    0.0000     2          
   365  Zr    s      8.8317 *     1.2689 *     6.3446 *  0.0000     4          
   366  Zr    s      6.2938 *    -6.3446 *     6.3446    0.0000     2          
   367  Zr    s      6.2938 *     8.8824 *     1.2689 *  0.0000     4          
   368  Zr    s      1.2182 *     8.8824 *     6.3446 *  0.0000     4          
   369  Zr    s     -1.3197 *    -8.8824 *     6.3446 *  0.0000     4          
   370  Zr    s     -6.3954 *     6.3446 *     6.3446    0.0000     2          
   371  Zr    s     -6.3954 *    -8.8824 *     1.2689 *  0.0000     4          
   372  O     s      7.5628 *     2.5378 *     7.6135 *  0.0000     4          
   373  O     s      7.5628 *     7.6135 *    -2.5378 *  0.0000     4          
   374  Zr    s     -8.9332 *     6.3446 *    -1.2689 *  0.0000     4          
   375  O     s      2.4871 *     7.6135 *     7.6135    0.0000     2          
   376  O     s      2.4871 *    -7.6135 *     7.6135    0.0000     2          
   377  O     s     -2.5886 *     7.6135 *     7.6135    0.0000     2          
   378  O     s     -2.5886 *    -7.6135 *     7.6135    0.0000     2          
   379  O     s     -7.6643 *     7.6135 *    -2.5378 *  0.0000     4          
   380  O     s     -7.6643 *     7.6135 *     2.5378 *  0.0000     4          
   381  O     s     10.1006 *     0.0000 *    -5.0757 *  0.0000     4          
   382  O     s      5.0249 *     0.0000 *    10.1514 *  0.0000     4          
   383  O     s     -0.0508 *   -10.1514 *     5.0757 *  0.0000     4          
   384  O     s     -0.0508 *     5.0757 *    10.1514 *  0.0000     4          
   385  O     s     -5.1264 *   -10.1514 *     0.0000 *  0.0000     4          
   386  O     s    -10.2021 *    -0.0000 *     5.0757 *  0.0000     4          
   387  Zr    s     11.3695 *     1.2689 *    -1.2689    0.0000     2          
   388  Zr    s      8.8317 *     3.8068 *    -6.3446 *  0.0000     4          
   389  Zr    s      6.2938 *    -3.8068 *     8.8824 *  0.0000     4          
   390  Zr    s      3.7560 *    -6.3446 *     8.8824 *  0.0000     4          
   391  Zr    s      1.2182 *    -1.2689 *    11.4203 *  0.0000     4          
   392  Zr    s     -1.3197 *     1.2689 *    11.4203 *  0.0000     4          
   393  Zr    s     -3.8575 *     6.3446 *     8.8824 *  0.0000     4          
   394  O     s     10.1006 *     5.0757 *     2.5378 *  0.0000     4          
   395  O     s     10.1006 *     5.0757 *    -2.5378 *  0.0000     4          
   396  Zr    s     -6.3954 *     3.8068 *     8.8824 *  0.0000     4          
   397  Zr    s     -8.9332 *    -6.3446 *    -3.8068 *  0.0000     4          
   398  O     s      5.0249 *    -2.5378 *    10.1514 *  0.0000     4          
   399  O     s      5.0249 *    10.1514 *     2.5378 *  0.0000     4          
   400  Zr    s    -11.4710 *    -1.2689 *    -1.2689    0.0000     2          
   401  O     s      2.4871 *    -5.0757 *    10.1514 *  0.0000     4          
   402  O     s      2.4871 *    10.1514 *     5.0757 *  0.0000     4          
   403  O     s     -2.5886 *     5.0757 *    10.1514 *  0.0000     4          
   404  O     s     -2.5886 *    -5.0757 *    10.1514 *  0.0000     4          
   405  O     s     -5.1264 *     2.5378 *    10.1514 *  0.0000     4          
   406  O     s     -5.1264 *    -2.5378 *    10.1514 *  0.0000     4          
   407  O     s    -10.2021 *     5.0757 *     2.5378 *  0.0000     4          
   408  O     s    -10.2021 *    -2.5378 *     5.0757 *  0.0000     4          
   409  O     s      7.5628 *    -5.0757 *     7.6135 *  0.0000     4          
   410  O     s      7.5628 *     7.6135 *     5.0757 *  0.0000     4          
   411  O     s      5.0249 *    -7.6135 *     7.6135    0.0000     2          
   412  O     s      5.0249 *     7.6135 *     7.6135    0.0000     2          
   413  O     s     -5.1264 *    -7.6135 *     7.6135    0.0000     2          
   414  O     s     -5.1264 *     7.6135 *     7.6135    0.0000     2          
   415  O     s     -7.6643 *    -7.6135 *    -5.0757 *  0.0000     4          
   416  O     s     -7.6643 *    -7.6135 *     5.0757 *  0.0000     4          
--------------------------------------------------------------------------------


  Constraints on symmetry reduced coordinates :

--------------------------------------------------------------------------------
  Constraint no.      Unconstrained     Constrained    Coefficient    
                         Variable         Variable
--------------------------------------------------------------------------------
           1                 2 y             2 z        -1.00000
           2                 3 y             3 z         1.00000
           3                 7 y             7 z         1.00000
           4                 8 y             8 z        -1.00000
           5                10 y            10 z         1.00000
           6                13 y            13 z        -1.00000
           7                14 y            14 z         1.00000
           8                15 y            15 z        -1.00000
           9                16 y            16 z         1.00000
          10                17 y            17 z        -1.00000
          11                22 y            22 z        -1.00000
          12                23 y            23 z         1.00000
          13                31 y            31 z        -1.00000
          14                32 y            32 z         1.00000
          15                37 y            37 z         1.00000
          16                38 y            38 z        -1.00000
          17                39 y            39 z        -1.00000
          18                40 y            40 z         1.00000
          19                43 y            43 z        -1.00000
          20                44 y            44 z         1.00000
          21                46 y            46 z         1.00000
          22                47 y            47 z        -1.00000
          23                58 y            58 z         1.00000
          24                59 y            59 z        -1.00000
          25                61 y            61 z         1.00000
          26                62 y            62 z        -1.00000
          27                72 y            72 z        -1.00000
          28                75 y            75 z         1.00000
          29                76 y            76 z         1.00000
          30                77 y            77 z        -1.00000
          31                82 y            82 z         1.00000
          32                83 y            83 z        -1.00000
          33                84 y            84 z         1.00000
          34                85 y            85 z        -1.00000
          35                86 y            86 z         1.00000
          36                87 y            87 z        -1.00000
          37                88 y            88 z         1.00000
          38                90 y            90 z        -1.00000
          39                92 y            92 z         1.00000
          40                96 y            96 z        -1.00000
          41               116 y           116 z         1.00000
          42               120 y           120 z        -1.00000
          43               127 y           127 z         1.00000
          44               131 y           131 z         1.00000
          45               132 y           132 z        -1.00000
          46               133 y           133 z        -1.00000
          47               142 y           142 z         1.00000
          48               143 y           143 z        -1.00000
          49               145 y           145 z         1.00000
          50               146 y           146 z        -1.00000
          51               150 y           150 z        -1.00000
          52               151 y           151 z         1.00000
          53               155 y           155 z         1.00000
          54               156 y           156 z        -1.00000
          55               158 y           158 z        -1.00000
          56               162 y           162 z         1.00000
          57               167 y           167 z         1.00000
          58               168 y           168 z        -1.00000
          59               169 y           169 z         1.00000
          60               170 y           170 z        -1.00000
          61               179 y           179 z        -1.00000
          62               192 y           192 z         1.00000
          63               203 y           203 z        -1.00000
          64               204 y           204 z         1.00000
          65               205 y           205 z        -1.00000
          66               206 y           206 z         1.00000
          67               210 y           210 z        -1.00000
          68               211 y           211 z         1.00000
          69               215 y           215 z         1.00000
          70               216 y           216 z        -1.00000
          71               218 y           218 z         1.00000
          72               221 y           221 z        -1.00000
          73               222 y           222 z         1.00000
          74               223 y           223 z        -1.00000
          75               224 y           224 z         1.00000
          76               225 y           225 z        -1.00000
          77               230 y           230 z        -1.00000
          78               231 y           231 z         1.00000
          79               239 y           239 z        -1.00000
          80               240 y           240 z         1.00000
          81               245 y           245 z         1.00000
          82               246 y           246 z        -1.00000
          83               247 y           247 z        -1.00000
          84               248 y           248 z         1.00000
          85               251 y           251 z        -1.00000
          86               252 y           252 z         1.00000
          87               254 y           254 z         1.00000
          88               255 y           255 z        -1.00000
          89               266 y           266 z         1.00000
          90               267 y           267 z        -1.00000
          91               269 y           269 z         1.00000
          92               270 y           270 z        -1.00000
          93               280 y           280 z        -1.00000
          94               283 y           283 z         1.00000
          95               284 y           284 z         1.00000
          96               285 y           285 z        -1.00000
          97               290 y           290 z         1.00000
          98               291 y           291 z        -1.00000
          99               292 y           292 z         1.00000
         100               293 y           293 z        -1.00000
         101               294 y           294 z         1.00000
         102               295 y           295 z        -1.00000
         103               296 y           296 z         1.00000
         104               298 y           298 z        -1.00000
         105               300 y           300 z         1.00000
         106               304 y           304 z        -1.00000
         107               324 y           324 z         1.00000
         108               328 y           328 z        -1.00000
         109               335 y           335 z         1.00000
         110               339 y           339 z         1.00000
         111               340 y           340 z        -1.00000
         112               341 y           341 z        -1.00000
         113               350 y           350 z         1.00000
         114               351 y           351 z        -1.00000
         115               353 y           353 z         1.00000
         116               354 y           354 z        -1.00000
         117               358 y           358 z        -1.00000
         118               359 y           359 z         1.00000
         119               363 y           363 z         1.00000
         120               364 y           364 z        -1.00000
         121               366 y           366 z        -1.00000
         122               370 y           370 z         1.00000
         123               375 y           375 z         1.00000
         124               376 y           376 z        -1.00000
         125               377 y           377 z         1.00000
         126               378 y           378 z        -1.00000
         127               387 y           387 z        -1.00000
         128               400 y           400 z         1.00000
         129               411 y           411 z        -1.00000
         130               412 y           412 z         1.00000
         131               413 y           413 z        -1.00000
         132               414 y           414 z         1.00000
--------------------------------------------------------------------------------


  Components of defect energy : 

--------------------------------------------------------------------------------
  Region 1 - region 1                   =   -106.72252356 eV
  Region 1 - region 2a (unrelaxed)      =    141.77822158 eV
  Region 1 - 2a (relaxed - correction)  =     -2.41506741 eV
  Region 1 (Total)                      =     32.64063060 eV
  Region 2a                             =      1.20755005 eV
  Region 2b                             =     -1.16181978 eV
--------------------------------------------------------------------------------
  Total defect energy                   =     32.68636087 eV
--------------------------------------------------------------------------------

  Largest displacement in region 2 =   0.0067 Angstroms


  Number of variables =     1082

  Maximum number of calculations  =        1000
  Maximum Hessian update interval =          10
  Maximum step size               =   1.0000000
  Maximum parameter tolerance     =   0.0000100
  Maximum function  tolerance     =   0.0000100
  Maximum gradient  tolerance     =   0.0010000

  Symmetry adapted optimisation

  Symmetry to be used for second derivatives

  Newton-Raphson optimiser to be used

  BFGS hessian update to be used

  Lower half triangular hessian to be used

  Start of defect optimisation :

  Cycle:      0 Defect Energy:  32.686361  Gnorm:     0.088868  CPU:    4.871
  ** Hessian calculated **
  Cycle:      1 Defect Energy:  23.137651  Gnorm:     0.035886  CPU:   14.902
  Cycle:      2 Defect Energy:  17.716892  Gnorm:     0.019631  CPU:   23.529
  Cycle:      3 Defect Energy:  16.951062  Gnorm:     0.015170  CPU:   29.318
  Cycle:      4 Defect Energy:  16.196937  Gnorm:     0.008557  CPU:   36.536
  Cycle:      5 Defect Energy:  15.720121  Gnorm:     0.008303  CPU:   43.753
  Cycle:      6 Defect Energy:  15.570072  Gnorm:     0.006331  CPU:   49.538
  Cycle:      7 Defect Energy:  15.418637  Gnorm:     0.004574  CPU:   56.768
  Cycle:      8 Defect Energy:  15.289555  Gnorm:     0.003916  CPU:   64.012
  Cycle:      9 Defect Energy:  15.194099  Gnorm:     0.004150  CPU:   71.237
  Cycle:     10 Defect Energy:  15.106684  Gnorm:     0.004204  CPU:   78.469
  ** Hessian calculated **
  Cycle:     11 Defect Energy:  14.905837  Gnorm:     0.002549  CPU:   92.935
  Cycle:     12 Defect Energy:  14.861246  Gnorm:     0.001972  CPU:   94.469
  Cycle:     13 Defect Energy:  14.829596  Gnorm:     0.001383  CPU:   95.998
  Cycle:     14 Defect Energy:  14.814573  Gnorm:     0.000971  CPU:   97.526
  Cycle:     15 Defect Energy:  14.807384  Gnorm:     0.000681  CPU:   99.051
  Cycle:     16 Defect Energy:  14.803986  Gnorm:     0.000477  CPU:  100.576
  Cycle:     17 Defect Energy:  14.802397  Gnorm:     0.000334  CPU:  102.101
  Cycle:     18 Defect Energy:  14.801668  Gnorm:     0.000234  CPU:  103.639
  Cycle:     19 Defect Energy:  14.801345  Gnorm:     0.000164  CPU:  105.165
  Cycle:     20 Defect Energy:  14.801210  Gnorm:     0.000115  CPU:  106.691
  ** Hessian calculated **
  Cycle:     21 Defect Energy:  14.801160  Gnorm:     0.000080  CPU:  114.039
  Cycle:     22 Defect Energy:  14.801147  Gnorm:     0.000056  CPU:  115.570


  **** Optimisation achieved ****


  Final defect energy  =       14.80114853
  Final defect Gnorm   =        0.00003945

  Components of defect energy : 

--------------------------------------------------------------------------------
  Region 1 - region 1                   =   -108.51448195 eV
  Region 1 - region 2a (unrelaxed)      =    125.51047926 eV
  Region 1 - 2a (relaxed - correction)  =     -2.08235347 eV
  Region 1 (Total)                      =     14.91364384 eV
  Region 2a                             =      1.04115843 eV
  Region 2b                             =     -1.15365374 eV
--------------------------------------------------------------------------------
  Total defect energy                   =     14.80114853 eV
--------------------------------------------------------------------------------

  Largest displacement in region 2 =   0.0067 Angstroms

  Final coordinates of region 1 :

--------------------------------------------------------------------------------
   No.  Atomic        x           y           z          Radius      Charge
        Label       (Angs)      (Angs)      (Angs)       (Angs)       (e) 
--------------------------------------------------------------------------------
     1  O     c     1.319678    1.268921    1.268921    0.000000    0.077000
     2  Zr    c     2.478269   -0.074427    2.612268    0.000000    2.650000
     3  Zr    c     2.478269    2.612268   -0.074427    0.000000    2.650000
     4  Zr    c    -0.031633    2.545451    2.545451    0.000000    2.650000
     5  Zr    c    -0.031633   -0.007609   -0.007609    0.000000    2.650000
     6  O     c     1.261138    3.875351    1.228853    0.000000    0.077000
     7  O     c     1.261138    1.228853    3.875351    0.000000    0.077000
     8  O     c     1.261138    1.308989   -1.337509    0.000000    0.077000
     9  O     c     1.261138   -1.337509    1.308989    0.000000    0.077000
    10  O     c    -1.221493    1.268921    1.268921    0.000000    0.077000
    11  O     c     3.780189    1.262570   -0.776023    0.000000    0.077000
    12  O     c     3.780189   -0.776023    1.262570    0.000000    0.077000
    13  O     c     3.780189    3.313865    1.275272    0.000000    0.077000
    14  O     c     3.780189    1.275272    3.313865    0.000000    0.077000
    15  O     c     1.283603    3.770897    3.770897    0.000000    0.077000
    16  O     c     1.283603   -1.233055   -1.233055    0.000000    0.077000
    17  O     c     1.242865   -1.287524    3.825366    0.000000    0.077000
    18  O     c     1.242865    3.825366   -1.287524    0.000000    0.077000
    19  O     c    -1.270373    1.276694    3.795132    0.000000    0.077000
    20  O     c    -1.270373    3.795132    1.276694    0.000000    0.077000
    21  O     c    -1.270373   -1.257290    1.261148    0.000000    0.077000
    22  O     c    -1.270373    1.261148   -1.257290    0.000000    0.077000
    23  Zr    c     5.105510    2.584406    2.584406    0.000000    2.650000
    24  Zr    c     5.105510   -0.046564   -0.046564    0.000000    2.650000
    25  Zr    c     2.493751    2.558988    5.094541    0.000000    2.650000
    26  Zr    c     2.493751   -2.556699   -0.021146    0.000000    2.650000
    27  Zr    c     2.493751    5.094541    2.558988    0.000000    2.650000
    28  Zr    c     2.493751   -0.021146   -2.556699    0.000000    2.650000
    29  Zr    c    -0.031507   -2.558728    2.546168    0.000000    2.650000
    30  Zr    c    -0.031507    2.546168   -2.558728    0.000000    2.650000
    31  Zr    c    -0.031507   -0.008326    5.096570    0.000000    2.650000
    32  Zr    c    -0.031507    5.096570   -0.008326    0.000000    2.650000
    33  Zr    c    -2.549196   -0.004045    2.541887    0.000000    2.650000
    34  Zr    c    -2.549196    2.541887   -0.004045    0.000000    2.650000
    35  O     c     3.844823    3.845178    3.845178    0.000000    0.077000
    36  O     c     3.844823   -1.307336   -1.307336    0.000000    0.077000
    37  O     c     3.759179    3.835308   -1.297466    0.000000    0.077000
    38  O     c     3.759179   -1.297466    3.835308    0.000000    0.077000
    39  O     c    -1.252295    3.807580    3.807580    0.000000    0.077000
    40  O     c    -1.252295   -1.269739   -1.269739    0.000000    0.077000
    41  O     c    -1.284965   -1.266368    3.804210    0.000000    0.077000
    42  O     c    -1.284965    3.804210   -1.266368    0.000000    0.077000
    43  O     c     6.071009    1.268921    1.268921    0.000000    0.077000
    44  O     c     1.285842   -3.869410    1.245750    0.000000    0.077000
    45  O     c     1.285842    1.245750   -3.869410    0.000000    0.077000
    46  O     c     1.285842    1.292092    6.407252    0.000000    0.077000
    47  O     c     1.285842    6.407252    1.292092    0.000000    0.077000
    48  O     c    -3.778901    1.268921    1.268921    0.000000    0.077000
    49  Zr    c     5.110034    5.107517   -0.031353    0.000000    2.650000
    50  Zr    c     5.110034   -0.031353    5.107517    0.000000    2.650000
    51  Zr    c     5.110034    2.569194   -2.569675    0.000000    2.650000
    52  Zr    c     5.110034   -2.569675    2.569194    0.000000    2.650000
    53  Zr    c     2.520934   -2.563348    5.101190    0.000000    2.650000
    54  Zr    c     2.520934    5.101190   -2.563348    0.000000    2.650000
    55  Zr    c    -0.025104    5.089680    5.089680    0.000000    2.650000
    56  Zr    c    -0.025104   -2.551838   -2.551838    0.000000    2.650000
    57  Zr    c    -2.552462    5.081774    2.540322    0.000000    2.650000
    58  Zr    c    -2.552462   -0.002480   -2.543932    0.000000    2.650000
    59  Zr    c    -2.552462    2.540322    5.081774    0.000000    2.650000
    60  Zr    c    -2.552462   -2.543932   -0.002480    0.000000    2.650000
    61  O     c     6.350089    3.863103    1.289090    0.000000    0.077000
    62  O     c     6.350089    1.289090    3.863103    0.000000    0.077000
    63  O     c     6.350089    1.248752   -1.325261    0.000000    0.077000
    64  O     c     6.350089   -1.325261    1.248752    0.000000    0.077000
    65  O     c     3.807183    6.020558    1.266713    0.000000    0.077000
    66  O     c     3.807183    1.266713    6.020558    0.000000    0.077000
    67  O     c     3.807183    1.271129   -3.482716    0.000000    0.077000
    68  O     c     3.807183   -3.482716    1.271129    0.000000    0.077000
    69  O     c     1.261774    6.298928    3.812239    0.000000    0.077000
    70  O     c     1.261774    3.812239    6.298928    0.000000    0.077000
    71  O     c     1.261774   -1.274397   -3.761086    0.000000    0.077000
    72  O     c     1.261774   -3.761086   -1.274397    0.000000    0.077000
    73  O     c     1.284530   -1.261132    6.352789    0.000000    0.077000
    74  O     c     1.284530    6.352789   -1.261132    0.000000    0.077000
    75  O     c     1.284530   -3.814947    3.798974    0.000000    0.077000
    76  O     c     1.284530    3.798974   -3.814947    0.000000    0.077000
    77  O     c    -1.257190    6.334292    1.261150    0.000000    0.077000
    78  O     c    -1.257190    1.261150    6.334292    0.000000    0.077000
    79  O     c    -1.257190   -3.796450    1.276691    0.000000    0.077000
    80  O     c    -1.257190    1.276691   -3.796450    0.000000    0.077000
    81  O     c    -3.808594    1.267000    3.808612    0.000000    0.077000
    82  O     c    -3.808594    3.808612    1.267000    0.000000    0.077000
    83  O     c    -3.808594   -1.270770    1.270842    0.000000    0.077000
    84  O     c    -3.808594    1.270842   -1.270770    0.000000    0.077000
    85  O     c     6.326105    3.787586   -1.249744    0.000000    0.077000
[...]
    336 y         10.151367     10.155652     0.004285    Cartesian    0.04
    336 z          5.075684      5.074757    -0.000926    Cartesian   -0.02
    337 x         -2.537842     -2.541858    -0.004016    Cartesian    0.16
    337 y         -7.613525     -7.617645    -0.004119    Cartesian    0.05
    337 z          5.075684      5.076260     0.000577    Cartesian    0.01
    338 x         11.420288     11.424651     0.004363    Cartesian    0.04
    338 y          3.806763      3.806177    -0.000585    Cartesian   -0.02
    338 z          1.268921      1.270685     0.001764    Cartesian    0.14
    339 x          8.882446      8.887339     0.004893    Cartesian    0.06
    339 y          6.344605      6.343098    -0.001506    Cartesian   -0.02
    339 z          6.344605      6.343098    -0.001506    Cartesian   -0.02
    340 x          8.882446      8.879035    -0.003411    Cartesian   -0.04
    340 y          6.344605      6.339535    -0.005069    Cartesian   -0.08
    340 z         -3.806763     -3.801693     0.005069    Cartesian   -0.13
    341 x         -7.613525     -7.616647    -0.003122    Cartesian    0.04
    341 y         -2.537842     -2.538455    -0.000613    Cartesian    0.02
    341 z          5.075684      5.076297     0.000613    Cartesian    0.01
    342 x          6.344605      6.345016     0.000412    Cartesian    0.01
    342 y          8.882446      8.878431    -0.004015    Cartesian   -0.05
    342 z          6.344605      6.341229    -0.003376    Cartesian   -0.05
    343 x          6.344605      6.347213     0.002608    Cartesian    0.04
    343 y         -3.806763     -3.803034     0.003729    Cartesian   -0.10
    343 z          8.882446      8.887695     0.005249    Cartesian    0.06
    344 x          3.806763      3.811218     0.004455    Cartesian    0.12
    344 y          1.268921      1.272686     0.003765    Cartesian    0.30
    344 z         11.420288     11.340133    -0.080155    Cartesian   -0.70
    345 x          1.268921      1.274650     0.005729    Cartesian    0.45
    345 y         11.420288     11.422409     0.002121    Cartesian    0.02
    345 z         -1.268921     -1.266652     0.002269    Cartesian   -0.18
    346 x          1.268921      1.274895     0.005974    Cartesian    0.47
    346 y          3.806763      3.805104    -0.001659    Cartesian   -0.04
    346 z         11.420288     11.398048    -0.022240    Cartesian   -0.19
    347 x         -1.268921     -1.266429     0.002492    Cartesian   -0.20
    347 y          1.268921      1.267498    -0.001422    Cartesian   -0.11
    347 z         11.420288     11.416178    -0.004111    Cartesian   -0.04
    348 x         -3.806763     -3.799615     0.007147    Cartesian   -0.19
    348 y         -3.806763     -3.804326     0.002436    Cartesian   -0.06
    348 z          8.882446      8.883510     0.001064    Cartesian    0.01
    349 x         -3.806763     -3.805795     0.000968    Cartesian   -0.03
    349 y          6.344605      6.342823    -0.001781    Cartesian   -0.03
    349 z          8.882446      8.883196     0.000750    Cartesian    0.01
    350 x         -6.344605     -6.342933     0.001671    Cartesian   -0.03
    350 y          6.344605      6.344322    -0.000283    Cartesian   -0.00
    350 z          6.344605      6.344322    -0.000283    Cartesian   -0.00
    351 x         -6.344605     -6.345456    -0.000851    Cartesian    0.01
    351 y         -3.806763     -3.804185     0.002578    Cartesian   -0.07
    351 z          6.344605      6.342027    -0.002578    Cartesian   -0.04
    352 x         -8.882446     -8.882015     0.000431    Cartesian   -0.00
    352 y         -1.268921     -1.269631    -0.000710    Cartesian    0.06
    352 z          1.268921      1.269910     0.000989    Cartesian    0.08
    353 x         11.420288     11.416392    -0.003896    Cartesian   -0.03
    353 y          3.806763      3.802947    -0.003816    Cartesian   -0.10
    353 z          3.806763      3.802947    -0.003816    Cartesian   -0.10
    354 x         11.420288     11.415818    -0.004470    Cartesian   -0.04
    354 y          3.806763      3.804354    -0.002409    Cartesian   -0.06
    354 z         -1.268921     -1.266512     0.002409    Cartesian   -0.19
    355 x          8.882446      8.884148     0.001702    Cartesian    0.02
    355 y          8.882446      8.872958    -0.009488    Cartesian   -0.11
    355 z          1.268921      1.265333    -0.003588    Cartesian   -0.28
    356 x          3.806763      3.811900     0.005137    Cartesian    0.13
    356 y         -1.268921     -1.264959     0.003962    Cartesian   -0.31
    356 z         11.420288     11.435683     0.015394    Cartesian    0.13
    357 x          3.806763      3.804299    -0.002464    Cartesian   -0.06
    357 y          3.806763      3.802939    -0.003824    Cartesian   -0.10
    357 z         11.420288     11.437333     0.017045    Cartesian    0.15
    358 x          1.268921      1.275432     0.006511    Cartesian    0.51
    358 y         -6.344605     -6.342307     0.002298    Cartesian   -0.04
    358 z          8.882446      8.880148    -0.002298    Cartesian   -0.03
    359 x          1.268921      1.270925     0.002005    Cartesian    0.16
    359 y          8.882446      8.880316    -0.002130    Cartesian   -0.02
    359 z          8.882446      8.880316    -0.002130    Cartesian   -0.02
    360 x         -1.268921     -1.267550     0.001371    Cartesian   -0.11
    360 y          3.806763      3.809550     0.002788    Cartesian    0.07
    360 z         11.420288     11.422219     0.001931    Cartesian    0.02
    361 x         -1.268921     -1.263222     0.005699    Cartesian   -0.45
    361 y         -8.882446     -8.882025     0.000421    Cartesian   -0.00
    361 z          3.806763      3.805173    -0.001590    Cartesian   -0.04
    362 x         -6.344605     -6.342075     0.002529    Cartesian   -0.04
    362 y         -6.344605     -6.344083     0.000521    Cartesian   -0.01
    362 z          1.268921      1.267396    -0.001525    Cartesian   -0.12
    363 x         -8.882446     -8.878164     0.004282    Cartesian   -0.05
    363 y         -1.268921     -1.269137    -0.000216    Cartesian    0.02
    363 z         -1.268921     -1.269137    -0.000216    Cartesian    0.02
    364 x         -8.882446     -8.880273     0.002174    Cartesian   -0.02
    364 y         -1.268921     -1.267650     0.001271    Cartesian   -0.10
    364 z          3.806763      3.805492    -0.001271    Cartesian   -0.03
    365 x         10.151367     10.156190     0.004823    Cartesian    0.05
    365 y          2.537842      2.539846     0.002004    Cartesian    0.08
    365 z          7.613525      7.622241     0.008716    Cartesian    0.11
    366 x          7.613525      7.613634     0.000108    Cartesian    0.00
    366 y         -5.075684     -5.081880    -0.006196    Cartesian    0.12
    366 z          7.613525      7.619722     0.006196    Cartesian    0.08
    367 x          7.613525      7.611903    -0.001622    Cartesian   -0.02
    367 y         10.151367     10.159831     0.008464    Cartesian    0.08
    367 z          2.537842      2.536365    -0.001477    Cartesian   -0.06
    368 x          2.537842      2.535055    -0.002787    Cartesian   -0.11
    368 y         10.151367     10.156249     0.004881    Cartesian    0.05
    368 z          7.613525      7.616765     0.003239    Cartesian    0.04
    369 x          0.000000     -0.002627    -0.002627    Cartesian *******
    369 y         -7.613525     -7.619875    -0.006350    Cartesian    0.08
    369 z          7.613525      7.617700     0.004174    Cartesian    0.05
    370 x         -5.075684     -5.080856    -0.005172    Cartesian    0.10
    370 y          7.613525      7.615175     0.001649    Cartesian    0.02
    370 z          7.613525      7.615175     0.001649    Cartesian    0.02
    371 x         -5.075684     -5.081636    -0.005953    Cartesian    0.12
    371 y         -7.613525     -7.617847    -0.004321    Cartesian    0.06
    371 z          2.537842      2.537516    -0.000326    Cartesian   -0.01
    372 x          8.882446      8.885334     0.002888    Cartesian    0.03
    372 y          3.806763      3.806236    -0.000527    Cartesian   -0.01
    372 z          8.882446      8.877282    -0.005164    Cartesian   -0.06
    373 x          8.882446      8.879569    -0.002877    Cartesian   -0.03
    373 y          8.882446      8.883137     0.000691    Cartesian    0.01
    373 z         -1.268921     -1.267128     0.001793    Cartesian   -0.14
    374 x         -7.613525     -7.618606    -0.005081    Cartesian    0.07
    374 y          7.613525      7.616513     0.002987    Cartesian    0.04
    374 z         -0.000000     -0.000168    -0.000168    Cartesian *******
    375 x          3.806763      3.809685     0.002922    Cartesian    0.08
    375 y          8.882446      8.879177    -0.003269    Cartesian   -0.04
    375 z          8.882446      8.879177    -0.003269    Cartesian   -0.04
    376 x          3.806763      3.804972    -0.001791    Cartesian   -0.05
    376 y         -6.344605     -6.344095     0.000509    Cartesian   -0.01
    376 z          8.882446      8.881937    -0.000509    Cartesian   -0.01
    377 x         -1.268921     -1.263728     0.005193    Cartesian   -0.41
    377 y          8.882446      8.880682    -0.001765    Cartesian   -0.02
    377 z          8.882446      8.880682    -0.001765    Cartesian   -0.02
    378 x         -1.268921     -1.265338     0.003583    Cartesian   -0.28
    378 y         -6.344605     -6.344573     0.000031    Cartesian   -0.00
    378 z          8.882446      8.882415    -0.000031    Cartesian   -0.00
    379 x         -6.344605     -6.343391     0.001214    Cartesian   -0.02
    379 y          8.882446      8.882125    -0.000321    Cartesian   -0.00
    379 z         -1.268921     -1.267883     0.001038    Cartesian   -0.08
    380 x         -6.344605     -6.341248     0.003357    Cartesian   -0.05
    380 y          8.882446      8.881634    -0.000812    Cartesian   -0.01
    380 z          3.806763      3.804370    -0.002393    Cartesian   -0.06
    381 x         11.420288     11.410241    -0.010047    Cartesian   -0.09
    381 y          1.268921      1.269910     0.000990    Cartesian    0.08
    381 z         -3.806763     -3.805220     0.001543    Cartesian   -0.04
    382 x          6.344605      6.340005    -0.004599    Cartesian   -0.07
    382 y          1.268921      1.264019    -0.004902    Cartesian   -0.39
    382 z         11.420288     11.434953     0.014665    Cartesian    0.13
    383 x          1.268921      1.271138     0.002217    Cartesian    0.17
    383 y         -8.882446     -8.878260     0.004187    Cartesian   -0.05
    383 z          6.344605      6.340976    -0.003628    Cartesian   -0.06
    384 x          1.268921      1.268372    -0.000549    Cartesian   -0.04
    384 y          6.344605      6.343641    -0.000963    Cartesian   -0.02
    384 z         11.420288     11.419398    -0.000890    Cartesian   -0.01
    385 x         -3.806763     -3.803634     0.003128    Cartesian   -0.08
    385 y         -8.882446     -8.878460     0.003986    Cartesian   -0.04
    385 z          1.268921      1.267284    -0.001637    Cartesian   -0.13
    386 x         -8.882446     -8.875146     0.007301    Cartesian   -0.08
    386 y          1.268921      1.269501     0.000580    Cartesian    0.05
    386 z          6.344605      6.343759    -0.000845    Cartesian   -0.01
    387 x         12.689209     12.694181     0.004972    Cartesian    0.04
    387 y          2.537842      2.543576     0.005734    Cartesian    0.23
    387 z          0.000000     -0.005734    -0.005734    Cartesian *******
    388 x         10.151367     10.159219     0.007852    Cartesian    0.08
    388 y          5.075684      5.078467     0.002783    Cartesian    0.05
    388 z         -5.075684     -5.082881    -0.007197    Cartesian    0.14
    389 x          7.613525      7.619531     0.006006    Cartesian    0.08
    389 y         -2.537842     -2.544257    -0.006415    Cartesian    0.25
    389 z         10.151367     10.157478     0.006111    Cartesian    0.06
    390 x          5.075684      5.077145     0.001461    Cartesian    0.03
    390 y         -5.075684     -5.080398    -0.004714    Cartesian    0.09
    390 z         10.151367     10.158729     0.007362    Cartesian    0.07
    391 x          2.537842      2.530841    -0.007001    Cartesian   -0.28
    391 y         -0.000000     -0.007754    -0.007754    Cartesian *******
    391 z         12.689209     12.696339     0.007130    Cartesian    0.06
    392 x          0.000000     -0.001625    -0.001625    Cartesian *******
    392 y          2.537842      2.536377    -0.001465    Cartesian   -0.06
    392 z         12.689209     12.700104     0.010895    Cartesian    0.09
    393 x         -2.537842     -2.542918    -0.005076    Cartesian    0.20
    393 y          7.613525      7.618818     0.005293    Cartesian    0.07
    393 z         10.151367     10.156559     0.005191    Cartesian    0.05
    394 x         11.420288     11.410643    -0.009645    Cartesian   -0.08
    394 y          6.344605      6.342498    -0.002106    Cartesian   -0.03
    394 z          3.806763      3.807066     0.000303    Cartesian    0.01
    395 x         11.420288     11.416781    -0.003507    Cartesian   -0.03
    395 y          6.344605      6.339576    -0.005029    Cartesian   -0.08
    395 z         -1.268921     -1.265471     0.003450    Cartesian   -0.27
    396 x         -5.075684     -5.082073    -0.006389    Cartesian    0.13
    396 y          5.075684      5.078870     0.003186    Cartesian    0.06
    396 z         10.151367     10.156872     0.005505    Cartesian    0.05
    397 x         -7.613525     -7.620738    -0.007212    Cartesian    0.09
    397 y         -5.075684     -5.078990    -0.003307    Cartesian    0.07
    397 z         -2.537842     -2.539515    -0.001673    Cartesian    0.07
    398 x          6.344605      6.343165    -0.001439    Cartesian   -0.02
    398 y         -1.268921     -1.268805     0.000116    Cartesian   -0.01
    398 z         11.420288     11.398057    -0.022232    Cartesian   -0.19
    399 x          6.344605      6.343520    -0.001084    Cartesian   -0.02
    399 y         11.420288     11.405424    -0.014864    Cartesian   -0.13
    399 z          3.806763      3.802762    -0.004001    Cartesian   -0.11
    400 x        -10.151367    -10.160951    -0.009584    Cartesian    0.09
    400 y         -0.000000     -0.001233    -0.001233    Cartesian *******
    400 z         -0.000000     -0.001233    -0.001233    Cartesian *******
    401 x          3.806763      3.806840     0.000078    Cartesian    0.00
    401 y         -3.806763     -3.805224     0.001539    Cartesian   -0.04
    401 z         11.420288     11.409161    -0.011127    Cartesian   -0.10
    402 x          3.806763      3.805629    -0.001133    Cartesian   -0.03
    402 y         11.420288     11.405988    -0.014300    Cartesian   -0.13
    402 z          6.344605      6.340937    -0.003668    Cartesian   -0.06
    403 x         -1.268921     -1.265651     0.003270    Cartesian   -0.26
    403 y          6.344605      6.341048    -0.003557    Cartesian   -0.06
    403 z         11.420288     11.410357    -0.009932    Cartesian   -0.09
    404 x         -1.268921     -1.266266     0.002655    Cartesian   -0.21
    404 y         -3.806763     -3.806062     0.000701    Cartesian   -0.02
    404 z         11.420288     11.412762    -0.007526    Cartesian   -0.07
    405 x         -3.806763     -3.802878     0.003885    Cartesian   -0.10
    405 y          3.806763      3.803702    -0.003061    Cartesian   -0.08
    405 z         11.420288     11.412425    -0.007863    Cartesian   -0.07
    406 x         -3.806763     -3.801749     0.005014    Cartesian   -0.13
    406 y         -1.268921     -1.268757     0.000164    Cartesian   -0.01
    406 z         11.420288     11.412798    -0.007490    Cartesian   -0.07
    407 x         -8.882446     -8.876856     0.005590    Cartesian   -0.06
    407 y          6.344605      6.342422    -0.002183    Cartesian   -0.03
    407 z          3.806763      3.805500    -0.001263    Cartesian   -0.03
    408 x         -8.882446     -8.873202     0.009244    Cartesian   -0.10
    408 y         -1.268921     -1.266963     0.001958    Cartesian   -0.15
    408 z          6.344605      6.342595    -0.002009    Cartesian   -0.03
    409 x          8.882446      8.883090     0.000643    Cartesian    0.01
    409 y         -3.806763     -3.804832     0.001931    Cartesian   -0.05
    409 z          8.882446      8.880449    -0.001997    Cartesian   -0.02
    410 x          8.882446      8.873578    -0.008869    Cartesian   -0.10
    410 y          8.882446      8.873815    -0.008631    Cartesian   -0.10
    410 z          6.344605      6.338004    -0.006600    Cartesian   -0.10
    411 x          6.344605      6.345558     0.000953    Cartesian    0.02
    411 y         -6.344605     -6.340730     0.003874    Cartesian   -0.06
    411 z          8.882446      8.878572    -0.003874    Cartesian   -0.04
    412 x          6.344605      6.339366    -0.005238    Cartesian   -0.08
    412 y          8.882446      8.873475    -0.008971    Cartesian   -0.10
    412 z          8.882446      8.873475    -0.008971    Cartesian   -0.10
    413 x         -3.806763     -3.800761     0.006002    Cartesian   -0.16
    413 y         -6.344605     -6.336302     0.008303    Cartesian   -0.13
    413 z          8.882446      8.874144    -0.008303    Cartesian   -0.09
    414 x         -3.806763     -3.802524     0.004238    Cartesian   -0.11
    414 y          8.882446      8.881513    -0.000933    Cartesian   -0.01
    414 z          8.882446      8.881513    -0.000933    Cartesian   -0.01
    415 x         -6.344605     -6.341660     0.002944    Cartesian   -0.05
    415 y         -6.344605     -6.343504     0.001100    Cartesian   -0.02
    415 z         -3.806763     -3.805268     0.001495    Cartesian   -0.04
    416 x         -6.344605     -6.334841     0.009763    Cartesian   -0.15
    416 y         -6.344605     -6.336857     0.007748    Cartesian   -0.12
    416 z          6.344605      6.339424    -0.005180    Cartesian   -0.08
--------------------------------------------------------------------------------


  Time to end of optimisation  =      117.1084 seconds


  Peak dynamic memory used =     416.90 MB 


  Timing analysis for GULP :

--------------------------------------------------------------------------------
  Task / Subroutine                                          Time (Seconds)
--------------------------------------------------------------------------------
  Calculation of reciprocal space energy and derivatives          0.0002
  Calculation of reciprocal space energy using symmetry           0.0002
  Calculation of real space energy and derivatives                0.0020
  Calculation of real space energy using symmetry                 0.0069
  Calculation for region 1 energy and derivatives (2-b)          30.2265
  Calculation for region 2a energy                               73.8977
  Calculation for region 2b energy                                0.0101
  Calculation and manipulation of Hessian matrix                 11.6908
  Calculation of matrix inversion                                 0.8664
  Symmetry generation of equivalent positions                     0.0015
--------------------------------------------------------------------------------
  Total CPU time                                                117.1085
--------------------------------------------------------------------------------


  Dump file written as ZrO2.grs


  Job Finished at 11:52.21 14th October    2020                               

