********************************************************************************
*                       GENERAL UTILITY LATTICE PROGRAM                        *
*                                 Julian Gale                                  *
*                       Curtin Institute for Computation                       *
*                    School of Molecular and Life Sciences                     *
*                    Curtin University, Western Australia                      *
********************************************************************************
* Version = 5.2.0 * Last modified =  10th September 2020                       *
********************************************************************************
* Zirconia doped with calcium                                                  *
*  optimise     - perform optimisation run                                     *
*  conp         - constant pressure calculation                                *
*  property     - calculate properties for final geometry                      *
*  defect       - perform defect calculation after bulk run                    *
*  distance     - calculate distances                                          *
*  compare      - compare initial and final structures                         *
********************************************************************************
* Zirconia doped with calcium                                                  *
********************************************************************************


  Job Started  at 12:08.34 14th October    2020                               

  Number of CPUs =     1


  Total number of configurations input =      1

********************************************************************************
*  Input for Configuration =   1 : ZrO2                                        *
********************************************************************************

  Formula = ZrO2                                                        

  Number of irreducible atoms/shells =       4


  Total number atoms/shells =       6

  Dimensionality = 3               :  Bulk   


  Symmetry :

  Crystal family                   :  Cubic       
  Crystal class  (Groth - 1921)    :  Cubic Hexakisoctahedral              

  Space group (centrosymmetric)    :  F M 3 M         

  Patterson group                  :  F m -3 m 

  Cartesian lattice vectors (Angstroms) :

        0.000000    2.535000    2.535000
        2.535000    0.000000    2.535000
        2.535000    2.535000    0.000000

  Primitive cell parameters :            Full cell parameters :

  a =   3.5850    alpha =  60.0000       a =   5.0700    alpha =  90.0000
  b =   3.5850    beta  =  60.0000       b =   5.0700    beta  =  90.0000
  c =   3.5850    gamma =  60.0000       c =   5.0700    gamma =  90.0000

  Initial volumes (Angstroms**3):

  Primitive cell =          32.580961    Full cell =         130.323843

  Temperature of configuration =   0.00     K 

  Pressure of configuration =         0.000 GPa 

  Fractional coordinates of asymmetric unit :

--------------------------------------------------------------------------------
   No.  Atomic       x           y          z         Charge      Occupancy
        Label      (Frac)      (Frac)     (Frac)        (e)         (Frac)  
--------------------------------------------------------------------------------
      1 Zr    c    0.000000    0.000000    0.000000     2.65000    1.000000    
      2 O     c    0.250000    0.250000    0.250000     0.07700    1.000000    
      3 Zr    s    0.000000    0.000000    0.000000     1.35000    1.000000    
      4 O     s    0.250000    0.250000    0.250000    -2.07700    1.000000    
--------------------------------------------------------------------------------


  Constraints : 

--------------------------------------------------------------------------------
  Constraint no.      Unconstrained     Constrained    Coefficient    Offset
                         Variable         Variable
--------------------------------------------------------------------------------
           1              Strain 1        Strain 2       1.00000      0.0000
           2              Strain 1        Strain 3       1.00000      0.0000
--------------------------------------------------------------------------------


  Distance calculation :


  Cutoff for distances  =      4.000000 Angstroms

--------------------------------------------------------------------------------
  Asymmetric unit site  Full lattice sites    No.  Distance      No.  Distance
      No.   At.No.            At.No.                (Angs)             (Angs) 
--------------------------------------------------------------------------------
       1   Zr    core        Zr    core        12    3.5850
                             Zr    shell       12    3.5850
                             O     core         8    2.1954
                             O     shell        8    2.1954
--------------------------------------------------------------------------------
       2   O     core        Zr    core         4    2.1954
                             Zr    shell        4    2.1954
                             O     core         6    2.5350       12    3.5850
                             O     shell        6    2.5350       12    3.5850
--------------------------------------------------------------------------------
       3   Zr    shell       Zr    core        12    3.5850
                             Zr    shell       12    3.5850
                             O     core         8    2.1954
                             O     shell        8    2.1954
--------------------------------------------------------------------------------
       4   O     shell       Zr    core         4    2.1954
                             Zr    shell        4    2.1954
                             O     core         6    2.5350       12    3.5850
                             O     shell        6    2.5350       12    3.5850
--------------------------------------------------------------------------------



********************************************************************************
*  General input information                                                   *
********************************************************************************

  Species output for all configurations : 

--------------------------------------------------------------------------------
  Species    Type    Atomic    Atomic    Charge       Radii (Angs)     Library
                     Number     Mass       (e)     Cova   Ionic  VDW   Symbol
--------------------------------------------------------------------------------
    Zr       Core       40      91.22   2.650000   1.560  0.000  2.330          
    Zr       Shell      40       0.00   1.350000   1.560  0.000  2.330          
    O        Core        8      16.00   0.077000   0.730  0.000  1.360          
    O        Shell       8       0.00  -2.077000   0.730  0.000  1.360          
--------------------------------------------------------------------------------


  Lattice summation method               =    Ewald          (3-D)
                                         =    Parry          (2-D)
                                         =    Saunders et al (1-D)
  Accuracy factor for lattice sums       =   12.000


  Analytic derivatives to be used

  Time limit = Infinity

  Maximum range for interatomic potentials =    100000.000000 Angstroms

  General interatomic potentials :

--------------------------------------------------------------------------------
Atom  Types   Potential      Parameter       Value         Units   Cutoffs(Ang)
  1     2                                                            Min /  Max 
--------------------------------------------------------------------------------
O    s Zr   s Buckingham    Buckingham A     985.86900    eV        0.000 12.000
                            Buckingham rho  0.37600000    Ang       
                            Buckingham C     0.0000000    eV*Ang^6  
--------------------------------------------------------------------------------
O    s O    s Buckingham    Buckingham A     22764.300    eV        0.000 12.000
                            Buckingham rho  0.14900000    Ang       
                            Buckingham C     27.890000    eV*Ang^6  
--------------------------------------------------------------------------------
Zr   c Zr   s Spring (c-s)  Spring k 2       169.61700    eV*Ang^-2 0.000  0.800
                            Spring k 4       0.0000000    eV*Ang^-4 
--------------------------------------------------------------------------------
O    c O    s Spring (c-s)  Spring k 2       27.290000    eV*Ang^-2 0.000  0.800
                            Spring k 4       0.0000000    eV*Ang^-4 
--------------------------------------------------------------------------------

********************************************************************************
*  Output for configuration   1 : ZrO2                                         *
********************************************************************************


  Components of energy : 

--------------------------------------------------------------------------------
  Interatomic potentials     =          22.43756329 eV    
  Monopole - monopole (real) =         -15.67991073 eV    
  Monopole - monopole (recip)=        -116.52038266 eV    
  Monopole - monopole (total)=        -132.20029339 eV    
--------------------------------------------------------------------------------
  Total lattice energy : 
    Primitive unit cell      =        -109.76273010 eV    
    Non-primitive unit cell  =        -439.05092039 eV    
--------------------------------------------------------------------------------
  Total lattice energy (in kJmol-1): 
    Primitive unit cell      =          -10590.4256 kJ/(mole unit cells)
    Non-primitive unit cell  =          -42361.7023 kJ/(mole unit cells)
--------------------------------------------------------------------------------


  Number of variables =        1

  Maximum number of calculations  =          1000
  Maximum Hessian update interval =            10
  Maximum step size               =   1.000000000
  Maximum parameter tolerance     =   0.000010000
  Maximum function  tolerance     =   0.000010000
  Maximum gradient  tolerance     =   0.001000000
  Maximum gradient  component     =   0.010000000

  Symmetry constrained optimisation

  Symmetry used for second derivatives

  Cell parameters to be optimised using strains

  Newton-Raphson optimiser to be used

  BFGS hessian update to be used

  Lower half triangular hessian to be used

  Start of bulk optimisation :

  Cycle:      0 Energy:      -109.762730  Gnorm:      0.588311  CPU:    0.006
  ** Hessian calculated **
  Cycle:      1 Energy:      -109.763059  Gnorm:      0.000316  CPU:    0.009


  **** Optimisation achieved ****


  Final energy =    -109.76305939 eV
  Final Gnorm  =       0.00000099

  Components of energy : 

--------------------------------------------------------------------------------
  Interatomic potentials     =          22.28919976 eV    
  Monopole - monopole (real) =         -15.66235280 eV    
  Monopole - monopole (recip)=        -116.38990634 eV    
  Monopole - monopole (total)=        -132.05225914 eV    
--------------------------------------------------------------------------------
  Total lattice energy : 
    Primitive unit cell      =        -109.76305939 eV    
    Non-primitive unit cell  =        -439.05223754 eV    
--------------------------------------------------------------------------------
  Total lattice energy (in kJmol-1): 
    Primitive unit cell      =          -10590.4573 kJ/(mole unit cells)
    Non-primitive unit cell  =          -42361.8294 kJ/(mole unit cells)
--------------------------------------------------------------------------------

  Final asymmetric unit coordinates :

--------------------------------------------------------------------------------
   No.  Atomic        x           y           z         Radius
        Label       (Frac)      (Frac)      (Frac)       (Angs) 
--------------------------------------------------------------------------------
     1  Zr    c     0.000000    0.000000    0.000000    0.000000
     2  O     c     0.250000    0.250000    0.250000    0.000000
     3  Zr    s     0.000000    0.000000    0.000000    0.000000
     4  O     s     0.250000    0.250000    0.250000    0.000000
--------------------------------------------------------------------------------

  Final Cartesian lattice vectors (Angstroms) :

        0.000000    2.537842    2.537842
        2.537842    0.000000    2.537842
        2.537842    2.537842    0.000000


  Final cell parameters and derivatives :

--------------------------------------------------------------------------------
       a            3.589050 Angstrom     dE/de1(xx)    -0.000001 eV/strain
       b            3.589050 Angstrom     dE/de2(yy)     0.000000 eV/strain
       c            3.589050 Angstrom     dE/de3(zz)     0.000000 eV/strain
       alpha       60.000000 Degrees      dE/de4(yz)     0.000000 eV/strain
       beta        60.000000 Degrees      dE/de5(xz)     0.000000 eV/strain
       gamma       60.000000 Degrees      dE/de6(xy)     0.000000 eV/strain
--------------------------------------------------------------------------------

  Primitive cell volume =            32.690656 Angs**3

  Density of cell =      6.259124 g/cm**3

  Non-primitive lattice parameters :

  a    =     5.075684  b   =     5.075684  c    =     5.075684
  alpha=    90.000000  beta=    90.000000  gamma=    90.000000

  Non-primitive cell volume =           130.762624 Angs**3


  Final internal derivatives :

--------------------------------------------------------------------------------
   No.  Atomic          a             b             c           Radius
        Label          (eV)          (eV)          (eV)        (eV/Angs)
--------------------------------------------------------------------------------
      1 Zr    c       0.000000      0.000000      0.000000      0.000000
      2 O     c       0.000000      0.000000      0.000000      0.000000
      3 Zr    s       0.000000      0.000000      0.000000      0.000000
      4 O     s       0.000000      0.000000      0.000000      0.000000
--------------------------------------------------------------------------------
  Maximum abs         0.000000      0.000000      0.000000      0.000000
--------------------------------------------------------------------------------

  Comparison of initial and final structures : 

--------------------------------------------------------------------------------
  Parameter   Initial value   Final value   Difference    Units      Percent
--------------------------------------------------------------------------------
    Volume       130.323843    130.762624     0.438781    Angs**3      0.34
    a              5.070000      5.075684     0.005684    Angstroms    0.11
    b              5.070000      5.075684     0.005684    Angstroms    0.11
    c              5.070000      5.075684     0.005684    Angstroms    0.11
    alpha         90.000000     90.000000     0.000000    Degrees      0.00
    beta          90.000000     90.000000     0.000000    Degrees      0.00
    gamma         90.000000     90.000000     0.000000    Degrees      0.00
      1 x          0.000000      0.000000     0.000000    Fractional   0.00
      1 y          0.000000      0.000000     0.000000    Fractional   0.00
      1 z          0.000000      0.000000     0.000000    Fractional   0.00
      2 x          0.250000      0.250000     0.000000    Fractional   0.00
      2 y          0.250000      0.250000     0.000000    Fractional   0.00
      2 z          0.250000      0.250000     0.000000    Fractional   0.00
      3 x          0.000000      0.000000     0.000000    Fractional   0.00
      3 y          0.000000      0.000000     0.000000    Fractional   0.00
      3 z          0.000000      0.000000     0.000000    Fractional   0.00
      4 x          0.250000      0.250000     0.000000    Fractional   0.00
      4 y          0.250000      0.250000     0.000000    Fractional   0.00
      4 z          0.250000      0.250000     0.000000    Fractional   0.00
--------------------------------------------------------------------------------


  Distance calculation :


  Cutoff for distances  =      4.000000 Angstroms

--------------------------------------------------------------------------------
  Asymmetric unit site  Full lattice sites    No.  Distance      No.  Distance
      No.   At.No.            At.No.                (Angs)             (Angs) 
--------------------------------------------------------------------------------
       1   Zr    core        Zr    core        12    3.5891
                             Zr    shell       12    3.5891
                             O     core         8    2.1978
                             O     shell        8    2.1978
--------------------------------------------------------------------------------
       2   O     core        Zr    core         4    2.1978
                             Zr    shell        4    2.1978
                             O     core         6    2.5378       12    3.5891
                             O     shell        6    2.5378       12    3.5891
--------------------------------------------------------------------------------
       3   Zr    shell       Zr    core        12    3.5891
                             Zr    shell       12    3.5891
                             O     core         8    2.1978
                             O     shell        8    2.1978
--------------------------------------------------------------------------------
       4   O     shell       Zr    core         4    2.1978
                             Zr    shell        4    2.1978
                             O     core         6    2.5378       12    3.5891
                             O     shell        6    2.5378       12    3.5891
--------------------------------------------------------------------------------



  Born effective charge tensors : 

-------------------------------------------------------------------------------
  Atom             x           y             z
-------------------------------------------------------------------------------
    1 Zr    x       3.6770      0.0000      0.0000
            y       0.0000      3.6770      0.0000
            z       0.0000      0.0000      3.6770
-------------------------------------------------------------------------------
    2 O     x      -1.8385      0.0000      0.0000
            y       0.0000     -1.8385     -0.0000
            z       0.0000     -0.0000     -1.8385
-------------------------------------------------------------------------------




  Elastic Constant Matrix: (Units=GPa)

-------------------------------------------------------------------------------
  Indices      1         2         3         4         5         6    
-------------------------------------------------------------------------------
       1    616.2933  119.6612  119.6612   -0.0000   -0.0000   -0.0000
       2    119.6612  616.2933  119.6612   -0.0000   -0.0000   -0.0000
       3    119.6612  119.6612  616.2933   -0.0000   -0.0000   -0.0000
       4     -0.0000   -0.0000   -0.0000  100.8598    0.0000   -0.0000
       5     -0.0000   -0.0000   -0.0000    0.0000  100.8598    0.0000
       6     -0.0000   -0.0000   -0.0000   -0.0000    0.0000  100.8598
-------------------------------------------------------------------------------


  Elastic Compliance Matrix: (Units=1/GPa)

-------------------------------------------------------------------------------
  Indices      1         2         3         4         5         6    
-------------------------------------------------------------------------------
       1    0.001732 -0.000282 -0.000282  0.000000  0.000000  0.000000
       2   -0.000282  0.001732 -0.000282 -0.000000  0.000000  0.000000
       3   -0.000282 -0.000282  0.001732  0.000000  0.000000  0.000000
       4    0.000000 -0.000000  0.000000  0.009915 -0.000000  0.000000
       5    0.000000  0.000000  0.000000 -0.000000  0.009915 -0.000000
       6    0.000000  0.000000  0.000000  0.000000 -0.000000  0.009915
-------------------------------------------------------------------------------

  Mechanical properties :

-------------------------------------------------------------------------------
  Convention :                    Reuss         Voigt         Hill
-------------------------------------------------------------------------------
  Bulk  Modulus (GPa)     =     285.20524     285.20524     285.20524
  Shear Modulus (GPa)     =     132.28031     159.84228     146.06129
-------------------------------------------------------------------------------
  Velocity S-wave (km/s)  =       4.59717       5.05346       4.83071
  Velocity P-wave (km/s)  =       8.58749       8.92280       8.75675
-------------------------------------------------------------------------------
  Compressibility (1/GPa) =    0.00350625
-------------------------------------------------------------------------------
  Stress axis :                     x             y             z
-------------------------------------------------------------------------------
  Youngs Moduli (GPa)     =     577.38110     577.38110     577.38110
-------------------------------------------------------------------------------
  Poissons Ratio (x)      =                     0.16259       0.16259
  Poissons Ratio (y)      =       0.16259                     0.16259
  Poissons Ratio (z)      =       0.16259       0.16259
-------------------------------------------------------------------------------


  Piezoelectric Strain Matrix: (Units=C/m**2)

-------------------------------------------------------------------------------
  Indices      1         2         3         4         5         6    
-------------------------------------------------------------------------------
       x    -0.00000   0.00000   0.00000   0.00000   0.00000   0.00000
       y    -0.00000  -0.00000  -0.00000   0.00000   0.00000   0.00000
       z    -0.00000  -0.00000  -0.00000   0.00000   0.00000   0.00000
-------------------------------------------------------------------------------


  Piezoelectric Stress Matrix: (Units=10**-11 C/N)

-------------------------------------------------------------------------------
  Indices      1         2         3         4         5         6    
-------------------------------------------------------------------------------
       x    -0.00000   0.00000   0.00000   0.00000   0.00000   0.00000
       y    -0.00000  -0.00000  -0.00000   0.00000   0.00000   0.00000
       z     0.00000   0.00000  -0.00000   0.00000   0.00000   0.00000
-------------------------------------------------------------------------------


  Static dielectric constant tensor : 

-------------------------------------------------------------------------------
              x         y         z
-------------------------------------------------------------------------------
       x    26.88485   0.00000   0.00000
       y     0.00000  26.88485   0.00000
       z     0.00000   0.00000  26.88485
--------------------------------------------------------------------------------

  High frequency dielectric constant tensor : 

-------------------------------------------------------------------------------
              x         y         z
-------------------------------------------------------------------------------
       x     2.63099   0.00000   0.00000
       y     0.00000   2.63099   0.00000
       z     0.00000   0.00000   2.63099
-------------------------------------------------------------------------------

  Static refractive indices : 

-------------------------------------------------------------------------------
    1 =    5.18506      2 =    5.18506      3 =    5.18506
-------------------------------------------------------------------------------

  High frequency refractive indices : 

-------------------------------------------------------------------------------
    1 =    1.62203      2 =    1.62203      3 =    1.62203
-------------------------------------------------------------------------------


  Time to end of optimisation =       0.0144 seconds

********************************************************************************
*  Defect calculation for configuration   1 :                                  *
********************************************************************************

  Total number of defects =      3

  Total charge on defect  =   2.00

  Defect centre is at   0.3600   0.2500   0.2500  Frac

  Region 1 radius =  12.0000      Number of ions =   1332

  Number of symmetry inequivalent region 1 ions  =    410

  Region 2 radius =  24.0000      Number of ions =   9272

  Number of symmetry inequivalent region 2a ions =   2548

  Region 2a mode = 4 : screened electrostatics due to region 1 
                       neglect correction to region 1 forces from 2a
                       region 2a displacements based on defects only

  Region 2a ions will only interact with defects in region 1

  Vacancies:

--------------------------------------------------------------------------------
    Specification type     Symbol/Number         x          y          z
--------------------------------------------------------------------------------
    Fractional                               0.250000   0.250000   0.250000
    Fractional                               0.750000   0.250000   0.250000
--------------------------------------------------------------------------------

  Interstitials:

--------------------------------------------------------------------------------
    Specification type     Symbol/Number         x          y          z
--------------------------------------------------------------------------------
    Atom/Fractional         O                0.360000   0.250000   0.250000
--------------------------------------------------------------------------------


  Symmetry reduced region 1 (Relative to defect centre) :

--------------------------------------------------------------------------------
   No.   Atomic       x            y             z       Radius  Multiplicity   
         Label      (Angs)       (Angs)        (Angs)    (Angs)     
--------------------------------------------------------------------------------
     1  O     c      0.0000       0.0000       0.0000    0.0000     1    Defect
     2  Zr    c      0.7106 *     1.2689 *    -1.2689    0.0000     2          
     3  Zr    c     -1.8272 *     1.2689 *     1.2689    0.0000     2          
     4  O     c     -0.5583 *     2.5378 *    -0.0000 *  0.0000     4          
     5  O     c     -3.0962 *    -0.0000      -0.0000    0.0000     1          
     6  O     c      1.9795 *     2.5378 *     0.0000 *  0.0000     4          
     7  O     c     -0.5583 *     2.5378 *     2.5378    0.0000     2          
     8  O     c     -0.5583 *    -2.5378 *     2.5378    0.0000     2          
     9  Zr    c      3.2484 *     1.2689 *     1.2689    0.0000     2          
    10  O     c     -3.0962 *    -2.5378 *     0.0000 *  0.0000     4          
    11  Zr    c      0.7106 *     1.2689 *     3.8068 *  0.0000     4          
    12  O     c      1.9795 *     2.5378 *     2.5378    0.0000     2          
    13  O     c      1.9795 *     2.5378 *    -2.5378    0.0000     2          
    14  Zr    c     -1.8272 *    -3.8068 *     1.2689 *  0.0000     4          
    15  O     c      4.5174 *     0.0000       0.0000    0.0000     1          
    16  Zr    c     -4.3651 *    -1.2689 *     1.2689    0.0000     2          
    17  O     c     -3.0962 *     2.5378 *     2.5378    0.0000     2          
    18  O     c     -3.0962 *    -2.5378 *     2.5378    0.0000     2          
    19  O     c     -0.5583 *    -5.0757 *     0.0000 *  0.0000     4          
    20  Zr    c      3.2484 *     3.8068 *    -1.2689 *  0.0000     4          
    21  O     c      4.5174 *     2.5378 *    -0.0000 *  0.0000     4          
    22  Zr    c      0.7106 *    -3.8068 *     3.8068    0.0000     2          
    23  O     c      1.9795 *     5.0757 *    -0.0000 *  0.0000     4          
    24  O     c     -5.6340 *     0.0000       0.0000    0.0000     1          
    25  Zr    c     -1.8272 *     3.8068 *     3.8068    0.0000     2          
    26  O     c     -0.5583 *     5.0757 *     2.5378 *  0.0000     4          
    27  O     c     -0.5583 *    -2.5378 *     5.0757 *  0.0000     4          
    28  O     c      4.5174 *     2.5378 *    -2.5378    0.0000     2          
    29  O     c      4.5174 *     2.5378 *     2.5378    0.0000     2          
    30  Zr    c     -4.3651 *     3.8068 *     1.2689 *  0.0000     4          
    31  O     c     -3.0962 *    -0.0000 *     5.0757 *  0.0000     4          
    32  O     c      1.9795 *    -5.0757 *     2.5378 *  0.0000     4          
    33  O     c      1.9795 *     5.0757 *     2.5378 *  0.0000     4          
    34  Zr    c      5.7863 *     1.2689 *    -1.2689    0.0000     2          
    35  O     c     -5.6340 *    -0.0000 *     2.5378 *  0.0000     4          
    36  Zr    c      3.2484 *     3.8068 *     3.8068    0.0000     2          
    37  O     c     -3.0962 *     5.0757 *     2.5378 *  0.0000     4          
    38  O     c     -3.0962 *    -5.0757 *     2.5378 *  0.0000     4          
    39  Zr    c      0.7106 *    -1.2689 *     6.3446 *  0.0000     4          
    40  O     c     -5.6340 *     2.5378 *    -2.5378    0.0000     2          
    41  O     c     -5.6340 *     2.5378 *     2.5378    0.0000     2          
    42  Zr    c     -1.8272 *     6.3446 *     1.2689 *  0.0000     4          
    43  O     c      4.5174 *     5.0757 *     0.0000 *  0.0000     4          
    44  Zr    c     -4.3651 *     3.8068 *    -3.8068    0.0000     2          
    45  Zr    c      5.7863 *    -3.8068 *    -1.2689 *  0.0000     4          
    46  O     c      7.0552 *    -0.0000      -0.0000    0.0000     1          
    47  Zr    c     -6.9029 *     1.2689 *     1.2689    0.0000     2          
    48  O     c     -0.5583 *    -5.0757 *     5.0757    0.0000     2          
    49  O     c     -0.5583 *     5.0757 *     5.0757    0.0000     2          
    50  Zr    c      3.2484 *    -6.3446 *    -1.2689 *  0.0000     4          
    51  O     c      4.5174 *     5.0757 *     2.5378 *  0.0000     4          
    52  O     c      4.5174 *     5.0757 *    -2.5378 *  0.0000     4          
    53  Zr    c      0.7106 *     3.8068 *     6.3446 *  0.0000     4          
    54  O     c      1.9795 *     5.0757 *     5.0757    0.0000     2          
    55  O     c      1.9795 *    -5.0757 *     5.0757    0.0000     2          
    56  O     c      7.0552 *     2.5378 *     0.0000 *  0.0000     4          
    57  O     c     -5.6340 *     5.0757 *     0.0000 *  0.0000     4          
    58  Zr    c     -1.8272 *    -6.3446 *     3.8068 *  0.0000     4          
    59  O     c     -0.5583 *    -0.0000 *     7.6135 *  0.0000     4          
    60  Zr    c     -4.3651 *     1.2689 *    -6.3446 *  0.0000     4          
    61  O     c     -3.0962 *     5.0757 *     5.0757    0.0000     2          
    62  O     c     -3.0962 *    -5.0757 *     5.0757    0.0000     2          
    63  O     c      1.9795 *     0.0000 *     7.6135 *  0.0000     4          
    64  Zr    c      5.7863 *     3.8068 *    -3.8068    0.0000     2          
    65  O     c      7.0552 *     2.5378 *     2.5378    0.0000     2          
    66  O     c      7.0552 *     2.5378 *    -2.5378    0.0000     2          
    67  Zr    c     -6.9029 *     1.2689 *    -3.8068 *  0.0000     4          
    68  O     c     -5.6340 *     5.0757 *     2.5378 *  0.0000     4          
    69  O     c     -5.6340 *    -2.5378 *     5.0757 *  0.0000     4          
    70  O     c     -0.5583 *     2.5378 *     7.6135 *  0.0000     4          
    71  O     c     -0.5583 *    -7.6135 *     2.5378 *  0.0000     4          
    72  Zr    c      3.2484 *    -3.8068 *     6.3446 *  0.0000     4          
    73  O     c     -8.1719 *    -0.0000      -0.0000    0.0000     1          
    74  O     c     -3.0962 *    -7.6135 *     0.0000 *  0.0000     4          
    75  O     c      1.9795 *     7.6135 *     2.5378 *  0.0000     4          
    76  O     c      1.9795 *    -2.5378 *     7.6135 *  0.0000     4          
    77  O     c      4.5174 *    -5.0757 *    -5.0757    0.0000     2          
    78  O     c      4.5174 *    -5.0757 *     5.0757    0.0000     2          
    79  Zr    c      8.3241 *     1.2689 *     1.2689    0.0000     2          
    80  O     c     -8.1719 *    -2.5378 *     0.0000 *  0.0000     4          
    81  Zr    c     -4.3651 *     3.8068 *     6.3446 *  0.0000     4          
    82  O     c     -3.0962 *     7.6135 *    -2.5378 *  0.0000     4          
    83  O     c     -3.0962 *     2.5378 *     7.6135 *  0.0000     4          
    84  Zr    c      5.7863 *     6.3446 *    -1.2689 *  0.0000     4          
    85  O     c      7.0552 *     5.0757 *    -0.0000 *  0.0000     4          
    86  Zr    c     -6.9029 *     3.8068 *     3.8068    0.0000     2          
    87  O     c      4.5174 *     7.6135 *    -0.0000 *  0.0000     4          
    88  O     c     -8.1719 *    -2.5378 *    -2.5378    0.0000     2          
    89  O     c     -8.1719 *    -2.5378 *     2.5378    0.0000     2          
    90  Zr    c      0.7106 *    -6.3446 *     6.3446    0.0000     2          
    91  Zr    c      0.7106 *     1.2689 *     8.8824 *  0.0000     4          
    92  O     c      7.0552 *    -2.5378 *    -5.0757 *  0.0000     4          
    93  O     c      7.0552 *     5.0757 *    -2.5378 *  0.0000     4          
    94  O     c     -5.6340 *     5.0757 *     5.0757    0.0000     2          
    95  O     c     -5.6340 *    -5.0757 *     5.0757    0.0000     2          
    96  Zr    c     -1.8272 *     6.3446 *     6.3446    0.0000     2          
    97  Zr    c     -1.8272 *     8.8824 *    -1.2689 *  0.0000     4          
    98  O     c     -0.5583 *     7.6135 *     5.0757 *  0.0000     4          
    99  O     c     -0.5583 *    -5.0757 *     7.6135 *  0.0000     4          
   100  O     c      4.5174 *    -2.5378 *     7.6135 *  0.0000     4          
   101  O     c      4.5174 *     7.6135 *     2.5378 *  0.0000     4          
   102  Zr    c      8.3241 *     3.8068 *    -1.2689 *  0.0000     4          
   103  O     c      1.9795 *    -7.6135 *     5.0757 *  0.0000     4          
   104  O     c      1.9795 *     7.6135 *     5.0757 *  0.0000     4          
   105  Zr    c      5.7863 *     6.3446 *     3.8068 *  0.0000     4          
   106  Zr    c     -6.9029 *    -6.3446 *    -1.2689 *  0.0000     4          
   107  O     c     -5.6340 *    -0.0000 *     7.6135 *  0.0000     4          
   108  Zr    c      3.2484 *     6.3446 *     6.3446    0.0000     2          
   109  Zr    c      3.2484 *     8.8824 *    -1.2689 *  0.0000     4          
   110  O     c      9.5930 *     0.0000       0.0000    0.0000     1          
   111  Zr    c     -9.4408 *    -1.2689 *     1.2689    0.0000     2          
   112  O     c     -8.1719 *    -0.0000 *     5.0757 *  0.0000     4          
   113  O     c     -3.0962 *    -7.6135 *     5.0757 *  0.0000     4          
   114  O     c     -3.0962 *     5.0757 *     7.6135 *  0.0000     4          
   115  Zr    c      0.7106 *     8.8824 *    -3.8068 *  0.0000     4          
   116  O     c     -5.6340 *    -7.6135 *    -2.5378 *  0.0000     4          
   117  O     c     -5.6340 *    -7.6135 *     2.5378 *  0.0000     4          
   118  Zr    c     -1.8272 *     3.8068 *     8.8824 *  0.0000     4          
   119  Zr    c      8.3241 *     3.8068 *     3.8068    0.0000     2          
   120  O     c      9.5930 *     2.5378 *    -0.0000 *  0.0000     4          
   121  O     c     -8.1719 *    -2.5378 *    -5.0757 *  0.0000     4          
   122  O     c     -8.1719 *     2.5378 *    -5.0757 *  0.0000     4          
   123  Zr    c     -4.3651 *    -6.3446 *     6.3446    0.0000     2          
   124  Zr    c     -4.3651 *     1.2689 *     8.8824 *  0.0000     4          
   125  O     c      7.0552 *     5.0757 *     5.0757    0.0000     2          
   126  O     c      7.0552 *     5.0757 *    -5.0757    0.0000     2          
   127  Zr    c     -6.9029 *    -6.3446 *     3.8068 *  0.0000     4          
   128  O     c     -0.5583 *    -0.0000 *    10.1514 *  0.0000     4          
   129  Zr    c      3.2484 *     8.8824 *     3.8068 *  0.0000     4          
   130  O     c      4.5174 *     7.6135 *     5.0757 *  0.0000     4          
   131  O     c      4.5174 *     7.6135 *    -5.0757 *  0.0000     4          
   132  O     c      9.5930 *     2.5378 *     2.5378    0.0000     2          
   133  O     c      9.5930 *     2.5378 *    -2.5378    0.0000     2          
   134  Zr    c     -9.4408 *    -1.2689 *    -3.8068 *  0.0000     4          
   135  O     c      1.9795 *    -0.0000 *    10.1514 *  0.0000     4          
   136  O     c      7.0552 *     7.6135 *     0.0000 *  0.0000     4          
   137  O     c     -0.5583 *    10.1514 *    -2.5378 *  0.0000     4          
   138  O     c     -0.5583 *     2.5378 *    10.1514 *  0.0000     4          
   139  Zr    c      8.3241 *     6.3446 *     1.2689 *  0.0000     4          
   140  Zr    c     -4.3651 *    -8.8824 *     3.8068 *  0.0000     4          
   141  O     c     -3.0962 *    -0.0000 *    10.1514 *  0.0000     4          
   142  O     c      1.9795 *    -2.5378 *    10.1514 *  0.0000     4          
   143  O     c      1.9795 *     2.5378 *    10.1514 *  0.0000     4          
   144  Zr    c      5.7863 *     1.2689 *     8.8824 *  0.0000     4          
   145  Zr    c      5.7863 *    -6.3446 *     6.3446    0.0000     2          
   146  O     c      7.0552 *     7.6135 *     2.5378 *  0.0000     4          
   147  O     c      7.0552 *     7.6135 *    -2.5378 *  0.0000     4          
   148  O     c    -10.7097 *    -0.0000       0.0000    0.0000     1          
   149  O     c     -5.6340 *     5.0757 *     7.6135 *  0.0000     4          
   150  O     c     -5.6340 *     5.0757 *    -7.6135 *  0.0000     4          
   151  O     c     -0.5583 *    -7.6135 *     7.6135    0.0000     2          
   152  O     c     -0.5583 *     7.6135 *     7.6135    0.0000     2          
   153  O     c      9.5930 *     0.0000 *    -5.0757 *  0.0000     4          
   154  Zr    c     -9.4408 *    -3.8068 *     3.8068    0.0000     2          
   155  O     c     -8.1719 *     5.0757 *     5.0757    0.0000     2          
   156  O     c     -8.1719 *    -5.0757 *     5.0757    0.0000     2          
   157  O     c     -3.0962 *    10.1514 *     2.5378 *  0.0000     4          
   158  O     c     -3.0962 *   -10.1514 *     2.5378 *  0.0000     4          
   159  Zr    c      0.7106 *     8.8824 *     6.3446 *  0.0000     4          
   160  O     c      1.9795 *     7.6135 *     7.6135    0.0000     2          
   161  O     c      1.9795 *    -7.6135 *     7.6135    0.0000     2          
   162  O     c    -10.7097 *    -2.5378 *    -0.0000 *  0.0000     4          
   163  Zr    c     10.8620 *     1.2689 *    -1.2689    0.0000     2          
   164  Zr    c     -1.8272 *    -8.8824 *     6.3446 *  0.0000     4          
   165  O     c      4.5174 *     0.0000 *    10.1514 *  0.0000     4          
   166  Zr    c      8.3241 *     6.3446 *    -3.8068 *  0.0000     4          
   167  O     c      9.5930 *     5.0757 *     2.5378 *  0.0000     4          
   168  O     c      9.5930 *     5.0757 *    -2.5378 *  0.0000     4          
   169  O     c     -8.1719 *    -7.6135 *     0.0000 *  0.0000     4          
   170  O     c     -3.0962 *     7.6135 *     7.6135    0.0000     2          
   171  O     c     -3.0962 *    -7.6135 *     7.6135    0.0000     2          
   172  Zr    c      5.7863 *    -3.8068 *     8.8824 *  0.0000     4          
   173  O     c    -10.7097 *    -2.5378 *    -2.5378    0.0000     2          
   174  O     c    -10.7097 *    -2.5378 *     2.5378    0.0000     2          
   175  Zr    c     -6.9029 *     1.2689 *    -8.8824 *  0.0000     4          
   176  Zr    c     -6.9029 *     6.3446 *     6.3446    0.0000     2          
   177  O     c     -0.5583 *   -10.1514 *     5.0757 *  0.0000     4          
   178  O     c     -0.5583 *     5.0757 *    10.1514 *  0.0000     4          
   179  Zr    c      3.2484 *    -6.3446 *     8.8824 *  0.0000     4          
   180  O     c      4.5174 *    10.1514 *     2.5378 *  0.0000     4          
   181  O     c      4.5174 *    -2.5378 *    10.1514 *  0.0000     4          
   182  Zr    c     -9.4408 *     1.2689 *    -6.3446 *  0.0000     4          
   183  O     c     -8.1719 *     7.6135 *     2.5378 *  0.0000     4          
   184  O     c     -8.1719 *    -7.6135 *     2.5378 *  0.0000     4          
   185  Zr    c      0.7106 *    -1.2689 *    11.4203 *  0.0000     4          
   186  O     c      1.9795 *    10.1514 *     5.0757 *  0.0000     4          
   187  O     c      1.9795 *    -5.0757 *    10.1514 *  0.0000     4          
   188  O     c      7.0552 *    -5.0757 *     7.6135 *  0.0000     4          
   189  O     c      7.0552 *     7.6135 *     5.0757 *  0.0000     4          
   190  Zr    c     10.8620 *     3.8068 *     1.2689 *  0.0000     4          
   191  O     c     -5.6340 *   -10.1514 *     0.0000 *  0.0000     4          
   192  Zr    c     -1.8272 *     1.2689 *    11.4203 *  0.0000     4          
   193  O     c      4.5174 *    -7.6135 *     7.6135    0.0000     2          
   194  O     c      4.5174 *     7.6135 *     7.6135    0.0000     2          
   195  Zr    c     -4.3651 *     6.3446 *     8.8824 *  0.0000     4          
   196  O     c     -3.0962 *    -5.0757 *    10.1514 *  0.0000     4          
   197  O     c     -3.0962 *     5.0757 *    10.1514 *  0.0000     4          
   198  O     c    -10.7097 *    -0.0000 *     5.0757 *  0.0000     4          
   199  Zr    c     -6.9029 *     3.8068 *     8.8824 *  0.0000     4          
   200  O     c     -5.6340 *    -2.5378 *    10.1514 *  0.0000     4          
   201  O     c     -5.6340 *     2.5378 *    10.1514 *  0.0000     4          
   202  Zr    c      3.2484 *     1.2689 *    11.4203 *  0.0000     4          
   203  O     c      9.5930 *     5.0757 *     5.0757    0.0000     2          
   204  O     c      9.5930 *     5.0757 *    -5.0757    0.0000     2          
   205  Zr    c     -9.4408 *     6.3446 *     3.8068 *  0.0000     4          
   206  O     s      0.0000       0.0000       0.0000    0.0000     1    Defect
   207  Zr    s      0.7106 *     1.2689 *    -1.2689    0.0000     2          
   208  Zr    s     -1.8272 *     1.2689 *     1.2689    0.0000     2          
   209  O     s     -0.5583 *     2.5378 *    -0.0000 *  0.0000     4          
   210  O     s     -3.0962 *    -0.0000      -0.0000    0.0000     1          
   211  O     s      1.9795 *     2.5378 *     0.0000 *  0.0000     4          
   212  O     s     -0.5583 *     2.5378 *     2.5378    0.0000     2          
   213  O     s     -0.5583 *    -2.5378 *     2.5378    0.0000     2          
   214  Zr    s      3.2484 *     1.2689 *     1.2689    0.0000     2          
   215  O     s     -3.0962 *    -2.5378 *     0.0000 *  0.0000     4          
   216  Zr    s      0.7106 *     1.2689 *     3.8068 *  0.0000     4          
   217  O     s      1.9795 *     2.5378 *     2.5378    0.0000     2          
   218  O     s      1.9795 *     2.5378 *    -2.5378    0.0000     2          
   219  Zr    s     -1.8272 *    -3.8068 *     1.2689 *  0.0000     4          
   220  O     s      4.5174 *     0.0000       0.0000    0.0000     1          
   221  Zr    s     -4.3651 *    -1.2689 *     1.2689    0.0000     2          
   222  O     s     -3.0962 *     2.5378 *     2.5378    0.0000     2          
   223  O     s     -3.0962 *    -2.5378 *     2.5378    0.0000     2          
   224  O     s     -0.5583 *    -5.0757 *     0.0000 *  0.0000     4          
   225  Zr    s      3.2484 *     3.8068 *    -1.2689 *  0.0000     4          
   226  O     s      4.5174 *     2.5378 *    -0.0000 *  0.0000     4          
   227  Zr    s      0.7106 *    -3.8068 *     3.8068    0.0000     2          
   228  O     s      1.9795 *     5.0757 *    -0.0000 *  0.0000     4          
   229  O     s     -5.6340 *     0.0000       0.0000    0.0000     1          
   230  Zr    s     -1.8272 *     3.8068 *     3.8068    0.0000     2          
   231  O     s     -0.5583 *     5.0757 *     2.5378 *  0.0000     4          
   232  O     s     -0.5583 *    -2.5378 *     5.0757 *  0.0000     4          
   233  O     s      4.5174 *     2.5378 *    -2.5378    0.0000     2          
   234  O     s      4.5174 *     2.5378 *     2.5378    0.0000     2          
   235  Zr    s     -4.3651 *     3.8068 *     1.2689 *  0.0000     4          
   236  O     s     -3.0962 *    -0.0000 *     5.0757 *  0.0000     4          
   237  O     s      1.9795 *    -5.0757 *     2.5378 *  0.0000     4          
   238  O     s      1.9795 *     5.0757 *     2.5378 *  0.0000     4          
   239  Zr    s      5.7863 *     1.2689 *    -1.2689    0.0000     2          
   240  O     s     -5.6340 *    -0.0000 *     2.5378 *  0.0000     4          
   241  Zr    s      3.2484 *     3.8068 *     3.8068    0.0000     2          
   242  O     s     -3.0962 *     5.0757 *     2.5378 *  0.0000     4          
   243  O     s     -3.0962 *    -5.0757 *     2.5378 *  0.0000     4          
   244  Zr    s      0.7106 *    -1.2689 *     6.3446 *  0.0000     4          
   245  O     s     -5.6340 *     2.5378 *    -2.5378    0.0000     2          
   246  O     s     -5.6340 *     2.5378 *     2.5378    0.0000     2          
   247  Zr    s     -1.8272 *     6.3446 *     1.2689 *  0.0000     4          
   248  O     s      4.5174 *     5.0757 *     0.0000 *  0.0000     4          
   249  Zr    s     -4.3651 *     3.8068 *    -3.8068    0.0000     2          
   250  Zr    s      5.7863 *    -3.8068 *    -1.2689 *  0.0000     4          
   251  O     s      7.0552 *    -0.0000      -0.0000    0.0000     1          
   252  Zr    s     -6.9029 *     1.2689 *     1.2689    0.0000     2          
   253  O     s     -0.5583 *    -5.0757 *     5.0757    0.0000     2          
   254  O     s     -0.5583 *     5.0757 *     5.0757    0.0000     2          
   255  Zr    s      3.2484 *    -6.3446 *    -1.2689 *  0.0000     4          
   256  O     s      4.5174 *     5.0757 *     2.5378 *  0.0000     4          
   257  O     s      4.5174 *     5.0757 *    -2.5378 *  0.0000     4          
   258  Zr    s      0.7106 *     3.8068 *     6.3446 *  0.0000     4          
   259  O     s      1.9795 *     5.0757 *     5.0757    0.0000     2          
   260  O     s      1.9795 *    -5.0757 *     5.0757    0.0000     2          
   261  O     s      7.0552 *     2.5378 *     0.0000 *  0.0000     4          
   262  O     s     -5.6340 *     5.0757 *     0.0000 *  0.0000     4          
   263  Zr    s     -1.8272 *    -6.3446 *     3.8068 *  0.0000     4          
   264  O     s     -0.5583 *    -0.0000 *     7.6135 *  0.0000     4          
   265  Zr    s     -4.3651 *     1.2689 *    -6.3446 *  0.0000     4          
   266  O     s     -3.0962 *     5.0757 *     5.0757    0.0000     2          
   267  O     s     -3.0962 *    -5.0757 *     5.0757    0.0000     2          
   268  O     s      1.9795 *     0.0000 *     7.6135 *  0.0000     4          
   269  Zr    s      5.7863 *     3.8068 *    -3.8068    0.0000     2          
   270  O     s      7.0552 *     2.5378 *     2.5378    0.0000     2          
   271  O     s      7.0552 *     2.5378 *    -2.5378    0.0000     2          
   272  Zr    s     -6.9029 *     1.2689 *    -3.8068 *  0.0000     4          
   273  O     s     -5.6340 *     5.0757 *     2.5378 *  0.0000     4          
   274  O     s     -5.6340 *    -2.5378 *     5.0757 *  0.0000     4          
   275  O     s     -0.5583 *     2.5378 *     7.6135 *  0.0000     4          
   276  O     s     -0.5583 *    -7.6135 *     2.5378 *  0.0000     4          
   277  Zr    s      3.2484 *    -3.8068 *     6.3446 *  0.0000     4          
   278  O     s     -8.1719 *    -0.0000      -0.0000    0.0000     1          
   279  O     s     -3.0962 *    -7.6135 *     0.0000 *  0.0000     4          
   280  O     s      1.9795 *     7.6135 *     2.5378 *  0.0000     4          
   281  O     s      1.9795 *    -2.5378 *     7.6135 *  0.0000     4          
   282  O     s      4.5174 *    -5.0757 *    -5.0757    0.0000     2          
   283  O     s      4.5174 *    -5.0757 *     5.0757    0.0000     2          
   284  Zr    s      8.3241 *     1.2689 *     1.2689    0.0000     2          
   285  O     s     -8.1719 *    -2.5378 *     0.0000 *  0.0000     4          
   286  Zr    s     -4.3651 *     3.8068 *     6.3446 *  0.0000     4          
   287  O     s     -3.0962 *     7.6135 *    -2.5378 *  0.0000     4          
   288  O     s     -3.0962 *     2.5378 *     7.6135 *  0.0000     4          
   289  Zr    s      5.7863 *     6.3446 *    -1.2689 *  0.0000     4          
   290  O     s      7.0552 *     5.0757 *    -0.0000 *  0.0000     4          
   291  Zr    s     -6.9029 *     3.8068 *     3.8068    0.0000     2          
   292  O     s      4.5174 *     7.6135 *    -0.0000 *  0.0000     4          
   293  O     s     -8.1719 *    -2.5378 *    -2.5378    0.0000     2          
   294  O     s     -8.1719 *    -2.5378 *     2.5378    0.0000     2          
   295  Zr    s      0.7106 *    -6.3446 *     6.3446    0.0000     2          
   296  Zr    s      0.7106 *     1.2689 *     8.8824 *  0.0000     4          
   297  O     s      7.0552 *    -2.5378 *    -5.0757 *  0.0000     4          
   298  O     s      7.0552 *     5.0757 *    -2.5378 *  0.0000     4          
   299  O     s     -5.6340 *     5.0757 *     5.0757    0.0000     2          
   300  O     s     -5.6340 *    -5.0757 *     5.0757    0.0000     2          
   301  Zr    s     -1.8272 *     6.3446 *     6.3446    0.0000     2          
   302  Zr    s     -1.8272 *     8.8824 *    -1.2689 *  0.0000     4          
   303  O     s     -0.5583 *     7.6135 *     5.0757 *  0.0000     4          
   304  O     s     -0.5583 *    -5.0757 *     7.6135 *  0.0000     4          
   305  O     s      4.5174 *    -2.5378 *     7.6135 *  0.0000     4          
   306  O     s      4.5174 *     7.6135 *     2.5378 *  0.0000     4          
   307  Zr    s      8.3241 *     3.8068 *    -1.2689 *  0.0000     4          
   308  O     s      1.9795 *    -7.6135 *     5.0757 *  0.0000     4          
   309  O     s      1.9795 *     7.6135 *     5.0757 *  0.0000     4          
   310  Zr    s      5.7863 *     6.3446 *     3.8068 *  0.0000     4          
   311  Zr    s     -6.9029 *    -6.3446 *    -1.2689 *  0.0000     4          
   312  O     s     -5.6340 *    -0.0000 *     7.6135 *  0.0000     4          
   313  Zr    s      3.2484 *     6.3446 *     6.3446    0.0000     2          
   314  Zr    s      3.2484 *     8.8824 *    -1.2689 *  0.0000     4          
   315  O     s      9.5930 *     0.0000       0.0000    0.0000     1          
   316  Zr    s     -9.4408 *    -1.2689 *     1.2689    0.0000     2          
   317  O     s     -8.1719 *    -0.0000 *     5.0757 *  0.0000     4          
   318  O     s     -3.0962 *    -7.6135 *     5.0757 *  0.0000     4          
   319  O     s     -3.0962 *     5.0757 *     7.6135 *  0.0000     4          
   320  Zr    s      0.7106 *     8.8824 *    -3.8068 *  0.0000     4          
   321  O     s     -5.6340 *    -7.6135 *    -2.5378 *  0.0000     4          
   322  O     s     -5.6340 *    -7.6135 *     2.5378 *  0.0000     4          
   323  Zr    s     -1.8272 *     3.8068 *     8.8824 *  0.0000     4          
   324  Zr    s      8.3241 *     3.8068 *     3.8068    0.0000     2          
   325  O     s      9.5930 *     2.5378 *    -0.0000 *  0.0000     4          
   326  O     s     -8.1719 *    -2.5378 *    -5.0757 *  0.0000     4          
   327  O     s     -8.1719 *     2.5378 *    -5.0757 *  0.0000     4          
   328  Zr    s     -4.3651 *    -6.3446 *     6.3446    0.0000     2          
   329  Zr    s     -4.3651 *     1.2689 *     8.8824 *  0.0000     4          
   330  O     s      7.0552 *     5.0757 *     5.0757    0.0000     2          
   331  O     s      7.0552 *     5.0757 *    -5.0757    0.0000     2          
   332  Zr    s     -6.9029 *    -6.3446 *     3.8068 *  0.0000     4          
   333  O     s     -0.5583 *    -0.0000 *    10.1514 *  0.0000     4          
   334  Zr    s      3.2484 *     8.8824 *     3.8068 *  0.0000     4          
   335  O     s      4.5174 *     7.6135 *     5.0757 *  0.0000     4          
   336  O     s      4.5174 *     7.6135 *    -5.0757 *  0.0000     4          
   337  O     s      9.5930 *     2.5378 *     2.5378    0.0000     2          
   338  O     s      9.5930 *     2.5378 *    -2.5378    0.0000     2          
   339  Zr    s     -9.4408 *    -1.2689 *    -3.8068 *  0.0000     4          
   340  O     s      1.9795 *    -0.0000 *    10.1514 *  0.0000     4          
   341  O     s      7.0552 *     7.6135 *     0.0000 *  0.0000     4          
   342  O     s     -0.5583 *    10.1514 *    -2.5378 *  0.0000     4          
   343  O     s     -0.5583 *     2.5378 *    10.1514 *  0.0000     4          
   344  Zr    s      8.3241 *     6.3446 *     1.2689 *  0.0000     4          
   345  Zr    s     -4.3651 *    -8.8824 *     3.8068 *  0.0000     4          
   346  O     s     -3.0962 *    -0.0000 *    10.1514 *  0.0000     4          
   347  O     s      1.9795 *    -2.5378 *    10.1514 *  0.0000     4          
   348  O     s      1.9795 *     2.5378 *    10.1514 *  0.0000     4          
   349  Zr    s      5.7863 *     1.2689 *     8.8824 *  0.0000     4          
   350  Zr    s      5.7863 *    -6.3446 *     6.3446    0.0000     2          
   351  O     s      7.0552 *     7.6135 *     2.5378 *  0.0000     4          
   352  O     s      7.0552 *     7.6135 *    -2.5378 *  0.0000     4          
   353  O     s    -10.7097 *    -0.0000       0.0000    0.0000     1          
   354  O     s     -5.6340 *     5.0757 *     7.6135 *  0.0000     4          
   355  O     s     -5.6340 *     5.0757 *    -7.6135 *  0.0000     4          
   356  O     s     -0.5583 *    -7.6135 *     7.6135    0.0000     2          
   357  O     s     -0.5583 *     7.6135 *     7.6135    0.0000     2          
   358  O     s      9.5930 *     0.0000 *    -5.0757 *  0.0000     4          
   359  Zr    s     -9.4408 *    -3.8068 *     3.8068    0.0000     2          
   360  O     s     -8.1719 *     5.0757 *     5.0757    0.0000     2          
   361  O     s     -8.1719 *    -5.0757 *     5.0757    0.0000     2          
   362  O     s     -3.0962 *    10.1514 *     2.5378 *  0.0000     4          
   363  O     s     -3.0962 *   -10.1514 *     2.5378 *  0.0000     4          
   364  Zr    s      0.7106 *     8.8824 *     6.3446 *  0.0000     4          
   365  O     s      1.9795 *     7.6135 *     7.6135    0.0000     2          
   366  O     s      1.9795 *    -7.6135 *     7.6135    0.0000     2          
   367  O     s    -10.7097 *    -2.5378 *    -0.0000 *  0.0000     4          
   368  Zr    s     10.8620 *     1.2689 *    -1.2689    0.0000     2          
   369  Zr    s     -1.8272 *    -8.8824 *     6.3446 *  0.0000     4          
   370  O     s      4.5174 *     0.0000 *    10.1514 *  0.0000     4          
   371  Zr    s      8.3241 *     6.3446 *    -3.8068 *  0.0000     4          
   372  O     s      9.5930 *     5.0757 *     2.5378 *  0.0000     4          
   373  O     s      9.5930 *     5.0757 *    -2.5378 *  0.0000     4          
   374  O     s     -8.1719 *    -7.6135 *     0.0000 *  0.0000     4          
   375  O     s     -3.0962 *     7.6135 *     7.6135    0.0000     2          
   376  O     s     -3.0962 *    -7.6135 *     7.6135    0.0000     2          
   377  Zr    s      5.7863 *    -3.8068 *     8.8824 *  0.0000     4          
   378  O     s    -10.7097 *    -2.5378 *    -2.5378    0.0000     2          
   379  O     s    -10.7097 *    -2.5378 *     2.5378    0.0000     2          
   380  Zr    s     -6.9029 *     1.2689 *    -8.8824 *  0.0000     4          
   381  Zr    s     -6.9029 *     6.3446 *     6.3446    0.0000     2          
   382  O     s     -0.5583 *   -10.1514 *     5.0757 *  0.0000     4          
   383  O     s     -0.5583 *     5.0757 *    10.1514 *  0.0000     4          
   384  Zr    s      3.2484 *    -6.3446 *     8.8824 *  0.0000     4          
   385  O     s      4.5174 *    10.1514 *     2.5378 *  0.0000     4          
   386  O     s      4.5174 *    -2.5378 *    10.1514 *  0.0000     4          
   387  Zr    s     -9.4408 *     1.2689 *    -6.3446 *  0.0000     4          
   388  O     s     -8.1719 *     7.6135 *     2.5378 *  0.0000     4          
   389  O     s     -8.1719 *    -7.6135 *     2.5378 *  0.0000     4          
   390  Zr    s      0.7106 *    -1.2689 *    11.4203 *  0.0000     4          
   391  O     s      1.9795 *    10.1514 *     5.0757 *  0.0000     4          
   392  O     s      1.9795 *    -5.0757 *    10.1514 *  0.0000     4          
   393  O     s      7.0552 *    -5.0757 *     7.6135 *  0.0000     4          
   394  O     s      7.0552 *     7.6135 *     5.0757 *  0.0000     4          
   395  Zr    s     10.8620 *     3.8068 *     1.2689 *  0.0000     4          
   396  O     s     -5.6340 *   -10.1514 *     0.0000 *  0.0000     4          
   397  Zr    s     -1.8272 *     1.2689 *    11.4203 *  0.0000     4          
   398  O     s      4.5174 *    -7.6135 *     7.6135    0.0000     2          
   399  O     s      4.5174 *     7.6135 *     7.6135    0.0000     2          
   400  Zr    s     -4.3651 *     6.3446 *     8.8824 *  0.0000     4          
   401  O     s     -3.0962 *    -5.0757 *    10.1514 *  0.0000     4          
   402  O     s     -3.0962 *     5.0757 *    10.1514 *  0.0000     4          
   403  O     s    -10.7097 *    -0.0000 *     5.0757 *  0.0000     4          
   404  Zr    s     -6.9029 *     3.8068 *     8.8824 *  0.0000     4          
   405  O     s     -5.6340 *    -2.5378 *    10.1514 *  0.0000     4          
   406  O     s     -5.6340 *     2.5378 *    10.1514 *  0.0000     4          
   407  Zr    s      3.2484 *     1.2689 *    11.4203 *  0.0000     4          
   408  O     s      9.5930 *     5.0757 *     5.0757    0.0000     2          
   409  O     s      9.5930 *     5.0757 *    -5.0757    0.0000     2          
   410  Zr    s     -9.4408 *     6.3446 *     3.8068 *  0.0000     4          
--------------------------------------------------------------------------------


  Constraints on symmetry reduced coordinates :

--------------------------------------------------------------------------------
  Constraint no.      Unconstrained     Constrained    Coefficient    
                         Variable         Variable
--------------------------------------------------------------------------------
           1                 2 y             2 z        -1.00000
           2                 3 y             3 z         1.00000
           3                 7 y             7 z         1.00000
           4                 8 y             8 z        -1.00000
           5                 9 y             9 z         1.00000
           6                12 y            12 z         1.00000
           7                13 y            13 z        -1.00000
           8                16 y            16 z        -1.00000
           9                17 y            17 z         1.00000
          10                18 y            18 z        -1.00000
          11                22 y            22 z        -1.00000
          12                25 y            25 z         1.00000
          13                28 y            28 z        -1.00000
          14                29 y            29 z         1.00000
          15                34 y            34 z        -1.00000
          16                36 y            36 z         1.00000
          17                40 y            40 z        -1.00000
          18                41 y            41 z         1.00000
          19                44 y            44 z        -1.00000
          20                47 y            47 z         1.00000
          21                48 y            48 z        -1.00000
          22                49 y            49 z         1.00000
          23                54 y            54 z         1.00000
          24                55 y            55 z        -1.00000
          25                61 y            61 z         1.00000
          26                62 y            62 z        -1.00000
          27                64 y            64 z        -1.00000
          28                65 y            65 z         1.00000
          29                66 y            66 z        -1.00000
          30                77 y            77 z         1.00000
          31                78 y            78 z        -1.00000
          32                79 y            79 z         1.00000
          33                86 y            86 z         1.00000
          34                88 y            88 z         1.00000
          35                89 y            89 z        -1.00000
          36                90 y            90 z        -1.00000
          37                94 y            94 z         1.00000
          38                95 y            95 z        -1.00000
          39                96 y            96 z         1.00000
          40               108 y           108 z         1.00000
          41               111 y           111 z        -1.00000
          42               119 y           119 z         1.00000
          43               123 y           123 z        -1.00000
          44               125 y           125 z         1.00000
          45               126 y           126 z        -1.00000
          46               132 y           132 z         1.00000
          47               133 y           133 z        -1.00000
          48               145 y           145 z        -1.00000
          49               151 y           151 z        -1.00000
          50               152 y           152 z         1.00000
          51               154 y           154 z        -1.00000
          52               155 y           155 z         1.00000
          53               156 y           156 z        -1.00000
          54               160 y           160 z         1.00000
          55               161 y           161 z        -1.00000
          56               163 y           163 z        -1.00000
          57               170 y           170 z         1.00000
          58               171 y           171 z        -1.00000
          59               173 y           173 z         1.00000
          60               174 y           174 z        -1.00000
          61               176 y           176 z         1.00000
          62               193 y           193 z        -1.00000
          63               194 y           194 z         1.00000
          64               203 y           203 z         1.00000
          65               204 y           204 z        -1.00000
          66               207 y           207 z        -1.00000
          67               208 y           208 z         1.00000
          68               212 y           212 z         1.00000
          69               213 y           213 z        -1.00000
          70               214 y           214 z         1.00000
          71               217 y           217 z         1.00000
          72               218 y           218 z        -1.00000
          73               221 y           221 z        -1.00000
          74               222 y           222 z         1.00000
          75               223 y           223 z        -1.00000
          76               227 y           227 z        -1.00000
          77               230 y           230 z         1.00000
          78               233 y           233 z        -1.00000
          79               234 y           234 z         1.00000
          80               239 y           239 z        -1.00000
          81               241 y           241 z         1.00000
          82               245 y           245 z        -1.00000
          83               246 y           246 z         1.00000
          84               249 y           249 z        -1.00000
          85               252 y           252 z         1.00000
          86               253 y           253 z        -1.00000
          87               254 y           254 z         1.00000
          88               259 y           259 z         1.00000
          89               260 y           260 z        -1.00000
          90               266 y           266 z         1.00000
          91               267 y           267 z        -1.00000
          92               269 y           269 z        -1.00000
          93               270 y           270 z         1.00000
          94               271 y           271 z        -1.00000
          95               282 y           282 z         1.00000
          96               283 y           283 z        -1.00000
          97               284 y           284 z         1.00000
          98               291 y           291 z         1.00000
          99               293 y           293 z         1.00000
         100               294 y           294 z        -1.00000
         101               295 y           295 z        -1.00000
         102               299 y           299 z         1.00000
         103               300 y           300 z        -1.00000
         104               301 y           301 z         1.00000
         105               313 y           313 z         1.00000
         106               316 y           316 z        -1.00000
         107               324 y           324 z         1.00000
         108               328 y           328 z        -1.00000
         109               330 y           330 z         1.00000
         110               331 y           331 z        -1.00000
         111               337 y           337 z         1.00000
         112               338 y           338 z        -1.00000
         113               350 y           350 z        -1.00000
         114               356 y           356 z        -1.00000
         115               357 y           357 z         1.00000
         116               359 y           359 z        -1.00000
         117               360 y           360 z         1.00000
         118               361 y           361 z        -1.00000
         119               365 y           365 z         1.00000
         120               366 y           366 z        -1.00000
         121               368 y           368 z        -1.00000
         122               375 y           375 z         1.00000
         123               376 y           376 z        -1.00000
         124               378 y           378 z         1.00000
         125               379 y           379 z        -1.00000
         126               381 y           381 z         1.00000
         127               398 y           398 z        -1.00000
         128               399 y           399 z         1.00000
         129               408 y           408 z         1.00000
         130               409 y           409 z        -1.00000
--------------------------------------------------------------------------------


  Components of defect energy : 

--------------------------------------------------------------------------------
  Region 1 - region 1                   =     24.11099615 eV
  Region 1 - region 2a (unrelaxed)      =      8.00385425 eV
  Region 1 - 2a (relaxed - correction)  =     -2.35048229 eV
  Region 1 (Total)                      =     29.76436810 eV
  Region 2a                             =      1.17526730 eV
  Region 2b                             =     -1.15911809 eV
--------------------------------------------------------------------------------
  Total defect energy                   =     29.78051731 eV
--------------------------------------------------------------------------------

  Largest displacement in region 2 =   0.0061 Angstroms


  Number of variables =     1066

  Maximum number of calculations  =        1000
  Maximum Hessian update interval =          10
  Maximum step size               =   1.0000000
  Maximum parameter tolerance     =   0.0000100
  Maximum function  tolerance     =   0.0000100
  Maximum gradient  tolerance     =   0.0010000

  Symmetry adapted optimisation

  Symmetry to be used for second derivatives

  Newton-Raphson optimiser to be used

  BFGS hessian update to be used

  Lower half triangular hessian to be used

  Start of defect optimisation :

  Cycle:      0 Defect Energy:  29.780517  Gnorm:     0.084055  CPU:    4.809
  ** Hessian calculated **
  Cycle:      1 Defect Energy:  25.122791  Gnorm:     0.072157  CPU:   20.206
  Cycle:      2 Defect Energy:  17.207449  Gnorm:     0.030717  CPU:   31.564
  ** Hessian calculated **
  Cycle:      3 Defect Energy:  15.078748  Gnorm:     0.012763  CPU:   44.331
  Cycle:      4 Defect Energy:  14.741674  Gnorm:     0.002135  CPU:   50.066
  Cycle:      5 Defect Energy:  14.726769  Gnorm:     0.001664  CPU:   51.586
  Cycle:      6 Defect Energy:  14.710232  Gnorm:     0.001264  CPU:   53.104
  Cycle:      7 Defect Energy:  14.697894  Gnorm:     0.000961  CPU:   54.632
  Cycle:      8 Defect Energy:  14.690379  Gnorm:     0.000723  CPU:   56.151
  Cycle:      9 Defect Energy:  14.685572  Gnorm:     0.000560  CPU:   57.665
  Cycle:     10 Defect Energy:  14.682669  Gnorm:     0.000416  CPU:   59.180
  Cycle:     11 Defect Energy:  14.681018  Gnorm:     0.000324  CPU:   60.695
  Cycle:     12 Defect Energy:  14.680032  Gnorm:     0.000233  CPU:   62.211
  ** Hessian calculated **
  Cycle:     13 Defect Energy:  14.679428  Gnorm:     0.000166  CPU:   69.406
  Cycle:     14 Defect Energy:  14.679106  Gnorm:     0.000119  CPU:   70.926
  Cycle:     15 Defect Energy:  14.678927  Gnorm:     0.000085  CPU:   72.444
  Cycle:     16 Defect Energy:  14.678828  Gnorm:     0.000061  CPU:   73.967
  Cycle:     17 Defect Energy:  14.678773  Gnorm:     0.000043  CPU:   75.498
  Cycle:     18 Defect Energy:  14.678705  Gnorm:     0.000030  CPU:   77.014
  Cycle:     19 Defect Energy:  14.678688  Gnorm:     0.000021  CPU:   78.534
  Cycle:     20 Defect Energy:  14.678677  Gnorm:     0.000015  CPU:   80.052
  Cycle:     21 Defect Energy:  14.678746  Gnorm:     0.000011  CPU:   81.570


  **** Optimisation achieved ****


  Final defect energy  =       14.67874237
  Final defect Gnorm   =        0.00000739

  Components of defect energy : 

--------------------------------------------------------------------------------
  Region 1 - region 1                   =     18.58877416 eV
  Region 1 - region 2a (unrelaxed)      =     -1.72075148 eV
  Region 1 - 2a (relaxed - correction)  =     -2.06540860 eV
  Region 1 (Total)                      =     14.80261409 eV
  Region 2a                             =      1.03262605 eV
  Region 2b                             =     -1.15649777 eV
--------------------------------------------------------------------------------
  Total defect energy                   =     14.67874237 eV
--------------------------------------------------------------------------------

  Largest displacement in region 2 =   0.0061 Angstroms

  Final coordinates of region 1 :

--------------------------------------------------------------------------------
   No.  Atomic        x           y           z          Radius      Charge
        Label       (Angs)      (Angs)      (Angs)       (Angs)       (e) 
--------------------------------------------------------------------------------
     1  O     c     1.827246    1.268921    1.268921    0.000000    0.077000
     2  Zr    c     2.493985    2.581123   -0.043281    0.000000    2.650000
     3  Zr    c     2.493985   -0.043281    2.581123    0.000000    2.650000
     4  Zr    c    -0.025519    2.571184    2.571184    0.000000    2.650000
     5  Zr    c    -0.025519   -0.033342   -0.033342    0.000000    2.650000
     6  O     c     1.216696    3.830149    1.235569    0.000000    0.077000
     7  O     c     1.216696    1.235569    3.830149    0.000000    0.077000
     8  O     c     1.216696    1.302273   -1.292307    0.000000    0.077000
     9  O     c     1.216696   -1.292307    1.302273    0.000000    0.077000
    10  O     c    -0.885489    1.268921    1.268921    0.000000    0.077000
    11  O     c     3.819022    3.444897    1.263540    0.000000    0.077000
    12  O     c     3.819022    1.263540    3.444897    0.000000    0.077000
    13  O     c     3.819022    1.274301   -0.907055    0.000000    0.077000
    14  O     c     3.819022   -0.907055    1.274301    0.000000    0.077000
    15  O     c     1.311622    3.785263    3.785263    0.000000    0.077000
    16  O     c     1.311622   -1.247422   -1.247422    0.000000    0.077000
    17  O     c     1.273288   -1.293355    3.831197    0.000000    0.077000
    18  O     c     1.273288    3.831197   -1.293355    0.000000    0.077000
    19  Zr    c     5.134056    2.592923    2.592923    0.000000    2.650000
    20  Zr    c     5.134056   -0.055081   -0.055081    0.000000    2.650000
    21  O     c    -1.332240   -1.247970    1.240371    0.000000    0.077000
    22  O     c    -1.332240    1.240371   -1.247970    0.000000    0.077000
    23  O     c    -1.332240    1.297471    3.785812    0.000000    0.077000
    24  O     c    -1.332240    3.785812    1.297471    0.000000    0.077000
    25  Zr    c     2.515040    2.568668    5.101696    0.000000    2.650000
    26  Zr    c     2.515040   -2.563854   -0.030826    0.000000    2.650000
    27  Zr    c     2.515040    5.101696    2.568668    0.000000    2.650000
    28  Zr    c     2.515040   -0.030826   -2.563854    0.000000    2.650000
    29  O     c     3.849624    3.843701    3.843701    0.000000    0.077000
    30  O     c     3.849624   -1.305859   -1.305859    0.000000    0.077000
    31  O     c     3.799626    3.850346   -1.312505    0.000000    0.077000
    32  O     c     3.799626   -1.312505    3.850346    0.000000    0.077000
    33  Zr    c    -0.017023   -2.559038    2.550253    0.000000    2.650000
    34  Zr    c    -0.017023    5.096880   -0.012412    0.000000    2.650000
    35  Zr    c    -0.017023    2.550253   -2.559038    0.000000    2.650000
    36  Zr    c    -0.017023   -0.012412    5.096880    0.000000    2.650000
    37  O     c     5.924567    1.268921    1.268921    0.000000    0.077000
    38  Zr    c    -2.543808   -0.020107    2.557948    0.000000    2.650000
    39  Zr    c    -2.543808    2.557948   -0.020107    0.000000    2.650000
    40  O     c    -1.212919    3.818210    3.818210    0.000000    0.077000
    41  O     c    -1.212919   -1.280369   -1.280369    0.000000    0.077000
    42  O     c    -1.250616   -1.253682    3.791524    0.000000    0.077000
    43  O     c    -1.250616    3.791524   -1.253682    0.000000    0.077000
    44  O     c     1.298211   -3.833635    1.250789    0.000000    0.077000
    45  O     c     1.298211    1.250789   -3.833635    0.000000    0.077000
    46  O     c     1.298211    1.287053    6.371476    0.000000    0.077000
    47  O     c     1.298211    6.371476    1.287053    0.000000    0.077000
    48  Zr    c     5.101558    5.094674   -0.025838    0.000000    2.650000
    49  Zr    c     5.101558   -0.025838    5.094674    0.000000    2.650000
    50  Zr    c     5.101558    2.563679   -2.556833    0.000000    2.650000
    51  Zr    c     5.101558   -2.556833    2.563679    0.000000    2.650000
    52  O     c     6.392069    3.837970    1.304282    0.000000    0.077000
    53  O     c     6.392069    1.304282    3.837970    0.000000    0.077000
    54  O     c     6.392069    1.233560   -1.300128    0.000000    0.077000
    55  O     c     6.392069   -1.300128    1.233560    0.000000    0.077000
    56  Zr    c     2.531451   -2.556941    5.094782    0.000000    2.650000
    57  Zr    c     2.531451    5.094782   -2.556941    0.000000    2.650000
    58  O     c     3.819102    6.096057    1.274623    0.000000    0.077000
    59  O     c     3.819102    1.274623    6.096057    0.000000    0.077000
    60  O     c     3.819102    1.263219   -3.558215    0.000000    0.077000
    61  O     c     3.819102   -3.558215    1.263219    0.000000    0.077000
    62  O     c    -3.571329    1.268921    1.268921    0.000000    0.077000
    63  Zr    c    -0.018340    5.095571    5.095571    0.000000    2.650000
    64  Zr    c    -0.018340   -2.557729   -2.557729    0.000000    2.650000
    65  O     c     1.260443    6.310905    3.808038    0.000000    0.077000
    66  O     c     1.260443    3.808038    6.310905    0.000000    0.077000
    67  O     c     1.260443   -1.270196   -3.773063    0.000000    0.077000
    68  O     c     1.260443   -3.773063   -1.270196    0.000000    0.077000
    69  O     c     1.267829   -1.256043    6.354898    0.000000    0.077000
    70  O     c     1.267829    6.354898   -1.256043    0.000000    0.077000
    71  O     c     1.267829   -3.817057    3.793885    0.000000    0.077000
    72  O     c     1.267829    3.793885   -3.817057    0.000000    0.077000
    73  O     c     6.339894    3.779624   -1.241782    0.000000    0.077000
    74  O     c     6.339894   -1.241782    3.779624    0.000000    0.077000
    75  O     c     6.369179    3.823548    3.823548    0.000000    0.077000
    76  O     c     6.369179   -1.285707   -1.285707    0.000000    0.077000
    77  Zr    c    -2.548391    5.084560    2.539868    0.000000    2.650000
    78  Zr    c    -2.548391   -0.002026   -2.546718    0.000000    2.650000
    79  Zr    c    -2.548391    2.539868    5.084560    0.000000    2.650000
    80  Zr    c    -2.548391   -2.546718   -0.002026    0.000000    2.650000
    81  O     c    -1.241015    1.261756    6.329577    0.000000    0.077000
    82  O     c    -1.241015    6.329577    1.261756    0.000000    0.077000
    83  O     c    -1.241015   -3.791735    1.276085    0.000000    0.077000
    84  O     c    -1.241015    1.276085   -3.791735    0.000000    0.077000
    85  O     c     3.814029   -3.845491    3.787572    0.000000    0.077000
    86  O     c     3.814029    3.787572   -3.845491    0.000000    0.077000
    87  O     c     3.814029   -1.249731    6.383333    0.000000    0.077000
    88  O     c     3.814029    6.383333   -1.249731    0.000000    0.077000
    89  O     c     3.782240    6.379114    3.792660    0.000000    0.077000
    90  O     c     3.782240    3.792660    6.379114    0.000000    0.077000
    91  O     c     3.782240   -1.254818   -3.841272    0.000000    0.077000
    92  O     c     3.782240   -3.841272   -1.254818    0.000000    0.077000
    93  Zr    c     7.641028    2.568738   -0.030896    0.000000    2.650000
[...]
    330 y          6.344605      6.345424     0.000819    Cartesian    0.01
    330 z          6.344605      6.345424     0.000819    Cartesian    0.01
    331 x          8.882446      8.876918    -0.005528    Cartesian   -0.06
    331 y          6.344605      6.338484    -0.006120    Cartesian   -0.10
    331 z         -3.806763     -3.800642     0.006120    Cartesian   -0.16
    332 x         -5.075684     -5.080599    -0.004916    Cartesian    0.10
    332 y         -5.075684     -5.078791    -0.003107    Cartesian    0.06
    332 z          5.075684      5.075596    -0.000088    Cartesian   -0.00
    333 x          1.268921      1.271797     0.002876    Cartesian    0.23
    333 y          1.268921      1.271496     0.002575    Cartesian    0.20
    333 z         11.420288     11.432361     0.012073    Cartesian    0.11
    334 x          5.075684      5.073062    -0.002622    Cartesian   -0.05
    334 y         10.151367     10.156133     0.004766    Cartesian    0.05
    334 z          5.075684      5.074160    -0.001524    Cartesian   -0.03
    335 x          6.344605      6.345110     0.000505    Cartesian    0.01
    335 y          8.882446      8.879210    -0.003236    Cartesian   -0.04
    335 z          6.344605      6.341699    -0.002906    Cartesian   -0.05
    336 x          6.344605      6.344459    -0.000145    Cartesian   -0.00
    336 y          8.882446      8.886889     0.004443    Cartesian    0.05
    336 z         -3.806763     -3.803076     0.003686    Cartesian   -0.10
    337 x         11.420288     11.416130    -0.004159    Cartesian   -0.04
    337 y          3.806763      3.803717    -0.003046    Cartesian   -0.08
    337 z          3.806763      3.803717    -0.003046    Cartesian   -0.08
    338 x         11.420288     11.421441     0.001153    Cartesian    0.01
    338 y          3.806763      3.802513    -0.004250    Cartesian   -0.11
    338 z         -1.268921     -1.264671     0.004250    Cartesian   -0.33
    339 x         -7.613525     -7.615598    -0.002073    Cartesian    0.03
    339 y         -0.000000      0.002361     0.002361    Cartesian *******
    339 z         -2.537842     -2.538391    -0.000549    Cartesian    0.02
    340 x          3.806763      3.806974     0.000212    Cartesian    0.01
    340 y          1.268921      1.268226    -0.000695    Cartesian   -0.05
    340 z         11.420288     11.352152    -0.068136    Cartesian   -0.60
    341 x          8.882446      8.882387    -0.000059    Cartesian   -0.00
    341 y          8.882446      8.874449    -0.007998    Cartesian   -0.09
    341 z          1.268921      1.266280    -0.002640    Cartesian   -0.21
    342 x          1.268921      1.272779     0.003858    Cartesian    0.30
    342 y         11.420288     11.422068     0.001780    Cartesian    0.02
    342 z         -1.268921     -1.266153     0.002767    Cartesian   -0.22
    343 x          1.268921      1.274745     0.005824    Cartesian    0.46
    343 y          3.806763      3.805543    -0.001220    Cartesian   -0.03
    343 z         11.420288     11.403480    -0.016809    Cartesian   -0.15
    344 x         10.151367     10.159269     0.007901    Cartesian    0.08
    344 y          7.613525      7.621457     0.007932    Cartesian    0.10
    344 z          2.537842      2.539945     0.002103    Cartesian    0.08
    345 x         -2.537842     -2.540882    -0.003040    Cartesian    0.12
    345 y         -7.613525     -7.617420    -0.003895    Cartesian    0.05
    345 z          5.075684      5.076498     0.000815    Cartesian    0.02
    346 x         -1.268921     -1.267168     0.001753    Cartesian   -0.14
    346 y          1.268921      1.267395    -0.001526    Cartesian   -0.12
    346 z         11.420288     11.415199    -0.005089    Cartesian   -0.04
    347 x          3.806763      3.810815     0.004052    Cartesian    0.11
    347 y         -1.268921     -1.266759     0.002162    Cartesian   -0.17
    347 z         11.420288     11.434412     0.014124    Cartesian    0.12
    348 x          3.806763      3.805410    -0.001353    Cartesian   -0.04
    348 y          3.806763      3.804740    -0.002023    Cartesian   -0.05
    348 z         11.420288     11.433488     0.013200    Cartesian    0.12
    349 x          7.613525      7.612733    -0.000793    Cartesian   -0.01
    349 y          2.537842      2.536235    -0.001606    Cartesian   -0.06
    349 z         10.151367     10.158716     0.007348    Cartesian    0.07
    350 x          7.613525      7.612546    -0.000979    Cartesian   -0.01
    350 y         -5.075684     -5.080915    -0.005231    Cartesian    0.10
    350 z          7.613525      7.618756     0.005231    Cartesian    0.07
    351 x          8.882446      8.886277     0.003831    Cartesian    0.04
    351 y          8.882446      8.877362    -0.005085    Cartesian   -0.06
    351 z          3.806763      3.807303     0.000540    Cartesian    0.01
    352 x          8.882446      8.880952    -0.001495    Cartesian   -0.02
    352 y          8.882446      8.883507     0.001061    Cartesian    0.01
    352 z         -1.268921     -1.266501     0.002420    Cartesian   -0.19
    353 x         -8.882446     -8.824429     0.058017    Cartesian   -0.65
    353 y          1.268921      1.268921     0.000000    Cartesian    0.00
    353 z          1.268921      1.268921     0.000000    Cartesian    0.00
    354 x         -3.806763     -3.807754    -0.000991    Cartesian    0.03
    354 y          6.344605      6.342809    -0.001795    Cartesian   -0.03
    354 z          8.882446      8.884158     0.001712    Cartesian    0.02
    355 x         -3.806763     -3.804717     0.002046    Cartesian   -0.05
    355 y          6.344605      6.344277    -0.000327    Cartesian   -0.01
    355 z         -6.344605     -6.342015     0.002589    Cartesian   -0.04
    356 x          1.268921      1.274120     0.005199    Cartesian    0.41
    356 y         -6.344605     -6.342537     0.002067    Cartesian   -0.03
    356 z          8.882446      8.880379    -0.002067    Cartesian   -0.02
    357 x          1.268921      1.268605    -0.000316    Cartesian   -0.02
    357 y          8.882446      8.881002    -0.001445    Cartesian   -0.02
    357 z          8.882446      8.881002    -0.001445    Cartesian   -0.02
    358 x         11.420288     11.415353    -0.004935    Cartesian   -0.04
    358 y          1.268921      1.272165     0.003244    Cartesian    0.26
    358 z         -3.806763     -3.807233    -0.000470    Cartesian    0.01
    359 x         -7.613525     -7.617426    -0.003900    Cartesian    0.05
    359 y         -2.537842     -2.542457    -0.004615    Cartesian    0.18
    359 z          5.075684      5.080298     0.004615    Cartesian    0.09
    360 x         -6.344605     -6.339167     0.005438    Cartesian   -0.09
    360 y          6.344605      6.343014    -0.001590    Cartesian   -0.03
    360 z          6.344605      6.343014    -0.001590    Cartesian   -0.03
    361 x         -6.344605     -6.341680     0.002924    Cartesian   -0.05
    361 y         -3.806763     -3.806251     0.000511    Cartesian   -0.01
    361 z          6.344605      6.344093    -0.000511    Cartesian   -0.01
    362 x         -1.268921     -1.267259     0.001662    Cartesian   -0.13
    362 y         11.420288     11.423243     0.002955    Cartesian    0.03
    362 z          3.806763      3.808405     0.001642    Cartesian    0.04
    363 x         -1.268921     -1.264277     0.004644    Cartesian   -0.37
    363 y         -8.882446     -8.878766     0.003681    Cartesian   -0.04
    363 z          3.806763      3.805178    -0.001585    Cartesian   -0.04
    364 x          2.537842      2.535753    -0.002089    Cartesian   -0.08
    364 y         10.151367     10.157513     0.006146    Cartesian    0.06
    364 z          7.613525      7.617144     0.003618    Cartesian    0.05
    365 x          3.806763      3.809263     0.002500    Cartesian    0.07
    365 y          8.882446      8.880130    -0.002316    Cartesian   -0.03
    365 z          8.882446      8.880130    -0.002316    Cartesian   -0.03
    366 x          3.806763      3.804603    -0.002159    Cartesian   -0.06
    366 y         -6.344605     -6.343308     0.001296    Cartesian   -0.02
    366 z          8.882446      8.881150    -0.001296    Cartesian   -0.01
    367 x         -8.882446     -8.899897    -0.017451    Cartesian    0.20
    367 y         -1.268921     -1.264911     0.004010    Cartesian   -0.32
    367 z          1.268921      1.271078     0.002157    Cartesian    0.17
    368 x         12.689209     12.692518     0.003309    Cartesian    0.03
    368 y          2.537842      2.546134     0.008292    Cartesian    0.33
    368 z          0.000000     -0.008292    -0.008292    Cartesian *******
    369 x          0.000000     -0.001925    -0.001925    Cartesian    0.00
    369 y         -7.613525     -7.619817    -0.006291    Cartesian    0.08
    369 z          7.613525      7.617240     0.003715    Cartesian    0.05
    370 x          6.344605      6.343198    -0.001407    Cartesian   -0.02
    370 y          1.268921      1.265502    -0.003419    Cartesian   -0.27
    370 z         11.420288     11.430098     0.009810    Cartesian    0.09
    371 x         10.151367     10.157060     0.005693    Cartesian    0.06
    371 y          7.613525      7.619783     0.006258    Cartesian    0.08
    371 z         -2.537842     -2.540362    -0.002521    Cartesian    0.10
    372 x         11.420288     11.414038    -0.006250    Cartesian   -0.05
    372 y          6.344605      6.346636     0.002032    Cartesian    0.03
    372 z          3.806763      3.807663     0.000900    Cartesian    0.02
    373 x         11.420288     11.417479    -0.002809    Cartesian   -0.02
    373 y          6.344605      6.338928    -0.005677    Cartesian   -0.09
    373 z         -1.268921     -1.266130     0.002791    Cartesian   -0.22
    374 x         -6.344605     -6.344544     0.000060    Cartesian   -0.00
    374 y         -6.344605     -6.343042     0.001562    Cartesian   -0.02
    374 z          1.268921      1.267344    -0.001577    Cartesian   -0.12
    375 x         -1.268921     -1.265322     0.003599    Cartesian   -0.28
    375 y          8.882446      8.880733    -0.001713    Cartesian   -0.02
    375 z          8.882446      8.880733    -0.001713    Cartesian   -0.02
    376 x         -1.268921     -1.267504     0.001417    Cartesian   -0.11
    376 y         -6.344605     -6.342197     0.002408    Cartesian   -0.04
    376 z          8.882446      8.880038    -0.002408    Cartesian   -0.03
    377 x          7.613525      7.618889     0.005363    Cartesian    0.07
    377 y         -2.537842     -2.542812    -0.004970    Cartesian    0.20
    377 z         10.151367     10.156723     0.005355    Cartesian    0.05
    378 x         -8.882446     -8.862277     0.020170    Cartesian   -0.23
    378 y         -1.268921     -1.268595     0.000326    Cartesian   -0.03
    378 z         -1.268921     -1.268595     0.000326    Cartesian   -0.03
    379 x         -8.882446     -8.862410     0.020037    Cartesian   -0.23
    379 y         -1.268921     -1.268421     0.000500    Cartesian   -0.04
    379 z          3.806763      3.806263    -0.000500    Cartesian   -0.01
    380 x         -5.075684     -5.080360    -0.004676    Cartesian    0.09
    380 y          2.537842      2.537281    -0.000561    Cartesian   -0.02
    380 z         -7.613525     -7.618272    -0.004747    Cartesian    0.06
    381 x         -5.075684     -5.081691    -0.006007    Cartesian    0.12
    381 y          7.613525      7.617204     0.003679    Cartesian    0.05
    381 z          7.613525      7.617204     0.003679    Cartesian    0.05
    382 x          1.268921      1.271069     0.002148    Cartesian    0.17
    382 y         -8.882446     -8.877379     0.005067    Cartesian   -0.06
    382 z          6.344605      6.341586    -0.003018    Cartesian   -0.05
    383 x          1.268921      1.268564    -0.000357    Cartesian   -0.03
    383 y          6.344605      6.343980    -0.000625    Cartesian   -0.01
    383 z         11.420288     11.418618    -0.001670    Cartesian   -0.01
    384 x          5.075684      5.077161     0.001477    Cartesian    0.03
    384 y         -5.075684     -5.079941    -0.004258    Cartesian    0.08
    384 z         10.151367     10.158416     0.007049    Cartesian    0.07
    385 x          6.344605      6.342848    -0.001756    Cartesian   -0.03
    385 y         11.420288     11.417750    -0.002539    Cartesian   -0.02
    385 z          3.806763      3.802963    -0.003800    Cartesian   -0.10
    386 x          6.344605      6.342825    -0.001780    Cartesian   -0.03
    386 y         -1.268921     -1.267868     0.001053    Cartesian   -0.08
    386 z         11.420288     11.399996    -0.020292    Cartesian   -0.18
    387 x         -7.613525     -7.619093    -0.005568    Cartesian    0.07
    387 y          2.537842      2.539893     0.002051    Cartesian    0.08
    387 z         -5.075684     -5.079755    -0.004072    Cartesian    0.08
    388 x         -6.344605     -6.339381     0.005223    Cartesian   -0.08
    388 y          8.882446      8.881666    -0.000780    Cartesian   -0.01
    388 z          3.806763      3.804083    -0.002680    Cartesian   -0.07
    389 x         -6.344605     -6.340544     0.004061    Cartesian   -0.06
    389 y         -6.344605     -6.341618     0.002986    Cartesian   -0.05
    389 z          3.806763      3.806281    -0.000482    Cartesian   -0.01
    390 x          2.537842      2.533724    -0.004118    Cartesian   -0.16
    390 y         -0.000000     -0.006183    -0.006183    Cartesian *******
    390 z         12.689209     12.695942     0.006733    Cartesian    0.05
    391 x          3.806763      3.805482    -0.001280    Cartesian   -0.03
    391 y         11.420288     11.408700    -0.011588    Cartesian   -0.10
    391 z          6.344605      6.341820    -0.002785    Cartesian   -0.04
    392 x          3.806763      3.807182     0.000419    Cartesian    0.01
    392 y         -3.806763     -3.805618     0.001144    Cartesian   -0.03
    392 z         11.420288     11.409090    -0.011198    Cartesian   -0.10
    393 x          8.882446      8.881933    -0.000513    Cartesian   -0.01
    393 y         -3.806763     -3.804380     0.002383    Cartesian   -0.06
    393 z          8.882446      8.879578    -0.002868    Cartesian   -0.03
    394 x          8.882446      8.874874    -0.007572    Cartesian   -0.09
    394 y          8.882446      8.875172    -0.007274    Cartesian   -0.08
    394 z          6.344605      6.338743    -0.005862    Cartesian   -0.09
    395 x         12.689209     12.701281     0.012072    Cartesian    0.10
    395 y          5.075684      5.076710     0.001026    Cartesian    0.02
    395 z          2.537842      2.536591    -0.001251    Cartesian   -0.05
    396 x         -3.806763     -3.804149     0.002613    Cartesian   -0.07
    396 y         -8.882446     -8.877311     0.005135    Cartesian   -0.06
    396 z          1.268921      1.267206    -0.001715    Cartesian   -0.14
    397 x          0.000000     -0.001738    -0.001738    Cartesian    0.00
    397 y          2.537842      2.537348    -0.000493    Cartesian   -0.02
    397 z         12.689209     12.699230     0.010021    Cartesian    0.08
    398 x          6.344605      6.344927     0.000322    Cartesian    0.01
    398 y         -6.344605     -6.340730     0.003875    Cartesian   -0.06
    398 z          8.882446      8.878571    -0.003875    Cartesian   -0.04
    399 x          6.344605      6.339301    -0.005303    Cartesian   -0.08
    399 y          8.882446      8.873934    -0.008512    Cartesian   -0.10
    399 z          8.882446      8.873934    -0.008512    Cartesian   -0.10
    400 x         -2.537842     -2.542967    -0.005125    Cartesian    0.20
    400 y          7.613525      7.618577     0.005051    Cartesian    0.07
    400 z         10.151367     10.157514     0.006147    Cartesian    0.06
    401 x         -1.268921     -1.265973     0.002948    Cartesian   -0.23
    401 y         -3.806763     -3.804953     0.001810    Cartesian   -0.05
    401 z         11.420288     11.412953    -0.007335    Cartesian   -0.06
    402 x         -1.268921     -1.266421     0.002500    Cartesian   -0.20
    402 y          6.344605      6.341350    -0.003254    Cartesian   -0.05
    402 z         11.420288     11.410933    -0.009356    Cartesian   -0.08
    403 x         -8.882446     -8.867075     0.015371    Cartesian   -0.17
    403 y          1.268921      1.268792    -0.000129    Cartesian   -0.01
    403 z          6.344605      6.342330    -0.002275    Cartesian   -0.04
    404 x         -5.075684     -5.082295    -0.006612    Cartesian    0.13
    404 y          5.075684      5.079365     0.003682    Cartesian    0.07
    404 z         10.151367     10.157324     0.005957    Cartesian    0.06
    405 x         -3.806763     -3.801843     0.004920    Cartesian   -0.13
    405 y         -1.268921     -1.267660     0.001261    Cartesian   -0.10
    405 z         11.420288     11.413021    -0.007267    Cartesian   -0.06
    406 x         -3.806763     -3.803228     0.003534    Cartesian   -0.09
    406 y          3.806763      3.804462    -0.002301    Cartesian   -0.06
    406 z         11.420288     11.411441    -0.008848    Cartesian   -0.08
    407 x          5.075684      5.081290     0.005606    Cartesian    0.11
    407 y          2.537842      2.543062     0.005221    Cartesian    0.21
    407 z         12.689209     12.698122     0.008913    Cartesian    0.07
    408 x         11.420288     11.412719    -0.007569    Cartesian   -0.07
    408 y          6.344605      6.336981    -0.007624    Cartesian   -0.12
    408 z          6.344605      6.336981    -0.007624    Cartesian   -0.12
    409 x         11.420288     11.411890    -0.008398    Cartesian   -0.07
    409 y          6.344605      6.342128    -0.002476    Cartesian   -0.04
    409 z         -3.806763     -3.804286     0.002476    Cartesian   -0.07
    410 x         -7.613525     -7.622850    -0.009325    Cartesian    0.12
    410 y          7.613525      7.617055     0.003529    Cartesian    0.05
    410 z          5.075684      5.076902     0.001219    Cartesian    0.02
--------------------------------------------------------------------------------


  Time to end of optimisation  =       83.0991 seconds


  Peak dynamic memory used =     404.86 MB 


  Timing analysis for GULP :

--------------------------------------------------------------------------------
  Task / Subroutine                                          Time (Seconds)
--------------------------------------------------------------------------------
  Calculation of reciprocal space energy and derivatives          0.0002
  Calculation of reciprocal space energy using symmetry           0.0003
  Calculation of real space energy and derivatives                0.0020
  Calculation of real space energy using symmetry                 0.0069
  Calculation for region 1 energy and derivatives (2-b)          21.3509
  Calculation for region 2a energy                               49.2503
  Calculation for region 2b energy                                0.0076
  Calculation and manipulation of Hessian matrix                 11.2298
  Calculation of matrix inversion                                 0.8346
  Symmetry generation of equivalent positions                     0.0016
--------------------------------------------------------------------------------
  Total CPU time                                                 83.0991
--------------------------------------------------------------------------------


  Dump file written as ZrO2.grs


  Job Finished at 12:09.57 14th October    2020                               

