********************************************************************************
*                       GENERAL UTILITY LATTICE PROGRAM                        *
*                                 Julian Gale                                  *
*                       Curtin Institute for Computation                       *
*                    School of Molecular and Life Sciences                     *
*                    Curtin University, Western Australia                      *
********************************************************************************
* Version = 5.2.0 * Last modified =  10th September 2020                       *
********************************************************************************
* Zirconia doped with calcium                                                  *
*  optimise     - perform optimisation run                                     *
*  conp         - constant pressure calculation                                *
*  property     - calculate properties for final geometry                      *
*  defect       - perform defect calculation after bulk run                    *
*  distance     - calculate distances                                          *
*  compare      - compare initial and final structures                         *
********************************************************************************
* Zirconia doped with calcium                                                  *
********************************************************************************


  Job Started  at 12:09.57 14th October    2020                               

  Number of CPUs =     1


  Total number of configurations input =      1

********************************************************************************
*  Input for Configuration =   1 : ZrO2                                        *
********************************************************************************

  Formula = ZrO2                                                        

  Number of irreducible atoms/shells =       4


  Total number atoms/shells =       6

  Dimensionality = 3               :  Bulk   


  Symmetry :

  Crystal family                   :  Cubic       
  Crystal class  (Groth - 1921)    :  Cubic Hexakisoctahedral              

  Space group (centrosymmetric)    :  F M 3 M         

  Patterson group                  :  F m -3 m 

  Cartesian lattice vectors (Angstroms) :

        0.000000    2.535000    2.535000
        2.535000    0.000000    2.535000
        2.535000    2.535000    0.000000

  Primitive cell parameters :            Full cell parameters :

  a =   3.5850    alpha =  60.0000       a =   5.0700    alpha =  90.0000
  b =   3.5850    beta  =  60.0000       b =   5.0700    beta  =  90.0000
  c =   3.5850    gamma =  60.0000       c =   5.0700    gamma =  90.0000

  Initial volumes (Angstroms**3):

  Primitive cell =          32.580961    Full cell =         130.323843

  Temperature of configuration =   0.00     K 

  Pressure of configuration =         0.000 GPa 

  Fractional coordinates of asymmetric unit :

--------------------------------------------------------------------------------
   No.  Atomic       x           y          z         Charge      Occupancy
        Label      (Frac)      (Frac)     (Frac)        (e)         (Frac)  
--------------------------------------------------------------------------------
      1 Zr    c    0.000000    0.000000    0.000000     2.65000    1.000000    
      2 O     c    0.250000    0.250000    0.250000     0.07700    1.000000    
      3 Zr    s    0.000000    0.000000    0.000000     1.35000    1.000000    
      4 O     s    0.250000    0.250000    0.250000    -2.07700    1.000000    
--------------------------------------------------------------------------------


  Constraints : 

--------------------------------------------------------------------------------
  Constraint no.      Unconstrained     Constrained    Coefficient    Offset
                         Variable         Variable
--------------------------------------------------------------------------------
           1              Strain 1        Strain 2       1.00000      0.0000
           2              Strain 1        Strain 3       1.00000      0.0000
--------------------------------------------------------------------------------


  Distance calculation :


  Cutoff for distances  =      4.000000 Angstroms

--------------------------------------------------------------------------------
  Asymmetric unit site  Full lattice sites    No.  Distance      No.  Distance
      No.   At.No.            At.No.                (Angs)             (Angs) 
--------------------------------------------------------------------------------
       1   Zr    core        Zr    core        12    3.5850
                             Zr    shell       12    3.5850
                             O     core         8    2.1954
                             O     shell        8    2.1954
--------------------------------------------------------------------------------
       2   O     core        Zr    core         4    2.1954
                             Zr    shell        4    2.1954
                             O     core         6    2.5350       12    3.5850
                             O     shell        6    2.5350       12    3.5850
--------------------------------------------------------------------------------
       3   Zr    shell       Zr    core        12    3.5850
                             Zr    shell       12    3.5850
                             O     core         8    2.1954
                             O     shell        8    2.1954
--------------------------------------------------------------------------------
       4   O     shell       Zr    core         4    2.1954
                             Zr    shell        4    2.1954
                             O     core         6    2.5350       12    3.5850
                             O     shell        6    2.5350       12    3.5850
--------------------------------------------------------------------------------



********************************************************************************
*  General input information                                                   *
********************************************************************************

  Species output for all configurations : 

--------------------------------------------------------------------------------
  Species    Type    Atomic    Atomic    Charge       Radii (Angs)     Library
                     Number     Mass       (e)     Cova   Ionic  VDW   Symbol
--------------------------------------------------------------------------------
    Zr       Core       40      91.22   2.650000   1.560  0.000  2.330          
    Zr       Shell      40       0.00   1.350000   1.560  0.000  2.330          
    O        Core        8      16.00   0.077000   0.730  0.000  1.360          
    O        Shell       8       0.00  -2.077000   0.730  0.000  1.360          
--------------------------------------------------------------------------------


  Lattice summation method               =    Ewald          (3-D)
                                         =    Parry          (2-D)
                                         =    Saunders et al (1-D)
  Accuracy factor for lattice sums       =   12.000


  Analytic derivatives to be used

  Time limit = Infinity

  Maximum range for interatomic potentials =    100000.000000 Angstroms

  General interatomic potentials :

--------------------------------------------------------------------------------
Atom  Types   Potential      Parameter       Value         Units   Cutoffs(Ang)
  1     2                                                            Min /  Max 
--------------------------------------------------------------------------------
O    s Zr   s Buckingham    Buckingham A     985.86900    eV        0.000 12.000
                            Buckingham rho  0.37600000    Ang       
                            Buckingham C     0.0000000    eV*Ang^6  
--------------------------------------------------------------------------------
O    s O    s Buckingham    Buckingham A     22764.300    eV        0.000 12.000
                            Buckingham rho  0.14900000    Ang       
                            Buckingham C     27.890000    eV*Ang^6  
--------------------------------------------------------------------------------
Zr   c Zr   s Spring (c-s)  Spring k 2       169.61700    eV*Ang^-2 0.000  0.800
                            Spring k 4       0.0000000    eV*Ang^-4 
--------------------------------------------------------------------------------
O    c O    s Spring (c-s)  Spring k 2       27.290000    eV*Ang^-2 0.000  0.800
                            Spring k 4       0.0000000    eV*Ang^-4 
--------------------------------------------------------------------------------

********************************************************************************
*  Output for configuration   1 : ZrO2                                         *
********************************************************************************


  Components of energy : 

--------------------------------------------------------------------------------
  Interatomic potentials     =          22.43756329 eV    
  Monopole - monopole (real) =         -15.67991073 eV    
  Monopole - monopole (recip)=        -116.52038266 eV    
  Monopole - monopole (total)=        -132.20029339 eV    
--------------------------------------------------------------------------------
  Total lattice energy : 
    Primitive unit cell      =        -109.76273010 eV    
    Non-primitive unit cell  =        -439.05092039 eV    
--------------------------------------------------------------------------------
  Total lattice energy (in kJmol-1): 
    Primitive unit cell      =          -10590.4256 kJ/(mole unit cells)
    Non-primitive unit cell  =          -42361.7023 kJ/(mole unit cells)
--------------------------------------------------------------------------------


  Number of variables =        1

  Maximum number of calculations  =          1000
  Maximum Hessian update interval =            10
  Maximum step size               =   1.000000000
  Maximum parameter tolerance     =   0.000010000
  Maximum function  tolerance     =   0.000010000
  Maximum gradient  tolerance     =   0.001000000
  Maximum gradient  component     =   0.010000000

  Symmetry constrained optimisation

  Symmetry used for second derivatives

  Cell parameters to be optimised using strains

  Newton-Raphson optimiser to be used

  BFGS hessian update to be used

  Lower half triangular hessian to be used

  Start of bulk optimisation :

  Cycle:      0 Energy:      -109.762730  Gnorm:      0.588311  CPU:    0.006
  ** Hessian calculated **
  Cycle:      1 Energy:      -109.763059  Gnorm:      0.000316  CPU:    0.009


  **** Optimisation achieved ****


  Final energy =    -109.76305939 eV
  Final Gnorm  =       0.00000099

  Components of energy : 

--------------------------------------------------------------------------------
  Interatomic potentials     =          22.28919976 eV    
  Monopole - monopole (real) =         -15.66235280 eV    
  Monopole - monopole (recip)=        -116.38990634 eV    
  Monopole - monopole (total)=        -132.05225914 eV    
--------------------------------------------------------------------------------
  Total lattice energy : 
    Primitive unit cell      =        -109.76305939 eV    
    Non-primitive unit cell  =        -439.05223754 eV    
--------------------------------------------------------------------------------
  Total lattice energy (in kJmol-1): 
    Primitive unit cell      =          -10590.4573 kJ/(mole unit cells)
    Non-primitive unit cell  =          -42361.8294 kJ/(mole unit cells)
--------------------------------------------------------------------------------

  Final asymmetric unit coordinates :

--------------------------------------------------------------------------------
   No.  Atomic        x           y           z         Radius
        Label       (Frac)      (Frac)      (Frac)       (Angs) 
--------------------------------------------------------------------------------
     1  Zr    c     0.000000    0.000000    0.000000    0.000000
     2  O     c     0.250000    0.250000    0.250000    0.000000
     3  Zr    s     0.000000    0.000000    0.000000    0.000000
     4  O     s     0.250000    0.250000    0.250000    0.000000
--------------------------------------------------------------------------------

  Final Cartesian lattice vectors (Angstroms) :

        0.000000    2.537842    2.537842
        2.537842    0.000000    2.537842
        2.537842    2.537842    0.000000


  Final cell parameters and derivatives :

--------------------------------------------------------------------------------
       a            3.589050 Angstrom     dE/de1(xx)    -0.000001 eV/strain
       b            3.589050 Angstrom     dE/de2(yy)     0.000000 eV/strain
       c            3.589050 Angstrom     dE/de3(zz)     0.000000 eV/strain
       alpha       60.000000 Degrees      dE/de4(yz)     0.000000 eV/strain
       beta        60.000000 Degrees      dE/de5(xz)     0.000000 eV/strain
       gamma       60.000000 Degrees      dE/de6(xy)     0.000000 eV/strain
--------------------------------------------------------------------------------

  Primitive cell volume =            32.690656 Angs**3

  Density of cell =      6.259124 g/cm**3

  Non-primitive lattice parameters :

  a    =     5.075684  b   =     5.075684  c    =     5.075684
  alpha=    90.000000  beta=    90.000000  gamma=    90.000000

  Non-primitive cell volume =           130.762624 Angs**3


  Final internal derivatives :

--------------------------------------------------------------------------------
   No.  Atomic          a             b             c           Radius
        Label          (eV)          (eV)          (eV)        (eV/Angs)
--------------------------------------------------------------------------------
      1 Zr    c       0.000000      0.000000      0.000000      0.000000
      2 O     c       0.000000      0.000000      0.000000      0.000000
      3 Zr    s       0.000000      0.000000      0.000000      0.000000
      4 O     s       0.000000      0.000000      0.000000      0.000000
--------------------------------------------------------------------------------
  Maximum abs         0.000000      0.000000      0.000000      0.000000
--------------------------------------------------------------------------------

  Comparison of initial and final structures : 

--------------------------------------------------------------------------------
  Parameter   Initial value   Final value   Difference    Units      Percent
--------------------------------------------------------------------------------
    Volume       130.323843    130.762624     0.438781    Angs**3      0.34
    a              5.070000      5.075684     0.005684    Angstroms    0.11
    b              5.070000      5.075684     0.005684    Angstroms    0.11
    c              5.070000      5.075684     0.005684    Angstroms    0.11
    alpha         90.000000     90.000000     0.000000    Degrees      0.00
    beta          90.000000     90.000000     0.000000    Degrees      0.00
    gamma         90.000000     90.000000     0.000000    Degrees      0.00
      1 x          0.000000      0.000000     0.000000    Fractional   0.00
      1 y          0.000000      0.000000     0.000000    Fractional   0.00
      1 z          0.000000      0.000000     0.000000    Fractional   0.00
      2 x          0.250000      0.250000     0.000000    Fractional   0.00
      2 y          0.250000      0.250000     0.000000    Fractional   0.00
      2 z          0.250000      0.250000     0.000000    Fractional   0.00
      3 x          0.000000      0.000000     0.000000    Fractional   0.00
      3 y          0.000000      0.000000     0.000000    Fractional   0.00
      3 z          0.000000      0.000000     0.000000    Fractional   0.00
      4 x          0.250000      0.250000     0.000000    Fractional   0.00
      4 y          0.250000      0.250000     0.000000    Fractional   0.00
      4 z          0.250000      0.250000     0.000000    Fractional   0.00
--------------------------------------------------------------------------------


  Distance calculation :


  Cutoff for distances  =      4.000000 Angstroms

--------------------------------------------------------------------------------
  Asymmetric unit site  Full lattice sites    No.  Distance      No.  Distance
      No.   At.No.            At.No.                (Angs)             (Angs) 
--------------------------------------------------------------------------------
       1   Zr    core        Zr    core        12    3.5891
                             Zr    shell       12    3.5891
                             O     core         8    2.1978
                             O     shell        8    2.1978
--------------------------------------------------------------------------------
       2   O     core        Zr    core         4    2.1978
                             Zr    shell        4    2.1978
                             O     core         6    2.5378       12    3.5891
                             O     shell        6    2.5378       12    3.5891
--------------------------------------------------------------------------------
       3   Zr    shell       Zr    core        12    3.5891
                             Zr    shell       12    3.5891
                             O     core         8    2.1978
                             O     shell        8    2.1978
--------------------------------------------------------------------------------
       4   O     shell       Zr    core         4    2.1978
                             Zr    shell        4    2.1978
                             O     core         6    2.5378       12    3.5891
                             O     shell        6    2.5378       12    3.5891
--------------------------------------------------------------------------------



  Born effective charge tensors : 

-------------------------------------------------------------------------------
  Atom             x           y             z
-------------------------------------------------------------------------------
    1 Zr    x       3.6770      0.0000      0.0000
            y       0.0000      3.6770      0.0000
            z       0.0000      0.0000      3.6770
-------------------------------------------------------------------------------
    2 O     x      -1.8385      0.0000      0.0000
            y       0.0000     -1.8385     -0.0000
            z       0.0000     -0.0000     -1.8385
-------------------------------------------------------------------------------




  Elastic Constant Matrix: (Units=GPa)

-------------------------------------------------------------------------------
  Indices      1         2         3         4         5         6    
-------------------------------------------------------------------------------
       1    616.2933  119.6612  119.6612   -0.0000   -0.0000   -0.0000
       2    119.6612  616.2933  119.6612   -0.0000   -0.0000   -0.0000
       3    119.6612  119.6612  616.2933   -0.0000   -0.0000   -0.0000
       4     -0.0000   -0.0000   -0.0000  100.8598    0.0000   -0.0000
       5     -0.0000   -0.0000   -0.0000    0.0000  100.8598    0.0000
       6     -0.0000   -0.0000   -0.0000   -0.0000    0.0000  100.8598
-------------------------------------------------------------------------------


  Elastic Compliance Matrix: (Units=1/GPa)

-------------------------------------------------------------------------------
  Indices      1         2         3         4         5         6    
-------------------------------------------------------------------------------
       1    0.001732 -0.000282 -0.000282  0.000000  0.000000  0.000000
       2   -0.000282  0.001732 -0.000282 -0.000000  0.000000  0.000000
       3   -0.000282 -0.000282  0.001732  0.000000  0.000000  0.000000
       4    0.000000 -0.000000  0.000000  0.009915 -0.000000  0.000000
       5    0.000000  0.000000  0.000000 -0.000000  0.009915 -0.000000
       6    0.000000  0.000000  0.000000  0.000000 -0.000000  0.009915
-------------------------------------------------------------------------------

  Mechanical properties :

-------------------------------------------------------------------------------
  Convention :                    Reuss         Voigt         Hill
-------------------------------------------------------------------------------
  Bulk  Modulus (GPa)     =     285.20524     285.20524     285.20524
  Shear Modulus (GPa)     =     132.28031     159.84228     146.06129
-------------------------------------------------------------------------------
  Velocity S-wave (km/s)  =       4.59717       5.05346       4.83071
  Velocity P-wave (km/s)  =       8.58749       8.92280       8.75675
-------------------------------------------------------------------------------
  Compressibility (1/GPa) =    0.00350625
-------------------------------------------------------------------------------
  Stress axis :                     x             y             z
-------------------------------------------------------------------------------
  Youngs Moduli (GPa)     =     577.38110     577.38110     577.38110
-------------------------------------------------------------------------------
  Poissons Ratio (x)      =                     0.16259       0.16259
  Poissons Ratio (y)      =       0.16259                     0.16259
  Poissons Ratio (z)      =       0.16259       0.16259
-------------------------------------------------------------------------------


  Piezoelectric Strain Matrix: (Units=C/m**2)

-------------------------------------------------------------------------------
  Indices      1         2         3         4         5         6    
-------------------------------------------------------------------------------
       x    -0.00000   0.00000   0.00000   0.00000   0.00000   0.00000
       y    -0.00000  -0.00000  -0.00000   0.00000   0.00000   0.00000
       z    -0.00000  -0.00000  -0.00000   0.00000   0.00000   0.00000
-------------------------------------------------------------------------------


  Piezoelectric Stress Matrix: (Units=10**-11 C/N)

-------------------------------------------------------------------------------
  Indices      1         2         3         4         5         6    
-------------------------------------------------------------------------------
       x    -0.00000   0.00000   0.00000   0.00000   0.00000   0.00000
       y    -0.00000  -0.00000  -0.00000   0.00000   0.00000   0.00000
       z     0.00000   0.00000  -0.00000   0.00000   0.00000   0.00000
-------------------------------------------------------------------------------


  Static dielectric constant tensor : 

-------------------------------------------------------------------------------
              x         y         z
-------------------------------------------------------------------------------
       x    26.88485   0.00000   0.00000
       y     0.00000  26.88485   0.00000
       z     0.00000   0.00000  26.88485
--------------------------------------------------------------------------------

  High frequency dielectric constant tensor : 

-------------------------------------------------------------------------------
              x         y         z
-------------------------------------------------------------------------------
       x     2.63099   0.00000   0.00000
       y     0.00000   2.63099   0.00000
       z     0.00000   0.00000   2.63099
-------------------------------------------------------------------------------

  Static refractive indices : 

-------------------------------------------------------------------------------
    1 =    5.18506      2 =    5.18506      3 =    5.18506
-------------------------------------------------------------------------------

  High frequency refractive indices : 

-------------------------------------------------------------------------------
    1 =    1.62203      2 =    1.62203      3 =    1.62203
-------------------------------------------------------------------------------


  Time to end of optimisation =       0.0145 seconds

********************************************************************************
*  Defect calculation for configuration   1 :                                  *
********************************************************************************

  Total number of defects =      3

  Total charge on defect  =   2.00

  Defect centre is at   0.3700   0.2500   0.2500  Frac

  Region 1 radius =  12.0000      Number of ions =   1324

  Number of symmetry inequivalent region 1 ions  =    408

  Region 2 radius =  24.0000      Number of ions =   9296

  Number of symmetry inequivalent region 2a ions =   2554

  Region 2a mode = 4 : screened electrostatics due to region 1 
                       neglect correction to region 1 forces from 2a
                       region 2a displacements based on defects only

  Region 2a ions will only interact with defects in region 1

  Vacancies:

--------------------------------------------------------------------------------
    Specification type     Symbol/Number         x          y          z
--------------------------------------------------------------------------------
    Fractional                               0.250000   0.250000   0.250000
    Fractional                               0.750000   0.250000   0.250000
--------------------------------------------------------------------------------

  Interstitials:

--------------------------------------------------------------------------------
    Specification type     Symbol/Number         x          y          z
--------------------------------------------------------------------------------
    Atom/Fractional         O                0.370000   0.250000   0.250000
--------------------------------------------------------------------------------


  Symmetry reduced region 1 (Relative to defect centre) :

--------------------------------------------------------------------------------
   No.   Atomic       x            y             z       Radius  Multiplicity   
         Label      (Angs)       (Angs)        (Angs)    (Angs)     
--------------------------------------------------------------------------------
     1  O     c      0.0000       0.0000       0.0000    0.0000     1    Defect
     2  Zr    c      0.6598 *     1.2689 *    -1.2689    0.0000     2          
     3  Zr    c     -1.8780 *    -1.2689 *    -1.2689    0.0000     2          
     4  O     c     -0.6091 *     2.5378 *    -0.0000 *  0.0000     4          
     5  O     c     -3.1469 *    -0.0000      -0.0000    0.0000     1          
     6  O     c      1.9288 *     2.5378 *     0.0000 *  0.0000     4          
     7  O     c     -0.6091 *     2.5378 *     2.5378    0.0000     2          
     8  O     c     -0.6091 *    -2.5378 *     2.5378    0.0000     2          
     9  Zr    c      3.1977 *     1.2689 *     1.2689    0.0000     2          
    10  O     c     -3.1469 *     0.0000 *     2.5378 *  0.0000     4          
    11  Zr    c      0.6598 *     3.8068 *     1.2689 *  0.0000     4          
    12  O     c      1.9288 *     2.5378 *     2.5378    0.0000     2          
    13  O     c      1.9288 *     2.5378 *    -2.5378    0.0000     2          
    14  Zr    c     -1.8780 *    -3.8068 *     1.2689 *  0.0000     4          
    15  O     c      4.4666 *     0.0000       0.0000    0.0000     1          
    16  Zr    c     -4.4158 *    -1.2689 *     1.2689    0.0000     2          
    17  O     c     -3.1469 *     2.5378 *     2.5378    0.0000     2          
    18  O     c     -3.1469 *    -2.5378 *     2.5378    0.0000     2          
    19  O     c     -0.6091 *    -5.0757 *     0.0000 *  0.0000     4          
    20  Zr    c      3.1977 *     3.8068 *    -1.2689 *  0.0000     4          
    21  O     c      4.4666 *     2.5378 *    -0.0000 *  0.0000     4          
    22  Zr    c      0.6598 *    -3.8068 *     3.8068    0.0000     2          
    23  O     c      1.9288 *     5.0757 *    -0.0000 *  0.0000     4          
    24  O     c     -5.6848 *     0.0000       0.0000    0.0000     1          
    25  Zr    c     -1.8780 *     3.8068 *     3.8068    0.0000     2          
    26  O     c     -0.6091 *     5.0757 *     2.5378 *  0.0000     4          
    27  O     c     -0.6091 *    -2.5378 *     5.0757 *  0.0000     4          
    28  O     c      4.4666 *     2.5378 *    -2.5378    0.0000     2          
    29  O     c      4.4666 *     2.5378 *     2.5378    0.0000     2          
    30  Zr    c     -4.4158 *     3.8068 *     1.2689 *  0.0000     4          
    31  O     c     -3.1469 *    -0.0000 *     5.0757 *  0.0000     4          
    32  O     c      1.9288 *    -5.0757 *     2.5378 *  0.0000     4          
    33  O     c      1.9288 *     5.0757 *     2.5378 *  0.0000     4          
    34  Zr    c      5.7355 *     1.2689 *    -1.2689    0.0000     2          
    35  O     c     -5.6848 *    -0.0000 *     2.5378 *  0.0000     4          
    36  Zr    c      3.1977 *     3.8068 *     3.8068    0.0000     2          
    37  O     c     -3.1469 *    -5.0757 *    -2.5378 *  0.0000     4          
    38  O     c     -3.1469 *     2.5378 *    -5.0757 *  0.0000     4          
    39  Zr    c      0.6598 *    -1.2689 *     6.3446 *  0.0000     4          
    40  O     c     -5.6848 *     2.5378 *     2.5378    0.0000     2          
    41  O     c     -5.6848 *    -2.5378 *     2.5378    0.0000     2          
    42  Zr    c     -1.8780 *     1.2689 *     6.3446 *  0.0000     4          
    43  O     c      4.4666 *     5.0757 *     0.0000 *  0.0000     4          
    44  Zr    c     -4.4158 *     3.8068 *    -3.8068    0.0000     2          
    45  Zr    c      5.7355 *    -3.8068 *    -1.2689 *  0.0000     4          
    46  O     c      7.0044 *    -0.0000      -0.0000    0.0000     1          
    47  Zr    c     -6.9537 *     1.2689 *     1.2689    0.0000     2          
    48  O     c     -0.6091 *     5.0757 *     5.0757    0.0000     2          
    49  O     c     -0.6091 *     5.0757 *    -5.0757    0.0000     2          
    50  Zr    c      3.1977 *     1.2689 *     6.3446 *  0.0000     4          
    51  O     c      4.4666 *     5.0757 *     2.5378 *  0.0000     4          
    52  O     c      4.4666 *    -2.5378 *     5.0757 *  0.0000     4          
    53  Zr    c      0.6598 *     3.8068 *     6.3446 *  0.0000     4          
    54  O     c      1.9288 *     5.0757 *     5.0757    0.0000     2          
    55  O     c      1.9288 *    -5.0757 *     5.0757    0.0000     2          
    56  O     c      7.0044 *     2.5378 *     0.0000 *  0.0000     4          
    57  O     c     -5.6848 *     5.0757 *     0.0000 *  0.0000     4          
    58  Zr    c     -1.8780 *    -6.3446 *     3.8068 *  0.0000     4          
    59  O     c     -0.6091 *    -0.0000 *     7.6135 *  0.0000     4          
    60  Zr    c     -4.4158 *     1.2689 *    -6.3446 *  0.0000     4          
    61  O     c     -3.1469 *     5.0757 *     5.0757    0.0000     2          
    62  O     c     -3.1469 *    -5.0757 *     5.0757    0.0000     2          
    63  O     c      1.9288 *     0.0000 *     7.6135 *  0.0000     4          
    64  Zr    c      5.7355 *     3.8068 *    -3.8068    0.0000     2          
    65  O     c      7.0044 *     2.5378 *     2.5378    0.0000     2          
    66  O     c      7.0044 *     2.5378 *    -2.5378    0.0000     2          
    67  Zr    c     -6.9537 *     1.2689 *    -3.8068 *  0.0000     4          
    68  O     c     -5.6848 *     5.0757 *    -2.5378 *  0.0000     4          
    69  O     c     -5.6848 *     2.5378 *     5.0757 *  0.0000     4          
    70  O     c     -0.6091 *    -7.6135 *     2.5378 *  0.0000     4          
    71  O     c     -0.6091 *     2.5378 *     7.6135 *  0.0000     4          
    72  Zr    c      3.1977 *    -3.8068 *     6.3446 *  0.0000     4          
    73  O     c     -8.2226 *    -0.0000      -0.0000    0.0000     1          
    74  O     c     -3.1469 *     0.0000 *    -7.6135 *  0.0000     4          
    75  O     c      1.9288 *    -2.5378 *     7.6135 *  0.0000     4          
    76  O     c      1.9288 *     7.6135 *     2.5378 *  0.0000     4          
    77  O     c      4.4666 *    -5.0757 *    -5.0757    0.0000     2          
    78  O     c      4.4666 *    -5.0757 *     5.0757    0.0000     2          
    79  Zr    c      8.2734 *     1.2689 *     1.2689    0.0000     2          
    80  O     c     -8.2226 *    -2.5378 *     0.0000 *  0.0000     4          
    81  Zr    c     -4.4158 *     3.8068 *     6.3446 *  0.0000     4          
    82  O     c     -3.1469 *     7.6135 *    -2.5378 *  0.0000     4          
    83  O     c     -3.1469 *     2.5378 *     7.6135 *  0.0000     4          
    84  Zr    c      5.7355 *     6.3446 *    -1.2689 *  0.0000     4          
    85  O     c      7.0044 *     5.0757 *    -0.0000 *  0.0000     4          
    86  Zr    c     -6.9537 *     3.8068 *     3.8068    0.0000     2          
    87  O     c      4.4666 *     7.6135 *    -0.0000 *  0.0000     4          
    88  O     c     -8.2226 *    -2.5378 *    -2.5378    0.0000     2          
    89  O     c     -8.2226 *    -2.5378 *     2.5378    0.0000     2          
    90  Zr    c      0.6598 *    -6.3446 *     6.3446    0.0000     2          
    91  Zr    c      0.6598 *     1.2689 *     8.8824 *  0.0000     4          
    92  O     c      7.0044 *    -2.5378 *    -5.0757 *  0.0000     4          
    93  O     c      7.0044 *     5.0757 *    -2.5378 *  0.0000     4          
    94  O     c     -5.6848 *     5.0757 *     5.0757    0.0000     2          
    95  O     c     -5.6848 *    -5.0757 *     5.0757    0.0000     2          
    96  Zr    c     -1.8780 *     6.3446 *     6.3446    0.0000     2          
    97  Zr    c     -1.8780 *    -1.2689 *     8.8824 *  0.0000     4          
    98  O     c     -0.6091 *     7.6135 *     5.0757 *  0.0000     4          
    99  O     c     -0.6091 *    -5.0757 *     7.6135 *  0.0000     4          
   100  O     c      4.4666 *    -2.5378 *     7.6135 *  0.0000     4          
   101  O     c      4.4666 *     2.5378 *     7.6135 *  0.0000     4          
   102  Zr    c      8.2734 *     3.8068 *    -1.2689 *  0.0000     4          
   103  O     c      1.9288 *    -5.0757 *     7.6135 *  0.0000     4          
   104  O     c      1.9288 *     5.0757 *     7.6135 *  0.0000     4          
   105  Zr    c      5.7355 *     6.3446 *     3.8068 *  0.0000     4          
   106  Zr    c     -6.9537 *    -6.3446 *    -1.2689 *  0.0000     4          
   107  O     c     -5.6848 *     7.6135 *    -0.0000 *  0.0000     4          
   108  Zr    c      3.1977 *     6.3446 *     6.3446    0.0000     2          
   109  Zr    c      3.1977 *    -8.8824 *     1.2689 *  0.0000     4          
   110  O     c      9.5423 *     0.0000       0.0000    0.0000     1          
   111  Zr    c     -9.4915 *    -1.2689 *     1.2689    0.0000     2          
   112  O     c     -8.2226 *    -0.0000 *     5.0757 *  0.0000     4          
   113  O     c     -3.1469 *     7.6135 *     5.0757 *  0.0000     4          
   114  O     c     -3.1469 *    -7.6135 *     5.0757 *  0.0000     4          
   115  Zr    c      0.6598 *     8.8824 *    -3.8068 *  0.0000     4          
   116  O     c     -5.6848 *    -7.6135 *    -2.5378 *  0.0000     4          
   117  O     c     -5.6848 *     7.6135 *    -2.5378 *  0.0000     4          
   118  Zr    c     -1.8780 *     3.8068 *     8.8824 *  0.0000     4          
   119  Zr    c      8.2734 *     3.8068 *     3.8068    0.0000     2          
   120  O     c      9.5423 *     2.5378 *    -0.0000 *  0.0000     4          
   121  O     c     -8.2226 *    -2.5378 *    -5.0757 *  0.0000     4          
   122  O     c     -8.2226 *     2.5378 *    -5.0757 *  0.0000     4          
   123  Zr    c     -4.4158 *     6.3446 *    -6.3446    0.0000     2          
   124  Zr    c     -4.4158 *     1.2689 *     8.8824 *  0.0000     4          
   125  O     c      7.0044 *     5.0757 *     5.0757    0.0000     2          
   126  O     c      7.0044 *     5.0757 *    -5.0757    0.0000     2          
   127  Zr    c     -6.9537 *    -6.3446 *     3.8068 *  0.0000     4          
   128  O     c     -0.6091 *    -0.0000 *    10.1514 *  0.0000     4          
   129  Zr    c      3.1977 *     8.8824 *     3.8068 *  0.0000     4          
   130  O     c      4.4666 *     7.6135 *     5.0757 *  0.0000     4          
   131  O     c      4.4666 *    -5.0757 *     7.6135 *  0.0000     4          
   132  O     c      9.5423 *     2.5378 *     2.5378    0.0000     2          
   133  O     c      9.5423 *     2.5378 *    -2.5378    0.0000     2          
   134  Zr    c     -9.4915 *    -1.2689 *    -3.8068 *  0.0000     4          
   135  O     c      1.9288 *    -0.0000 *    10.1514 *  0.0000     4          
   136  O     c      7.0044 *     7.6135 *     0.0000 *  0.0000     4          
   137  O     c     -0.6091 *     2.5378 *    10.1514 *  0.0000     4          
   138  O     c     -0.6091 *    -2.5378 *    10.1514 *  0.0000     4          
   139  Zr    c      8.2734 *     1.2689 *     6.3446 *  0.0000     4          
   140  Zr    c     -4.4158 *     3.8068 *    -8.8824 *  0.0000     4          
   141  O     c     -3.1469 *    -0.0000 *    10.1514 *  0.0000     4          
   142  O     c      1.9288 *    -2.5378 *    10.1514 *  0.0000     4          
   143  O     c      1.9288 *     2.5378 *    10.1514 *  0.0000     4          
   144  Zr    c      5.7355 *     6.3446 *    -6.3446    0.0000     2          
   145  Zr    c      5.7355 *     8.8824 *     1.2689 *  0.0000     4          
   146  O     c      7.0044 *     7.6135 *     2.5378 *  0.0000     4          
   147  O     c      7.0044 *     7.6135 *    -2.5378 *  0.0000     4          
   148  O     c    -10.7604 *    -0.0000       0.0000    0.0000     1          
   149  O     c     -5.6848 *     7.6135 *    -5.0757 *  0.0000     4          
   150  O     c     -5.6848 *     5.0757 *     7.6135 *  0.0000     4          
   151  O     c     -0.6091 *    -7.6135 *     7.6135    0.0000     2          
   152  O     c     -0.6091 *     7.6135 *     7.6135    0.0000     2          
   153  O     c      9.5423 *     5.0757 *     0.0000 *  0.0000     4          
   154  Zr    c     -9.4915 *    -3.8068 *     3.8068    0.0000     2          
   155  O     c     -8.2226 *     5.0757 *     5.0757    0.0000     2          
   156  O     c     -8.2226 *    -5.0757 *     5.0757    0.0000     2          
   157  O     c     -3.1469 *     2.5378 *   -10.1514 *  0.0000     4          
   158  O     c     -3.1469 *     2.5378 *    10.1514 *  0.0000     4          
   159  Zr    c      0.6598 *     8.8824 *     6.3446 *  0.0000     4          
   160  O     c      1.9288 *     7.6135 *     7.6135    0.0000     2          
   161  O     c      1.9288 *    -7.6135 *     7.6135    0.0000     2          
   162  Zr    c     10.8112 *     1.2689 *    -1.2689    0.0000     2          
   163  O     c    -10.7604 *    -2.5378 *    -0.0000 *  0.0000     4          
   164  Zr    c     -1.8780 *    -8.8824 *     6.3446 *  0.0000     4          
   165  O     c      4.4666 *     0.0000 *    10.1514 *  0.0000     4          
   166  Zr    c      8.2734 *     3.8068 *    -6.3446 *  0.0000     4          
   167  O     c      9.5423 *     5.0757 *     2.5378 *  0.0000     4          
   168  O     c      9.5423 *     5.0757 *    -2.5378 *  0.0000     4          
   169  O     c     -8.2226 *    -7.6135 *     0.0000 *  0.0000     4          
   170  O     c     -3.1469 *     7.6135 *    -7.6135    0.0000     2          
   171  O     c     -3.1469 *     7.6135 *     7.6135    0.0000     2          
   172  Zr    c      5.7355 *     8.8824 *    -3.8068 *  0.0000     4          
   173  O     c    -10.7604 *    -2.5378 *    -2.5378    0.0000     2          
   174  O     c    -10.7604 *    -2.5378 *     2.5378    0.0000     2          
   175  Zr    c     -6.9537 *     6.3446 *     6.3446    0.0000     2          
   176  Zr    c     -6.9537 *    -8.8824 *     1.2689 *  0.0000     4          
   177  O     c     -0.6091 *     5.0757 *   -10.1514 *  0.0000     4          
   178  O     c     -0.6091 *     5.0757 *    10.1514 *  0.0000     4          
   179  Zr    c      3.1977 *    -6.3446 *     8.8824 *  0.0000     4          
   180  O     c      4.4666 *    10.1514 *     2.5378 *  0.0000     4          
   181  O     c      4.4666 *    -2.5378 *    10.1514 *  0.0000     4          
   182  Zr    c     -9.4915 *     1.2689 *    -6.3446 *  0.0000     4          
   183  O     c     -8.2226 *     7.6135 *     2.5378 *  0.0000     4          
   184  O     c     -8.2226 *    -7.6135 *     2.5378 *  0.0000     4          
   185  Zr    c      0.6598 *    -1.2689 *    11.4203 *  0.0000     4          
   186  O     c      1.9288 *    -5.0757 *    10.1514 *  0.0000     4          
   187  O     c      1.9288 *    10.1514 *     5.0757 *  0.0000     4          
   188  O     c      7.0044 *    -7.6135 *    -5.0757 *  0.0000     4          
   189  O     c      7.0044 *    -5.0757 *     7.6135 *  0.0000     4          
   190  Zr    c     10.8112 *     1.2689 *     3.8068 *  0.0000     4          
   191  O     c     -5.6848 *     0.0000 *   -10.1514 *  0.0000     4          
   192  Zr    c     -1.8780 *     1.2689 *    11.4203 *  0.0000     4          
   193  O     c      4.4666 *    -7.6135 *     7.6135    0.0000     2          
   194  O     c      4.4666 *     7.6135 *     7.6135    0.0000     2          
   195  Zr    c     -4.4158 *     6.3446 *     8.8824 *  0.0000     4          
   196  O     c     -3.1469 *     5.0757 *    10.1514 *  0.0000     4          
   197  O     c     -3.1469 *    -5.0757 *    10.1514 *  0.0000     4          
   198  O     c    -10.7604 *    -5.0757 *     0.0000 *  0.0000     4          
   199  Zr    c     -6.9537 *     3.8068 *     8.8824 *  0.0000     4          
   200  O     c     -5.6848 *    10.1514 *     2.5378 *  0.0000     4          
   201  O     c     -5.6848 *    10.1514 *    -2.5378 *  0.0000     4          
   202  Zr    c      3.1977 *     1.2689 *    11.4203 *  0.0000     4          
   203  O     c      9.5423 *     5.0757 *     5.0757    0.0000     2          
   204  O     c      9.5423 *     5.0757 *    -5.0757    0.0000     2          
   205  O     s      0.0000       0.0000       0.0000    0.0000     1    Defect
   206  Zr    s      0.6598 *     1.2689 *    -1.2689    0.0000     2          
   207  Zr    s     -1.8780 *    -1.2689 *    -1.2689    0.0000     2          
   208  O     s     -0.6091 *     2.5378 *    -0.0000 *  0.0000     4          
   209  O     s     -3.1469 *    -0.0000      -0.0000    0.0000     1          
   210  O     s      1.9288 *     2.5378 *     0.0000 *  0.0000     4          
   211  O     s     -0.6091 *     2.5378 *     2.5378    0.0000     2          
   212  O     s     -0.6091 *    -2.5378 *     2.5378    0.0000     2          
   213  Zr    s      3.1977 *     1.2689 *     1.2689    0.0000     2          
   214  O     s     -3.1469 *     0.0000 *     2.5378 *  0.0000     4          
   215  Zr    s      0.6598 *     3.8068 *     1.2689 *  0.0000     4          
   216  O     s      1.9288 *     2.5378 *     2.5378    0.0000     2          
   217  O     s      1.9288 *     2.5378 *    -2.5378    0.0000     2          
   218  Zr    s     -1.8780 *    -3.8068 *     1.2689 *  0.0000     4          
   219  O     s      4.4666 *     0.0000       0.0000    0.0000     1          
   220  Zr    s     -4.4158 *    -1.2689 *     1.2689    0.0000     2          
   221  O     s     -3.1469 *     2.5378 *     2.5378    0.0000     2          
   222  O     s     -3.1469 *    -2.5378 *     2.5378    0.0000     2          
   223  O     s     -0.6091 *    -5.0757 *     0.0000 *  0.0000     4          
   224  Zr    s      3.1977 *     3.8068 *    -1.2689 *  0.0000     4          
   225  O     s      4.4666 *     2.5378 *    -0.0000 *  0.0000     4          
   226  Zr    s      0.6598 *    -3.8068 *     3.8068    0.0000     2          
   227  O     s      1.9288 *     5.0757 *    -0.0000 *  0.0000     4          
   228  O     s     -5.6848 *     0.0000       0.0000    0.0000     1          
   229  Zr    s     -1.8780 *     3.8068 *     3.8068    0.0000     2          
   230  O     s     -0.6091 *     5.0757 *     2.5378 *  0.0000     4          
   231  O     s     -0.6091 *    -2.5378 *     5.0757 *  0.0000     4          
   232  O     s      4.4666 *     2.5378 *    -2.5378    0.0000     2          
   233  O     s      4.4666 *     2.5378 *     2.5378    0.0000     2          
   234  Zr    s     -4.4158 *     3.8068 *     1.2689 *  0.0000     4          
   235  O     s     -3.1469 *    -0.0000 *     5.0757 *  0.0000     4          
   236  O     s      1.9288 *    -5.0757 *     2.5378 *  0.0000     4          
   237  O     s      1.9288 *     5.0757 *     2.5378 *  0.0000     4          
   238  Zr    s      5.7355 *     1.2689 *    -1.2689    0.0000     2          
   239  O     s     -5.6848 *    -0.0000 *     2.5378 *  0.0000     4          
   240  Zr    s      3.1977 *     3.8068 *     3.8068    0.0000     2          
   241  O     s     -3.1469 *    -5.0757 *    -2.5378 *  0.0000     4          
   242  O     s     -3.1469 *     2.5378 *    -5.0757 *  0.0000     4          
   243  Zr    s      0.6598 *    -1.2689 *     6.3446 *  0.0000     4          
   244  O     s     -5.6848 *     2.5378 *     2.5378    0.0000     2          
   245  O     s     -5.6848 *    -2.5378 *     2.5378    0.0000     2          
   246  Zr    s     -1.8780 *     1.2689 *     6.3446 *  0.0000     4          
   247  O     s      4.4666 *     5.0757 *     0.0000 *  0.0000     4          
   248  Zr    s     -4.4158 *     3.8068 *    -3.8068    0.0000     2          
   249  Zr    s      5.7355 *    -3.8068 *    -1.2689 *  0.0000     4          
   250  O     s      7.0044 *    -0.0000      -0.0000    0.0000     1          
   251  Zr    s     -6.9537 *     1.2689 *     1.2689    0.0000     2          
   252  O     s     -0.6091 *     5.0757 *     5.0757    0.0000     2          
   253  O     s     -0.6091 *     5.0757 *    -5.0757    0.0000     2          
   254  Zr    s      3.1977 *     1.2689 *     6.3446 *  0.0000     4          
   255  O     s      4.4666 *     5.0757 *     2.5378 *  0.0000     4          
   256  O     s      4.4666 *    -2.5378 *     5.0757 *  0.0000     4          
   257  Zr    s      0.6598 *     3.8068 *     6.3446 *  0.0000     4          
   258  O     s      1.9288 *     5.0757 *     5.0757    0.0000     2          
   259  O     s      1.9288 *    -5.0757 *     5.0757    0.0000     2          
   260  O     s      7.0044 *     2.5378 *     0.0000 *  0.0000     4          
   261  O     s     -5.6848 *     5.0757 *     0.0000 *  0.0000     4          
   262  Zr    s     -1.8780 *    -6.3446 *     3.8068 *  0.0000     4          
   263  O     s     -0.6091 *    -0.0000 *     7.6135 *  0.0000     4          
   264  Zr    s     -4.4158 *     1.2689 *    -6.3446 *  0.0000     4          
   265  O     s     -3.1469 *     5.0757 *     5.0757    0.0000     2          
   266  O     s     -3.1469 *    -5.0757 *     5.0757    0.0000     2          
   267  O     s      1.9288 *     0.0000 *     7.6135 *  0.0000     4          
   268  Zr    s      5.7355 *     3.8068 *    -3.8068    0.0000     2          
   269  O     s      7.0044 *     2.5378 *     2.5378    0.0000     2          
   270  O     s      7.0044 *     2.5378 *    -2.5378    0.0000     2          
   271  Zr    s     -6.9537 *     1.2689 *    -3.8068 *  0.0000     4          
   272  O     s     -5.6848 *     5.0757 *    -2.5378 *  0.0000     4          
   273  O     s     -5.6848 *     2.5378 *     5.0757 *  0.0000     4          
   274  O     s     -0.6091 *    -7.6135 *     2.5378 *  0.0000     4          
   275  O     s     -0.6091 *     2.5378 *     7.6135 *  0.0000     4          
   276  Zr    s      3.1977 *    -3.8068 *     6.3446 *  0.0000     4          
   277  O     s     -8.2226 *    -0.0000      -0.0000    0.0000     1          
   278  O     s     -3.1469 *     0.0000 *    -7.6135 *  0.0000     4          
   279  O     s      1.9288 *    -2.5378 *     7.6135 *  0.0000     4          
   280  O     s      1.9288 *     7.6135 *     2.5378 *  0.0000     4          
   281  O     s      4.4666 *    -5.0757 *    -5.0757    0.0000     2          
   282  O     s      4.4666 *    -5.0757 *     5.0757    0.0000     2          
   283  Zr    s      8.2734 *     1.2689 *     1.2689    0.0000     2          
   284  O     s     -8.2226 *    -2.5378 *     0.0000 *  0.0000     4          
   285  Zr    s     -4.4158 *     3.8068 *     6.3446 *  0.0000     4          
   286  O     s     -3.1469 *     7.6135 *    -2.5378 *  0.0000     4          
   287  O     s     -3.1469 *     2.5378 *     7.6135 *  0.0000     4          
   288  Zr    s      5.7355 *     6.3446 *    -1.2689 *  0.0000     4          
   289  O     s      7.0044 *     5.0757 *    -0.0000 *  0.0000     4          
   290  Zr    s     -6.9537 *     3.8068 *     3.8068    0.0000     2          
   291  O     s      4.4666 *     7.6135 *    -0.0000 *  0.0000     4          
   292  O     s     -8.2226 *    -2.5378 *    -2.5378    0.0000     2          
   293  O     s     -8.2226 *    -2.5378 *     2.5378    0.0000     2          
   294  Zr    s      0.6598 *    -6.3446 *     6.3446    0.0000     2          
   295  Zr    s      0.6598 *     1.2689 *     8.8824 *  0.0000     4          
   296  O     s      7.0044 *    -2.5378 *    -5.0757 *  0.0000     4          
   297  O     s      7.0044 *     5.0757 *    -2.5378 *  0.0000     4          
   298  O     s     -5.6848 *     5.0757 *     5.0757    0.0000     2          
   299  O     s     -5.6848 *    -5.0757 *     5.0757    0.0000     2          
   300  Zr    s     -1.8780 *     6.3446 *     6.3446    0.0000     2          
   301  Zr    s     -1.8780 *    -1.2689 *     8.8824 *  0.0000     4          
   302  O     s     -0.6091 *     7.6135 *     5.0757 *  0.0000     4          
   303  O     s     -0.6091 *    -5.0757 *     7.6135 *  0.0000     4          
   304  O     s      4.4666 *    -2.5378 *     7.6135 *  0.0000     4          
   305  O     s      4.4666 *     2.5378 *     7.6135 *  0.0000     4          
   306  Zr    s      8.2734 *     3.8068 *    -1.2689 *  0.0000     4          
   307  O     s      1.9288 *    -5.0757 *     7.6135 *  0.0000     4          
   308  O     s      1.9288 *     5.0757 *     7.6135 *  0.0000     4          
   309  Zr    s      5.7355 *     6.3446 *     3.8068 *  0.0000     4          
   310  Zr    s     -6.9537 *    -6.3446 *    -1.2689 *  0.0000     4          
   311  O     s     -5.6848 *     7.6135 *    -0.0000 *  0.0000     4          
   312  Zr    s      3.1977 *     6.3446 *     6.3446    0.0000     2          
   313  Zr    s      3.1977 *    -8.8824 *     1.2689 *  0.0000     4          
   314  O     s      9.5423 *     0.0000       0.0000    0.0000     1          
   315  Zr    s     -9.4915 *    -1.2689 *     1.2689    0.0000     2          
   316  O     s     -8.2226 *    -0.0000 *     5.0757 *  0.0000     4          
   317  O     s     -3.1469 *     7.6135 *     5.0757 *  0.0000     4          
   318  O     s     -3.1469 *    -7.6135 *     5.0757 *  0.0000     4          
   319  Zr    s      0.6598 *     8.8824 *    -3.8068 *  0.0000     4          
   320  O     s     -5.6848 *    -7.6135 *    -2.5378 *  0.0000     4          
   321  O     s     -5.6848 *     7.6135 *    -2.5378 *  0.0000     4          
   322  Zr    s     -1.8780 *     3.8068 *     8.8824 *  0.0000     4          
   323  Zr    s      8.2734 *     3.8068 *     3.8068    0.0000     2          
   324  O     s      9.5423 *     2.5378 *    -0.0000 *  0.0000     4          
   325  O     s     -8.2226 *    -2.5378 *    -5.0757 *  0.0000     4          
   326  O     s     -8.2226 *     2.5378 *    -5.0757 *  0.0000     4          
   327  Zr    s     -4.4158 *     6.3446 *    -6.3446    0.0000     2          
   328  Zr    s     -4.4158 *     1.2689 *     8.8824 *  0.0000     4          
   329  O     s      7.0044 *     5.0757 *     5.0757    0.0000     2          
   330  O     s      7.0044 *     5.0757 *    -5.0757    0.0000     2          
   331  Zr    s     -6.9537 *    -6.3446 *     3.8068 *  0.0000     4          
   332  O     s     -0.6091 *    -0.0000 *    10.1514 *  0.0000     4          
   333  Zr    s      3.1977 *     8.8824 *     3.8068 *  0.0000     4          
   334  O     s      4.4666 *     7.6135 *     5.0757 *  0.0000     4          
   335  O     s      4.4666 *    -5.0757 *     7.6135 *  0.0000     4          
   336  O     s      9.5423 *     2.5378 *     2.5378    0.0000     2          
   337  O     s      9.5423 *     2.5378 *    -2.5378    0.0000     2          
   338  Zr    s     -9.4915 *    -1.2689 *    -3.8068 *  0.0000     4          
   339  O     s      1.9288 *    -0.0000 *    10.1514 *  0.0000     4          
   340  O     s      7.0044 *     7.6135 *     0.0000 *  0.0000     4          
   341  O     s     -0.6091 *     2.5378 *    10.1514 *  0.0000     4          
   342  O     s     -0.6091 *    -2.5378 *    10.1514 *  0.0000     4          
   343  Zr    s      8.2734 *     1.2689 *     6.3446 *  0.0000     4          
   344  Zr    s     -4.4158 *     3.8068 *    -8.8824 *  0.0000     4          
   345  O     s     -3.1469 *    -0.0000 *    10.1514 *  0.0000     4          
   346  O     s      1.9288 *    -2.5378 *    10.1514 *  0.0000     4          
   347  O     s      1.9288 *     2.5378 *    10.1514 *  0.0000     4          
   348  Zr    s      5.7355 *     6.3446 *    -6.3446    0.0000     2          
   349  Zr    s      5.7355 *     8.8824 *     1.2689 *  0.0000     4          
   350  O     s      7.0044 *     7.6135 *     2.5378 *  0.0000     4          
   351  O     s      7.0044 *     7.6135 *    -2.5378 *  0.0000     4          
   352  O     s    -10.7604 *    -0.0000       0.0000    0.0000     1          
   353  O     s     -5.6848 *     7.6135 *    -5.0757 *  0.0000     4          
   354  O     s     -5.6848 *     5.0757 *     7.6135 *  0.0000     4          
   355  O     s     -0.6091 *    -7.6135 *     7.6135    0.0000     2          
   356  O     s     -0.6091 *     7.6135 *     7.6135    0.0000     2          
   357  O     s      9.5423 *     5.0757 *     0.0000 *  0.0000     4          
   358  Zr    s     -9.4915 *    -3.8068 *     3.8068    0.0000     2          
   359  O     s     -8.2226 *     5.0757 *     5.0757    0.0000     2          
   360  O     s     -8.2226 *    -5.0757 *     5.0757    0.0000     2          
   361  O     s     -3.1469 *     2.5378 *   -10.1514 *  0.0000     4          
   362  O     s     -3.1469 *     2.5378 *    10.1514 *  0.0000     4          
   363  Zr    s      0.6598 *     8.8824 *     6.3446 *  0.0000     4          
   364  O     s      1.9288 *     7.6135 *     7.6135    0.0000     2          
   365  O     s      1.9288 *    -7.6135 *     7.6135    0.0000     2          
   366  Zr    s     10.8112 *     1.2689 *    -1.2689    0.0000     2          
   367  O     s    -10.7604 *    -2.5378 *    -0.0000 *  0.0000     4          
   368  Zr    s     -1.8780 *    -8.8824 *     6.3446 *  0.0000     4          
   369  O     s      4.4666 *     0.0000 *    10.1514 *  0.0000     4          
   370  Zr    s      8.2734 *     3.8068 *    -6.3446 *  0.0000     4          
   371  O     s      9.5423 *     5.0757 *     2.5378 *  0.0000     4          
   372  O     s      9.5423 *     5.0757 *    -2.5378 *  0.0000     4          
   373  O     s     -8.2226 *    -7.6135 *     0.0000 *  0.0000     4          
   374  O     s     -3.1469 *     7.6135 *    -7.6135    0.0000     2          
   375  O     s     -3.1469 *     7.6135 *     7.6135    0.0000     2          
   376  Zr    s      5.7355 *     8.8824 *    -3.8068 *  0.0000     4          
   377  O     s    -10.7604 *    -2.5378 *    -2.5378    0.0000     2          
   378  O     s    -10.7604 *    -2.5378 *     2.5378    0.0000     2          
   379  Zr    s     -6.9537 *     6.3446 *     6.3446    0.0000     2          
   380  Zr    s     -6.9537 *    -8.8824 *     1.2689 *  0.0000     4          
   381  O     s     -0.6091 *     5.0757 *   -10.1514 *  0.0000     4          
   382  O     s     -0.6091 *     5.0757 *    10.1514 *  0.0000     4          
   383  Zr    s      3.1977 *    -6.3446 *     8.8824 *  0.0000     4          
   384  O     s      4.4666 *    10.1514 *     2.5378 *  0.0000     4          
   385  O     s      4.4666 *    -2.5378 *    10.1514 *  0.0000     4          
   386  Zr    s     -9.4915 *     1.2689 *    -6.3446 *  0.0000     4          
   387  O     s     -8.2226 *     7.6135 *     2.5378 *  0.0000     4          
   388  O     s     -8.2226 *    -7.6135 *     2.5378 *  0.0000     4          
   389  Zr    s      0.6598 *    -1.2689 *    11.4203 *  0.0000     4          
   390  O     s      1.9288 *    -5.0757 *    10.1514 *  0.0000     4          
   391  O     s      1.9288 *    10.1514 *     5.0757 *  0.0000     4          
   392  O     s      7.0044 *    -7.6135 *    -5.0757 *  0.0000     4          
   393  O     s      7.0044 *    -5.0757 *     7.6135 *  0.0000     4          
   394  Zr    s     10.8112 *     1.2689 *     3.8068 *  0.0000     4          
   395  O     s     -5.6848 *     0.0000 *   -10.1514 *  0.0000     4          
   396  Zr    s     -1.8780 *     1.2689 *    11.4203 *  0.0000     4          
   397  O     s      4.4666 *    -7.6135 *     7.6135    0.0000     2          
   398  O     s      4.4666 *     7.6135 *     7.6135    0.0000     2          
   399  Zr    s     -4.4158 *     6.3446 *     8.8824 *  0.0000     4          
   400  O     s     -3.1469 *     5.0757 *    10.1514 *  0.0000     4          
   401  O     s     -3.1469 *    -5.0757 *    10.1514 *  0.0000     4          
   402  O     s    -10.7604 *    -5.0757 *     0.0000 *  0.0000     4          
   403  Zr    s     -6.9537 *     3.8068 *     8.8824 *  0.0000     4          
   404  O     s     -5.6848 *    10.1514 *     2.5378 *  0.0000     4          
   405  O     s     -5.6848 *    10.1514 *    -2.5378 *  0.0000     4          
   406  Zr    s      3.1977 *     1.2689 *    11.4203 *  0.0000     4          
   407  O     s      9.5423 *     5.0757 *     5.0757    0.0000     2          
   408  O     s      9.5423 *     5.0757 *    -5.0757    0.0000     2          
--------------------------------------------------------------------------------


  Constraints on symmetry reduced coordinates :

--------------------------------------------------------------------------------
  Constraint no.      Unconstrained     Constrained    Coefficient    
                         Variable         Variable
--------------------------------------------------------------------------------
           1                 2 y             2 z        -1.00000
           2                 3 y             3 z         1.00000
           3                 7 y             7 z         1.00000
           4                 8 y             8 z        -1.00000
           5                 9 y             9 z         1.00000
           6                12 y            12 z         1.00000
           7                13 y            13 z        -1.00000
           8                16 y            16 z        -1.00000
           9                17 y            17 z         1.00000
          10                18 y            18 z        -1.00000
          11                22 y            22 z        -1.00000
          12                25 y            25 z         1.00000
          13                28 y            28 z        -1.00000
          14                29 y            29 z         1.00000
          15                34 y            34 z        -1.00000
          16                36 y            36 z         1.00000
          17                40 y            40 z         1.00000
          18                41 y            41 z        -1.00000
          19                44 y            44 z        -1.00000
          20                47 y            47 z         1.00000
          21                48 y            48 z         1.00000
          22                49 y            49 z        -1.00000
          23                54 y            54 z         1.00000
          24                55 y            55 z        -1.00000
          25                61 y            61 z         1.00000
          26                62 y            62 z        -1.00000
          27                64 y            64 z        -1.00000
          28                65 y            65 z         1.00000
          29                66 y            66 z        -1.00000
          30                77 y            77 z         1.00000
          31                78 y            78 z        -1.00000
          32                79 y            79 z         1.00000
          33                86 y            86 z         1.00000
          34                88 y            88 z         1.00000
          35                89 y            89 z        -1.00000
          36                90 y            90 z        -1.00000
          37                94 y            94 z         1.00000
          38                95 y            95 z        -1.00000
          39                96 y            96 z         1.00000
          40               108 y           108 z         1.00000
          41               111 y           111 z        -1.00000
          42               119 y           119 z         1.00000
          43               123 y           123 z        -1.00000
          44               125 y           125 z         1.00000
          45               126 y           126 z        -1.00000
          46               132 y           132 z         1.00000
          47               133 y           133 z        -1.00000
          48               144 y           144 z        -1.00000
          49               151 y           151 z        -1.00000
          50               152 y           152 z         1.00000
          51               154 y           154 z        -1.00000
          52               155 y           155 z         1.00000
          53               156 y           156 z        -1.00000
          54               160 y           160 z         1.00000
          55               161 y           161 z        -1.00000
          56               162 y           162 z        -1.00000
          57               170 y           170 z        -1.00000
          58               171 y           171 z         1.00000
          59               173 y           173 z         1.00000
          60               174 y           174 z        -1.00000
          61               175 y           175 z         1.00000
          62               193 y           193 z        -1.00000
          63               194 y           194 z         1.00000
          64               203 y           203 z         1.00000
          65               204 y           204 z        -1.00000
          66               206 y           206 z        -1.00000
          67               207 y           207 z         1.00000
          68               211 y           211 z         1.00000
          69               212 y           212 z        -1.00000
          70               213 y           213 z         1.00000
          71               216 y           216 z         1.00000
          72               217 y           217 z        -1.00000
          73               220 y           220 z        -1.00000
          74               221 y           221 z         1.00000
          75               222 y           222 z        -1.00000
          76               226 y           226 z        -1.00000
          77               229 y           229 z         1.00000
          78               232 y           232 z        -1.00000
          79               233 y           233 z         1.00000
          80               238 y           238 z        -1.00000
          81               240 y           240 z         1.00000
          82               244 y           244 z         1.00000
          83               245 y           245 z        -1.00000
          84               248 y           248 z        -1.00000
          85               251 y           251 z         1.00000
          86               252 y           252 z         1.00000
          87               253 y           253 z        -1.00000
          88               258 y           258 z         1.00000
          89               259 y           259 z        -1.00000
          90               265 y           265 z         1.00000
          91               266 y           266 z        -1.00000
          92               268 y           268 z        -1.00000
          93               269 y           269 z         1.00000
          94               270 y           270 z        -1.00000
          95               281 y           281 z         1.00000
          96               282 y           282 z        -1.00000
          97               283 y           283 z         1.00000
          98               290 y           290 z         1.00000
          99               292 y           292 z         1.00000
         100               293 y           293 z        -1.00000
         101               294 y           294 z        -1.00000
         102               298 y           298 z         1.00000
         103               299 y           299 z        -1.00000
         104               300 y           300 z         1.00000
         105               312 y           312 z         1.00000
         106               315 y           315 z        -1.00000
         107               323 y           323 z         1.00000
         108               327 y           327 z        -1.00000
         109               329 y           329 z         1.00000
         110               330 y           330 z        -1.00000
         111               336 y           336 z         1.00000
         112               337 y           337 z        -1.00000
         113               348 y           348 z        -1.00000
         114               355 y           355 z        -1.00000
         115               356 y           356 z         1.00000
         116               358 y           358 z        -1.00000
         117               359 y           359 z         1.00000
         118               360 y           360 z        -1.00000
         119               364 y           364 z         1.00000
         120               365 y           365 z        -1.00000
         121               366 y           366 z        -1.00000
         122               374 y           374 z        -1.00000
         123               375 y           375 z         1.00000
         124               377 y           377 z         1.00000
         125               378 y           378 z        -1.00000
         126               379 y           379 z         1.00000
         127               397 y           397 z        -1.00000
         128               398 y           398 z         1.00000
         129               407 y           407 z         1.00000
         130               408 y           408 z        -1.00000
--------------------------------------------------------------------------------


  Components of defect energy : 

--------------------------------------------------------------------------------
  Region 1 - region 1                   =    -11.43825235 eV
  Region 1 - region 2a (unrelaxed)      =     43.37876436 eV
  Region 1 - 2a (relaxed - correction)  =     -2.35848710 eV
  Region 1 (Total)                      =     29.58202491 eV
  Region 2a                             =      1.17926829 eV
  Region 2b                             =     -1.15824180 eV
--------------------------------------------------------------------------------
  Total defect energy                   =     29.60305140 eV
--------------------------------------------------------------------------------

  Largest displacement in region 2 =   0.0060 Angstroms


  Number of variables =     1060

  Maximum number of calculations  =        1000
  Maximum Hessian update interval =          10
  Maximum step size               =   1.0000000
  Maximum parameter tolerance     =   0.0000100
  Maximum function  tolerance     =   0.0000100
  Maximum gradient  tolerance     =   0.0010000

  Symmetry adapted optimisation

  Symmetry to be used for second derivatives

  Newton-Raphson optimiser to be used

  BFGS hessian update to be used

  Lower half triangular hessian to be used

  Start of defect optimisation :

  Cycle:      0 Defect Energy:  29.603051  Gnorm:     0.084250  CPU:    4.810
  ** Hessian calculated **
  Cycle:      1 Defect Energy:  24.321571  Gnorm:     0.068916  CPU:   21.615
  Cycle:      2 Defect Energy:  19.419812  Gnorm:     0.044218  CPU:   31.582
  ** Hessian calculated **
  Cycle:      3 Defect Energy:  15.225559  Gnorm:     0.016314  CPU:   44.351
  Cycle:      4 Defect Energy:  14.797524  Gnorm:     0.003104  CPU:   51.531
  Cycle:      5 Defect Energy:  14.769018  Gnorm:     0.002322  CPU:   53.075
  Cycle:      6 Defect Energy:  14.742052  Gnorm:     0.001745  CPU:   54.616
  Cycle:      7 Defect Energy:  14.721632  Gnorm:     0.001402  CPU:   56.159
  Cycle:      8 Defect Energy:  14.707529  Gnorm:     0.001104  CPU:   57.707
  Cycle:      9 Defect Energy:  14.698363  Gnorm:     0.000896  CPU:   59.244
  Cycle:     10 Defect Energy:  14.692367  Gnorm:     0.000682  CPU:   60.782
  Cycle:     11 Defect Energy:  14.688594  Gnorm:     0.000541  CPU:   62.338
  Cycle:     12 Defect Energy:  14.686255  Gnorm:     0.000398  CPU:   63.882
  ** Hessian calculated **
  Cycle:     13 Defect Energy:  14.684682  Gnorm:     0.000285  CPU:   71.030
  Cycle:     14 Defect Energy:  14.683860  Gnorm:     0.000208  CPU:   72.583
  Cycle:     15 Defect Energy:  14.683453  Gnorm:     0.000151  CPU:   74.122
  Cycle:     16 Defect Energy:  14.683178  Gnorm:     0.000108  CPU:   75.667
  Cycle:     17 Defect Energy:  14.683022  Gnorm:     0.000077  CPU:   77.203
  Cycle:     18 Defect Energy:  14.682934  Gnorm:     0.000055  CPU:   78.741
  Cycle:     19 Defect Energy:  14.682883  Gnorm:     0.000039  CPU:   80.281
  Cycle:     20 Defect Energy:  14.682854  Gnorm:     0.000028  CPU:   81.829
  Cycle:     21 Defect Energy:  14.682837  Gnorm:     0.000019  CPU:   83.367
  Cycle:     22 Defect Energy:  14.682827  Gnorm:     0.000014  CPU:   84.909
  ** Hessian calculated **


  **** Optimisation achieved ****


  Final defect energy  =       14.68282024
  Final defect Gnorm   =        0.00000956

  Components of defect energy : 

--------------------------------------------------------------------------------
  Region 1 - region 1                   =    -17.40457106 eV
  Region 1 - region 2a (unrelaxed)      =     34.28267517 eV
  Region 1 - 2a (relaxed - correction)  =     -2.07824864 eV
  Region 1 (Total)                      =     14.79985547 eV
  Region 2a                             =      1.03899511 eV
  Region 2b                             =     -1.15603034 eV
--------------------------------------------------------------------------------
  Total defect energy                   =     14.68282024 eV
--------------------------------------------------------------------------------

  Largest displacement in region 2 =   0.0060 Angstroms

  Final coordinates of region 1 :

--------------------------------------------------------------------------------
   No.  Atomic        x           y           z          Radius      Charge
        Label       (Angs)      (Angs)      (Angs)       (Angs)       (e) 
--------------------------------------------------------------------------------
     1  O     c     1.878003    1.268921    1.268921    0.000000    0.077000
     2  Zr    c     2.495666    2.580267   -0.042425    0.000000    2.650000
     3  Zr    c     2.495666   -0.042425    2.580267    0.000000    2.650000
     4  Zr    c    -0.026559   -0.034995   -0.034995    0.000000    2.650000
     5  Zr    c    -0.026559    2.572837    2.572837    0.000000    2.650000
     6  O     c     1.213014    3.822952    1.234527    0.000000    0.077000
     7  O     c     1.213014    1.234527    3.822952    0.000000    0.077000
     8  O     c     1.213014    1.303315   -1.285110    0.000000    0.077000
     9  O     c     1.213014   -1.285110    1.303315    0.000000    0.077000
    10  O     c    -0.854272    1.268921    1.268921    0.000000    0.077000
    11  O     c     3.821142    3.465820    1.262471    0.000000    0.077000
    12  O     c     3.821142    1.262471    3.465820    0.000000    0.077000
    13  O     c     3.821142    1.275371   -0.927979    0.000000    0.077000
    14  O     c     3.821142   -0.927979    1.275371    0.000000    0.077000
    15  O     c     1.313267    3.786327    3.786327    0.000000    0.077000
    16  O     c     1.313267   -1.248485   -1.248485    0.000000    0.077000
    17  O     c     1.276061   -1.295354    3.833196    0.000000    0.077000
    18  O     c     1.276061    3.833196   -1.295354    0.000000    0.077000
    19  Zr    c     5.135503    2.592767    2.592767    0.000000    2.650000
    20  Zr    c     5.135503   -0.054925   -0.054925    0.000000    2.650000
    21  O     c    -1.338164    1.300082    3.784136    0.000000    0.077000
    22  O     c    -1.338164    3.784136    1.300082    0.000000    0.077000
    23  O     c    -1.338164   -1.246294    1.237759    0.000000    0.077000
    24  O     c    -1.338164    1.237759   -1.246294    0.000000    0.077000
    25  Zr    c     2.517733    5.101540    2.568940    0.000000    2.650000
    26  Zr    c     2.517733    2.568940    5.101540    0.000000    2.650000
    27  Zr    c     2.517733   -0.031098   -2.563699    0.000000    2.650000
    28  Zr    c     2.517733   -2.563699   -0.031098    0.000000    2.650000
    29  O     c     3.848495    3.843139    3.843139    0.000000    0.077000
    30  O     c     3.848495   -1.305297   -1.305297    0.000000    0.077000
    31  O     c     3.802869    3.850974   -1.313133    0.000000    0.077000
    32  O     c     3.802869   -1.313133    3.850974    0.000000    0.077000
    33  Zr    c    -0.015402   -2.559179    2.551037    0.000000    2.650000
    34  Zr    c    -0.015402    2.551037   -2.559179    0.000000    2.650000
    35  Zr    c    -0.015402    5.097021   -0.013196    0.000000    2.650000
    36  Zr    c    -0.015402   -0.013196    5.097021    0.000000    2.650000
    37  O     c     5.891823    1.268921    1.268921    0.000000    0.077000
    38  Zr    c    -2.544997   -0.021846    2.559688    0.000000    2.650000
    39  Zr    c    -2.544997    2.559688   -0.021846    0.000000    2.650000
    40  O     c    -1.211047    3.820139    3.820139    0.000000    0.077000
    41  O     c    -1.211047   -1.282298   -1.282298    0.000000    0.077000
    42  O     c    -1.247851   -1.252647    3.790489    0.000000    0.077000
    43  O     c    -1.247851    3.790489   -1.252647    0.000000    0.077000
    44  O     c     1.299064   -3.827718    1.252046    0.000000    0.077000
    45  O     c     1.299064    1.252046   -3.827718    0.000000    0.077000
    46  O     c     1.299064    1.285796    6.365560    0.000000    0.077000
    47  O     c     1.299064    6.365560    1.285796    0.000000    0.077000
    48  Zr    c     5.100190    5.094128   -0.025518    0.000000    2.650000
    49  Zr    c     5.100190   -0.025518    5.094128    0.000000    2.650000
    50  Zr    c     5.100190    2.563360   -2.556286    0.000000    2.650000
    51  Zr    c     5.100190   -2.556286    2.563360    0.000000    2.650000
    52  O     c     6.397067    3.832315    1.305591    0.000000    0.077000
    53  O     c     6.397067    1.305591    3.832315    0.000000    0.077000
    54  O     c     6.397067    1.232250   -1.294473    0.000000    0.077000
    55  O     c     6.397067   -1.294473    1.232250    0.000000    0.077000
    56  Zr    c     2.532610   -2.557210    5.095052    0.000000    2.650000
    57  Zr    c     2.532610    5.095052   -2.557210    0.000000    2.650000
    58  O     c     3.820233    6.109385    1.274952    0.000000    0.077000
    59  O     c     3.820233    1.274952    6.109385    0.000000    0.077000
    60  O     c     3.820233    1.262890   -3.571543    0.000000    0.077000
    61  O     c     3.820233   -3.571543    1.262890    0.000000    0.077000
    62  O     c    -3.553726    1.268921    1.268921    0.000000    0.077000
    63  Zr    c    -0.017040    5.096066    5.096066    0.000000    2.650000
    64  Zr    c    -0.017040   -2.558224   -2.558224    0.000000    2.650000
    65  O     c     1.260753    6.312215    3.807260    0.000000    0.077000
    66  O     c     1.260753    3.807260    6.312215    0.000000    0.077000
    67  O     c     1.260753   -3.774373   -1.269418    0.000000    0.077000
    68  O     c     1.260753   -1.269418   -3.774373    0.000000    0.077000
    69  O     c     1.266481   -1.255969    6.356190    0.000000    0.077000
    70  O     c     1.266481    6.356190   -1.255969    0.000000    0.077000
    71  O     c     1.266481   -3.818349    3.793811    0.000000    0.077000
    72  O     c     1.266481    3.793811   -3.818349    0.000000    0.077000
    73  O     c     6.340664    3.779902   -1.242060    0.000000    0.077000
    74  O     c     6.340664   -1.242060    3.779902    0.000000    0.077000
    75  O     c     6.367772    3.824688    3.824688    0.000000    0.077000
    76  O     c     6.367772   -1.286846   -1.286846    0.000000    0.077000
    77  Zr    c    -2.547192    5.085026    2.539396    0.000000    2.650000
    78  Zr    c    -2.547192   -0.001554   -2.547184    0.000000    2.650000
    79  Zr    c    -2.547192    2.539396    5.085026    0.000000    2.650000
    80  Zr    c    -2.547192   -2.547184   -0.001554    0.000000    2.650000
    81  O     c    -1.239533    1.261695    6.328191    0.000000    0.077000
    82  O     c    -1.239533    6.328191    1.261695    0.000000    0.077000
    83  O     c    -1.239533   -3.790350    1.276147    0.000000    0.077000
    84  O     c    -1.239533    1.276147   -3.790350    0.000000    0.077000
    85  O     c     3.812521   -3.844335    3.787764    0.000000    0.077000
    86  O     c     3.812521    3.787764   -3.844335    0.000000    0.077000
    87  O     c     3.812521   -1.249922    6.382177    0.000000    0.077000
    88  O     c     3.812521    6.382177   -1.249922    0.000000    0.077000
    89  O     c     3.782562    6.377134    3.793098    0.000000    0.077000
    90  O     c     3.782562    3.793098    6.377134    0.000000    0.077000
    91  O     c     3.782562   -1.255256   -3.839292    0.000000    0.077000
    92  O     c     3.782562   -3.839292   -1.255256    0.000000    0.077000
    93  Zr    c     7.642510    2.570363   -0.032521    0.000000    2.650000
    94  Zr    c     7.642510   -0.032521    2.570363    0.000000    2.650000
[...]
    328 y          2.537842      2.539981     0.002139    Cartesian    0.08
    328 z         10.151367     10.154865     0.003498    Cartesian    0.03
    329 x          8.882446      8.887001     0.004555    Cartesian    0.05
    329 y          6.344605      6.345407     0.000802    Cartesian    0.01
    329 z          6.344605      6.345407     0.000802    Cartesian    0.01
    330 x          8.882446      8.877259    -0.005187    Cartesian   -0.06
    330 y          6.344605      6.338408    -0.006197    Cartesian   -0.10
    330 z         -3.806763     -3.800566     0.006197    Cartesian   -0.16
    331 x         -5.075684     -5.080504    -0.004820    Cartesian    0.09
    331 y         -5.075684     -5.078933    -0.003249    Cartesian    0.06
    331 z          5.075684      5.075510    -0.000174    Cartesian   -0.00
    332 x          1.268921      1.272043     0.003122    Cartesian    0.25
    332 y          1.268921      1.271267     0.002346    Cartesian    0.18
    332 z         11.420288     11.430343     0.010054    Cartesian    0.09
    333 x          5.075684      5.073421    -0.002262    Cartesian   -0.04
    333 y         10.151367     10.156122     0.004754    Cartesian    0.05
    333 z          5.075684      5.074107    -0.001576    Cartesian   -0.03
    334 x          6.344605      6.344707     0.000103    Cartesian    0.00
    334 y          8.882446      8.879247    -0.003199    Cartesian   -0.04
    334 z          6.344605      6.341636    -0.002968    Cartesian   -0.05
    335 x          6.344605      6.344246    -0.000359    Cartesian   -0.01
    335 y         -3.806763     -3.803184     0.003578    Cartesian   -0.09
    335 z          8.882446      8.886727     0.004281    Cartesian    0.05
    336 x         11.420288     11.415016    -0.005272    Cartesian   -0.05
    336 y          3.806763      3.803615    -0.003148    Cartesian   -0.08
    336 z          3.806763      3.803615    -0.003148    Cartesian   -0.08
    337 x         11.420288     11.422111     0.001823    Cartesian    0.02
    337 y          3.806763      3.802142    -0.004621    Cartesian   -0.12
    337 z         -1.268921     -1.264300     0.004621    Cartesian   -0.36
    338 x         -7.613525     -7.616157    -0.002631    Cartesian    0.03
    338 y         -0.000000      0.002620     0.002620    Cartesian *******
    338 z         -2.537842     -2.538161    -0.000320    Cartesian    0.01
    339 x          3.806763      3.807295     0.000532    Cartesian    0.01
    339 y          1.268921      1.268277    -0.000644    Cartesian   -0.05
    339 z         11.420288     11.355604    -0.064684    Cartesian   -0.57
    340 x          8.882446      8.882220    -0.000226    Cartesian   -0.00
    340 y          8.882446      8.874459    -0.007987    Cartesian   -0.09
    340 z          1.268921      1.266296    -0.002625    Cartesian   -0.21
    341 x          1.268921      1.274278     0.005357    Cartesian    0.42
    341 y          3.806763      3.805561    -0.001202    Cartesian   -0.03
    341 z         11.420288     11.404237    -0.016051    Cartesian   -0.14
    342 x          1.268921      1.272403     0.003482    Cartesian    0.27
    342 y         -1.268921     -1.266188     0.002732    Cartesian   -0.22
    342 z         11.420288     11.422349     0.002061    Cartesian    0.02
    343 x         10.151367     10.159386     0.008018    Cartesian    0.08
    343 y          2.537842      2.540021     0.002179    Cartesian    0.09
    343 z          7.613525      7.621443     0.007918    Cartesian    0.10
    344 x         -2.537842     -2.540805    -0.002963    Cartesian    0.12
    344 y          5.075684      5.076635     0.000952    Cartesian    0.02
    344 z         -7.613525     -7.617429    -0.003903    Cartesian    0.05
    345 x         -1.268921     -1.266843     0.002078    Cartesian   -0.16
    345 y          1.268921      1.267507    -0.001414    Cartesian   -0.11
    345 z         11.420288     11.415027    -0.005262    Cartesian   -0.05
    346 x          3.806763      3.810523     0.003760    Cartesian    0.10
    346 y         -1.268921     -1.266790     0.002131    Cartesian   -0.17
    346 z         11.420288     11.433739     0.013451    Cartesian    0.12
    347 x          3.806763      3.805125    -0.001638    Cartesian   -0.04
    347 y          3.806763      3.804718    -0.002045    Cartesian   -0.05
    347 z         11.420288     11.432546     0.012258    Cartesian    0.11
    348 x          7.613525      7.612584    -0.000942    Cartesian   -0.01
    348 y          7.613525      7.618841     0.005316    Cartesian    0.07
    348 z         -5.075684     -5.080999    -0.005316    Cartesian    0.10
    349 x          7.613525      7.612856    -0.000669    Cartesian   -0.01
    349 y         10.151367     10.158516     0.007148    Cartesian    0.07
    349 z          2.537842      2.536383    -0.001459    Cartesian   -0.06
    350 x          8.882446      8.886647     0.004200    Cartesian    0.05
    350 y          8.882446      8.877231    -0.005215    Cartesian   -0.06
    350 z          3.806763      3.807187     0.000425    Cartesian    0.01
    351 x          8.882446      8.881158    -0.001288    Cartesian   -0.01
    351 y          8.882446      8.883560     0.001114    Cartesian    0.01
    351 z         -1.268921     -1.266484     0.002437    Cartesian   -0.19
    352 x         -8.882446     -8.820445     0.062002    Cartesian   -0.70
    352 y          1.268921      1.268921     0.000000    Cartesian    0.00
    352 z          1.268921      1.268921     0.000000    Cartesian    0.00
    353 x         -3.806763     -3.804801     0.001962    Cartesian   -0.05
    353 y          8.882446      8.879869    -0.002577    Cartesian   -0.03
    353 z         -3.806763     -3.806349     0.000414    Cartesian   -0.01
    354 x         -3.806763     -3.808264    -0.001501    Cartesian    0.04
    354 y          6.344605      6.343501    -0.001104    Cartesian   -0.02
    354 z          8.882446      8.884123     0.001677    Cartesian    0.02
    355 x          1.268921      1.274168     0.005247    Cartesian    0.41
    355 y         -6.344605     -6.342567     0.002038    Cartesian   -0.03
    355 z          8.882446      8.880408    -0.002038    Cartesian   -0.02
    356 x          1.268921      1.268767    -0.000154    Cartesian   -0.01
    356 y          8.882446      8.880975    -0.001471    Cartesian   -0.02
    356 z          8.882446      8.880975    -0.001471    Cartesian   -0.02
    357 x         11.420288     11.415656    -0.004632    Cartesian   -0.04
    357 y          6.344605      6.345058     0.000454    Cartesian    0.01
    357 z          1.268921      1.265538    -0.003383    Cartesian   -0.27
    358 x         -7.613525     -7.617519    -0.003994    Cartesian    0.05
    358 y         -2.537842     -2.542710    -0.004868    Cartesian    0.19
    358 z          5.075684      5.080552     0.004868    Cartesian    0.10
    359 x         -6.344605     -6.335370     0.009234    Cartesian   -0.15
    359 y          6.344605      6.342432    -0.002173    Cartesian   -0.03
    359 z          6.344605      6.342432    -0.002173    Cartesian   -0.03
    360 x         -6.344605     -6.341634     0.002970    Cartesian   -0.05
    360 y         -3.806763     -3.806090     0.000673    Cartesian   -0.02
    360 z          6.344605      6.343932    -0.000673    Cartesian   -0.01
    361 x         -1.268921     -1.264479     0.004441    Cartesian   -0.35
    361 y          3.806763      3.805071    -0.001691    Cartesian   -0.04
    361 z         -8.882446     -8.878355     0.004091    Cartesian   -0.05
    362 x         -1.268921     -1.267612     0.001309    Cartesian   -0.10
    362 y          3.806763      3.808290     0.001527    Cartesian    0.04
    362 z         11.420288     11.423546     0.003257    Cartesian    0.03
    363 x          2.537842      2.535974    -0.001868    Cartesian   -0.07
    363 y         10.151367     10.157620     0.006253    Cartesian    0.06
    363 z          7.613525      7.617176     0.003650    Cartesian    0.05
    364 x          3.806763      3.809446     0.002683    Cartesian    0.07
    364 y          8.882446      8.880236    -0.002210    Cartesian   -0.02
    364 z          8.882446      8.880236    -0.002210    Cartesian   -0.02
    365 x          3.806763      3.804580    -0.002183    Cartesian   -0.06
    365 y         -6.344605     -6.343280     0.001325    Cartesian   -0.02
    365 z          8.882446      8.881122    -0.001325    Cartesian   -0.01
    366 x         12.689209     12.692554     0.003345    Cartesian    0.03
    366 y          2.537842      2.546656     0.008814    Cartesian    0.35
    366 z          0.000000     -0.008814    -0.008814    Cartesian *******
    367 x         -8.882446     -8.901673    -0.019226    Cartesian    0.22
    367 y         -1.268921     -1.264709     0.004212    Cartesian   -0.33
    367 z          1.268921      1.271552     0.002631    Cartesian    0.21
    368 x         -0.000000     -0.001854    -0.001854    Cartesian *******
    368 y         -7.613525     -7.619858    -0.006332    Cartesian    0.08
    368 z          7.613525      7.617253     0.003727    Cartesian    0.05
    369 x          6.344605      6.343507    -0.001097    Cartesian   -0.02
    369 y          1.268921      1.265552    -0.003369    Cartesian   -0.27
    369 z         11.420288     11.428621     0.008333    Cartesian    0.07
    370 x         10.151367     10.157002     0.005635    Cartesian    0.06
    370 y          5.075684      5.078284     0.002600    Cartesian    0.05
    370 z         -5.075684     -5.082005    -0.006322    Cartesian    0.12
    371 x         11.420288     11.413954    -0.006334    Cartesian   -0.06
    371 y          6.344605      6.346766     0.002162    Cartesian    0.03
    371 z          3.806763      3.807796     0.001033    Cartesian    0.03
    372 x         11.420288     11.417446    -0.002842    Cartesian   -0.02
    372 y          6.344605      6.338730    -0.005874    Cartesian   -0.09
    372 z         -1.268921     -1.266157     0.002764    Cartesian   -0.22
    373 x         -6.344605     -6.344563     0.000041    Cartesian   -0.00
    373 y         -6.344605     -6.343010     0.001595    Cartesian   -0.03
    373 z          1.268921      1.267167    -0.001754    Cartesian   -0.14
    374 x         -1.268921     -1.267526     0.001395    Cartesian   -0.11
    374 y          8.882446      8.880008    -0.002438    Cartesian   -0.03
    374 z         -6.344605     -6.342166     0.002438    Cartesian   -0.04
    375 x         -1.268921     -1.265021     0.003900    Cartesian   -0.31
    375 y          8.882446      8.880902    -0.001544    Cartesian   -0.02
    375 z          8.882446      8.880902    -0.001544    Cartesian   -0.02
    376 x          7.613525      7.618864     0.005339    Cartesian    0.07
    376 y         10.151367     10.156776     0.005409    Cartesian    0.05
    376 z         -2.537842     -2.542603    -0.004761    Cartesian    0.19
    377 x         -8.882446     -8.860244     0.022202    Cartesian   -0.25
    377 y         -1.268921     -1.267578     0.001343    Cartesian   -0.11
    377 z         -1.268921     -1.267578     0.001343    Cartesian   -0.11
    378 x         -8.882446     -8.861086     0.021361    Cartesian   -0.24
    378 y         -1.268921     -1.268587     0.000334    Cartesian   -0.03
    378 z          3.806763      3.806429    -0.000334    Cartesian   -0.01
    379 x         -5.075684     -5.080079    -0.004395    Cartesian    0.09
    379 y          7.613525      7.618685     0.005159    Cartesian    0.07
    379 z          7.613525      7.618685     0.005159    Cartesian    0.07
    380 x         -5.075684     -5.080287    -0.004603    Cartesian    0.09
    380 y         -7.613525     -7.618491    -0.004966    Cartesian    0.07
    380 z          2.537842      2.537399    -0.000443    Cartesian   -0.02
    381 x          1.268921      1.271053     0.002132    Cartesian    0.17
    381 y          6.344605      6.341689    -0.002916    Cartesian   -0.05
    381 z         -8.882446     -8.877238     0.005209    Cartesian   -0.06
    382 x          1.268921      1.268663    -0.000258    Cartesian   -0.02
    382 y          6.344605      6.343909    -0.000695    Cartesian   -0.01
    382 z         11.420288     11.418429    -0.001859    Cartesian   -0.02
    383 x          5.075684      5.077216     0.001533    Cartesian    0.03
    383 y         -5.075684     -5.079934    -0.004251    Cartesian    0.08
    383 z         10.151367     10.158513     0.007146    Cartesian    0.07
    384 x          6.344605      6.342731    -0.001874    Cartesian   -0.03
    384 y         11.420288     11.417969    -0.002319    Cartesian   -0.02
    384 z          3.806763      3.803036    -0.003727    Cartesian   -0.10
    385 x          6.344605      6.342710    -0.001895    Cartesian   -0.03
    385 y         -1.268921     -1.267817     0.001104    Cartesian   -0.09
    385 z         11.420288     11.400528    -0.019760    Cartesian   -0.17
    386 x         -7.613525     -7.619325    -0.005799    Cartesian    0.08
    386 y          2.537842      2.539752     0.001910    Cartesian    0.08
    386 z         -5.075684     -5.079889    -0.004205    Cartesian    0.08
    387 x         -6.344605     -6.335500     0.009104    Cartesian   -0.14
    387 y          8.882446      8.880147    -0.002299    Cartesian   -0.03
    387 z          3.806763      3.804475    -0.002288    Cartesian   -0.06
    388 x         -6.344605     -6.340234     0.004371    Cartesian   -0.07
    388 y         -6.344605     -6.341600     0.003004    Cartesian   -0.05
    388 z          3.806763      3.806282    -0.000480    Cartesian   -0.01
    389 x          2.537842      2.534022    -0.003820    Cartesian   -0.15
    389 y         -0.000000     -0.006060    -0.006060    Cartesian *******
    389 z         12.689209     12.696053     0.006844    Cartesian    0.05
    390 x          3.806763      3.807214     0.000451    Cartesian    0.01
    390 y         -3.806763     -3.805563     0.001200    Cartesian   -0.03
    390 z         11.420288     11.409283    -0.011005    Cartesian   -0.10
    391 x          3.806763      3.805481    -0.001281    Cartesian   -0.03
    391 y         11.420288     11.408960    -0.011328    Cartesian   -0.10
    391 z          6.344605      6.341853    -0.002752    Cartesian   -0.04
    392 x          8.882446      8.874698    -0.007748    Cartesian   -0.09
    392 y         -6.344605     -6.337431     0.007174    Cartesian   -0.11
    392 z         -3.806763     -3.800891     0.005871    Cartesian   -0.15
    393 x          8.882446      8.881902    -0.000544    Cartesian   -0.01
    393 y         -3.806763     -3.804408     0.002355    Cartesian   -0.06
    393 z          8.882446      8.879474    -0.002972    Cartesian   -0.03
    394 x         12.689209     12.701593     0.012384    Cartesian    0.10
    394 y          2.537842      2.536366    -0.001476    Cartesian   -0.06
    394 z          5.075684      5.076700     0.001016    Cartesian    0.02
    395 x         -3.806763     -3.803948     0.002814    Cartesian   -0.07
    395 y          1.268921      1.267154    -0.001767    Cartesian   -0.14
    395 z         -8.882446     -8.877146     0.005301    Cartesian   -0.06
    396 x          0.000000     -0.001746    -0.001746    Cartesian    0.00
    396 y          2.537842      2.537566    -0.000276    Cartesian   -0.01
    396 z         12.689209     12.699193     0.009984    Cartesian    0.08
    397 x          6.344605      6.344984     0.000379    Cartesian    0.01
    397 y         -6.344605     -6.340772     0.003832    Cartesian   -0.06
    397 z          8.882446      8.878614    -0.003832    Cartesian   -0.04
    398 x          6.344605      6.339419    -0.005186    Cartesian   -0.08
    398 y          8.882446      8.873892    -0.008554    Cartesian   -0.10
    398 z          8.882446      8.873892    -0.008554    Cartesian   -0.10
    399 x         -2.537842     -2.542407    -0.004566    Cartesian    0.18
    399 y          7.613525      7.618609     0.005084    Cartesian    0.07
    399 z         10.151367     10.157950     0.006582    Cartesian    0.06
    400 x         -1.268921     -1.266521     0.002400    Cartesian   -0.19
    400 y          6.344605      6.341662    -0.002942    Cartesian   -0.05
    400 z         11.420288     11.411004    -0.009284    Cartesian   -0.08
    401 x         -1.268921     -1.266001     0.002920    Cartesian   -0.23
    401 y         -3.806763     -3.804840     0.001922    Cartesian   -0.05
    401 z         11.420288     11.413012    -0.007276    Cartesian   -0.06
    402 x         -8.882446     -8.865704     0.016743    Cartesian   -0.19
    402 y         -3.806763     -3.803959     0.002804    Cartesian   -0.07
    402 z          1.268921      1.269726     0.000805    Cartesian    0.06
    403 x         -5.075684     -5.082093    -0.006409    Cartesian    0.13
    403 y          5.075684      5.079675     0.003991    Cartesian    0.08
    403 z         10.151367     10.158165     0.006798    Cartesian    0.07
    404 x         -3.806763     -3.803569     0.003194    Cartesian   -0.08
    404 y         11.420288     11.411273    -0.009015    Cartesian   -0.08
    404 z          3.806763      3.804836    -0.001926    Cartesian   -0.05
    405 x         -3.806763     -3.802008     0.004755    Cartesian   -0.12
    405 y         11.420288     11.413099    -0.007189    Cartesian   -0.06
    405 z         -1.268921     -1.267542     0.001379    Cartesian   -0.11
    406 x          5.075684      5.081081     0.005397    Cartesian    0.11
    406 y          2.537842      2.542894     0.005052    Cartesian    0.20
    406 z         12.689209     12.698222     0.009013    Cartesian    0.07
    407 x         11.420288     11.412881    -0.007407    Cartesian   -0.06
    407 y          6.344605      6.336927    -0.007678    Cartesian   -0.12
    407 z          6.344605      6.336927    -0.007678    Cartesian   -0.12
    408 x         11.420288     11.412005    -0.008283    Cartesian   -0.07
    408 y          6.344605      6.342116    -0.002489    Cartesian   -0.04
    408 z         -3.806763     -3.804274     0.002489    Cartesian   -0.07
--------------------------------------------------------------------------------


  Time to end of optimisation  =       92.0789 seconds


  Peak dynamic memory used =     400.21 MB 


  Timing analysis for GULP :

--------------------------------------------------------------------------------
  Task / Subroutine                                          Time (Seconds)
--------------------------------------------------------------------------------
  Calculation of reciprocal space energy and derivatives          0.0002
  Calculation of reciprocal space energy using symmetry           0.0002
  Calculation of real space energy and derivatives                0.0020
  Calculation of real space energy using symmetry                 0.0072
  Calculation for region 1 energy and derivatives (2-b)          22.4714
  Calculation for region 2a energy                               53.3600
  Calculation for region 2b energy                                0.0079
  Calculation and manipulation of Hessian matrix                 14.7157
  Calculation of matrix inversion                                 1.0881
  Symmetry generation of equivalent positions                     0.0016
--------------------------------------------------------------------------------
  Total CPU time                                                 92.0789
--------------------------------------------------------------------------------


  Dump file written as ZrO2.grs


  Job Finished at 12:11.29 14th October    2020                               

