********************************************************************************
*                       GENERAL UTILITY LATTICE PROGRAM                        *
*                                 Julian Gale                                  *
*                       Curtin Institute for Computation                       *
*                    School of Molecular and Life Sciences                     *
*                    Curtin University, Western Australia                      *
********************************************************************************
* Version = 5.2.0 * Last modified =  10th September 2020                       *
********************************************************************************
* Zirconia doped with calcium                                                  *
*  optimise     - perform optimisation run                                     *
*  conp         - constant pressure calculation                                *
*  property     - calculate properties for final geometry                      *
*  defect       - perform defect calculation after bulk run                    *
*  distance     - calculate distances                                          *
*  compare      - compare initial and final structures                         *
********************************************************************************
* Zirconia doped with calcium                                                  *
********************************************************************************


  Job Started  at 12:13.00 14th October    2020                               

  Number of CPUs =     1


  Total number of configurations input =      1

********************************************************************************
*  Input for Configuration =   1 : ZrO2                                        *
********************************************************************************

  Formula = ZrO2                                                        

  Number of irreducible atoms/shells =       4


  Total number atoms/shells =       6

  Dimensionality = 3               :  Bulk   


  Symmetry :

  Crystal family                   :  Cubic       
  Crystal class  (Groth - 1921)    :  Cubic Hexakisoctahedral              

  Space group (centrosymmetric)    :  F M 3 M         

  Patterson group                  :  F m -3 m 

  Cartesian lattice vectors (Angstroms) :

        0.000000    2.535000    2.535000
        2.535000    0.000000    2.535000
        2.535000    2.535000    0.000000

  Primitive cell parameters :            Full cell parameters :

  a =   3.5850    alpha =  60.0000       a =   5.0700    alpha =  90.0000
  b =   3.5850    beta  =  60.0000       b =   5.0700    beta  =  90.0000
  c =   3.5850    gamma =  60.0000       c =   5.0700    gamma =  90.0000

  Initial volumes (Angstroms**3):

  Primitive cell =          32.580961    Full cell =         130.323843

  Temperature of configuration =   0.00     K 

  Pressure of configuration =         0.000 GPa 

  Fractional coordinates of asymmetric unit :

--------------------------------------------------------------------------------
   No.  Atomic       x           y          z         Charge      Occupancy
        Label      (Frac)      (Frac)     (Frac)        (e)         (Frac)  
--------------------------------------------------------------------------------
      1 Zr    c    0.000000    0.000000    0.000000     2.65000    1.000000    
      2 O     c    0.250000    0.250000    0.250000     0.07700    1.000000    
      3 Zr    s    0.000000    0.000000    0.000000     1.35000    1.000000    
      4 O     s    0.250000    0.250000    0.250000    -2.07700    1.000000    
--------------------------------------------------------------------------------


  Constraints : 

--------------------------------------------------------------------------------
  Constraint no.      Unconstrained     Constrained    Coefficient    Offset
                         Variable         Variable
--------------------------------------------------------------------------------
           1              Strain 1        Strain 2       1.00000      0.0000
           2              Strain 1        Strain 3       1.00000      0.0000
--------------------------------------------------------------------------------


  Distance calculation :


  Cutoff for distances  =      4.000000 Angstroms

--------------------------------------------------------------------------------
  Asymmetric unit site  Full lattice sites    No.  Distance      No.  Distance
      No.   At.No.            At.No.                (Angs)             (Angs) 
--------------------------------------------------------------------------------
       1   Zr    core        Zr    core        12    3.5850
                             Zr    shell       12    3.5850
                             O     core         8    2.1954
                             O     shell        8    2.1954
--------------------------------------------------------------------------------
       2   O     core        Zr    core         4    2.1954
                             Zr    shell        4    2.1954
                             O     core         6    2.5350       12    3.5850
                             O     shell        6    2.5350       12    3.5850
--------------------------------------------------------------------------------
       3   Zr    shell       Zr    core        12    3.5850
                             Zr    shell       12    3.5850
                             O     core         8    2.1954
                             O     shell        8    2.1954
--------------------------------------------------------------------------------
       4   O     shell       Zr    core         4    2.1954
                             Zr    shell        4    2.1954
                             O     core         6    2.5350       12    3.5850
                             O     shell        6    2.5350       12    3.5850
--------------------------------------------------------------------------------



********************************************************************************
*  General input information                                                   *
********************************************************************************

  Species output for all configurations : 

--------------------------------------------------------------------------------
  Species    Type    Atomic    Atomic    Charge       Radii (Angs)     Library
                     Number     Mass       (e)     Cova   Ionic  VDW   Symbol
--------------------------------------------------------------------------------
    Zr       Core       40      91.22   2.650000   1.560  0.000  2.330          
    Zr       Shell      40       0.00   1.350000   1.560  0.000  2.330          
    O        Core        8      16.00   0.077000   0.730  0.000  1.360          
    O        Shell       8       0.00  -2.077000   0.730  0.000  1.360          
--------------------------------------------------------------------------------


  Lattice summation method               =    Ewald          (3-D)
                                         =    Parry          (2-D)
                                         =    Saunders et al (1-D)
  Accuracy factor for lattice sums       =   12.000


  Analytic derivatives to be used

  Time limit = Infinity

  Maximum range for interatomic potentials =    100000.000000 Angstroms

  General interatomic potentials :

--------------------------------------------------------------------------------
Atom  Types   Potential      Parameter       Value         Units   Cutoffs(Ang)
  1     2                                                            Min /  Max 
--------------------------------------------------------------------------------
O    s Zr   s Buckingham    Buckingham A     985.86900    eV        0.000 12.000
                            Buckingham rho  0.37600000    Ang       
                            Buckingham C     0.0000000    eV*Ang^6  
--------------------------------------------------------------------------------
O    s O    s Buckingham    Buckingham A     22764.300    eV        0.000 12.000
                            Buckingham rho  0.14900000    Ang       
                            Buckingham C     27.890000    eV*Ang^6  
--------------------------------------------------------------------------------
Zr   c Zr   s Spring (c-s)  Spring k 2       169.61700    eV*Ang^-2 0.000  0.800
                            Spring k 4       0.0000000    eV*Ang^-4 
--------------------------------------------------------------------------------
O    c O    s Spring (c-s)  Spring k 2       27.290000    eV*Ang^-2 0.000  0.800
                            Spring k 4       0.0000000    eV*Ang^-4 
--------------------------------------------------------------------------------

********************************************************************************
*  Output for configuration   1 : ZrO2                                         *
********************************************************************************


  Components of energy : 

--------------------------------------------------------------------------------
  Interatomic potentials     =          22.43756329 eV    
  Monopole - monopole (real) =         -15.67991073 eV    
  Monopole - monopole (recip)=        -116.52038266 eV    
  Monopole - monopole (total)=        -132.20029339 eV    
--------------------------------------------------------------------------------
  Total lattice energy : 
    Primitive unit cell      =        -109.76273010 eV    
    Non-primitive unit cell  =        -439.05092039 eV    
--------------------------------------------------------------------------------
  Total lattice energy (in kJmol-1): 
    Primitive unit cell      =          -10590.4256 kJ/(mole unit cells)
    Non-primitive unit cell  =          -42361.7023 kJ/(mole unit cells)
--------------------------------------------------------------------------------


  Number of variables =        1

  Maximum number of calculations  =          1000
  Maximum Hessian update interval =            10
  Maximum step size               =   1.000000000
  Maximum parameter tolerance     =   0.000010000
  Maximum function  tolerance     =   0.000010000
  Maximum gradient  tolerance     =   0.001000000
  Maximum gradient  component     =   0.010000000

  Symmetry constrained optimisation

  Symmetry used for second derivatives

  Cell parameters to be optimised using strains

  Newton-Raphson optimiser to be used

  BFGS hessian update to be used

  Lower half triangular hessian to be used

  Start of bulk optimisation :

  Cycle:      0 Energy:      -109.762730  Gnorm:      0.588311  CPU:    0.006
  ** Hessian calculated **
  Cycle:      1 Energy:      -109.763059  Gnorm:      0.000316  CPU:    0.009


  **** Optimisation achieved ****


  Final energy =    -109.76305939 eV
  Final Gnorm  =       0.00000099

  Components of energy : 

--------------------------------------------------------------------------------
  Interatomic potentials     =          22.28919976 eV    
  Monopole - monopole (real) =         -15.66235280 eV    
  Monopole - monopole (recip)=        -116.38990634 eV    
  Monopole - monopole (total)=        -132.05225914 eV    
--------------------------------------------------------------------------------
  Total lattice energy : 
    Primitive unit cell      =        -109.76305939 eV    
    Non-primitive unit cell  =        -439.05223754 eV    
--------------------------------------------------------------------------------
  Total lattice energy (in kJmol-1): 
    Primitive unit cell      =          -10590.4573 kJ/(mole unit cells)
    Non-primitive unit cell  =          -42361.8294 kJ/(mole unit cells)
--------------------------------------------------------------------------------

  Final asymmetric unit coordinates :

--------------------------------------------------------------------------------
   No.  Atomic        x           y           z         Radius
        Label       (Frac)      (Frac)      (Frac)       (Angs) 
--------------------------------------------------------------------------------
     1  Zr    c     0.000000    0.000000    0.000000    0.000000
     2  O     c     0.250000    0.250000    0.250000    0.000000
     3  Zr    s     0.000000    0.000000    0.000000    0.000000
     4  O     s     0.250000    0.250000    0.250000    0.000000
--------------------------------------------------------------------------------

  Final Cartesian lattice vectors (Angstroms) :

        0.000000    2.537842    2.537842
        2.537842    0.000000    2.537842
        2.537842    2.537842    0.000000


  Final cell parameters and derivatives :

--------------------------------------------------------------------------------
       a            3.589050 Angstrom     dE/de1(xx)    -0.000001 eV/strain
       b            3.589050 Angstrom     dE/de2(yy)     0.000000 eV/strain
       c            3.589050 Angstrom     dE/de3(zz)     0.000000 eV/strain
       alpha       60.000000 Degrees      dE/de4(yz)     0.000000 eV/strain
       beta        60.000000 Degrees      dE/de5(xz)     0.000000 eV/strain
       gamma       60.000000 Degrees      dE/de6(xy)     0.000000 eV/strain
--------------------------------------------------------------------------------

  Primitive cell volume =            32.690656 Angs**3

  Density of cell =      6.259124 g/cm**3

  Non-primitive lattice parameters :

  a    =     5.075684  b   =     5.075684  c    =     5.075684
  alpha=    90.000000  beta=    90.000000  gamma=    90.000000

  Non-primitive cell volume =           130.762624 Angs**3


  Final internal derivatives :

--------------------------------------------------------------------------------
   No.  Atomic          a             b             c           Radius
        Label          (eV)          (eV)          (eV)        (eV/Angs)
--------------------------------------------------------------------------------
      1 Zr    c       0.000000      0.000000      0.000000      0.000000
      2 O     c       0.000000      0.000000      0.000000      0.000000
      3 Zr    s       0.000000      0.000000      0.000000      0.000000
      4 O     s       0.000000      0.000000      0.000000      0.000000
--------------------------------------------------------------------------------
  Maximum abs         0.000000      0.000000      0.000000      0.000000
--------------------------------------------------------------------------------

  Comparison of initial and final structures : 

--------------------------------------------------------------------------------
  Parameter   Initial value   Final value   Difference    Units      Percent
--------------------------------------------------------------------------------
    Volume       130.323843    130.762624     0.438781    Angs**3      0.34
    a              5.070000      5.075684     0.005684    Angstroms    0.11
    b              5.070000      5.075684     0.005684    Angstroms    0.11
    c              5.070000      5.075684     0.005684    Angstroms    0.11
    alpha         90.000000     90.000000     0.000000    Degrees      0.00
    beta          90.000000     90.000000     0.000000    Degrees      0.00
    gamma         90.000000     90.000000     0.000000    Degrees      0.00
      1 x          0.000000      0.000000     0.000000    Fractional   0.00
      1 y          0.000000      0.000000     0.000000    Fractional   0.00
      1 z          0.000000      0.000000     0.000000    Fractional   0.00
      2 x          0.250000      0.250000     0.000000    Fractional   0.00
      2 y          0.250000      0.250000     0.000000    Fractional   0.00
      2 z          0.250000      0.250000     0.000000    Fractional   0.00
      3 x          0.000000      0.000000     0.000000    Fractional   0.00
      3 y          0.000000      0.000000     0.000000    Fractional   0.00
      3 z          0.000000      0.000000     0.000000    Fractional   0.00
      4 x          0.250000      0.250000     0.000000    Fractional   0.00
      4 y          0.250000      0.250000     0.000000    Fractional   0.00
      4 z          0.250000      0.250000     0.000000    Fractional   0.00
--------------------------------------------------------------------------------


  Distance calculation :


  Cutoff for distances  =      4.000000 Angstroms

--------------------------------------------------------------------------------
  Asymmetric unit site  Full lattice sites    No.  Distance      No.  Distance
      No.   At.No.            At.No.                (Angs)             (Angs) 
--------------------------------------------------------------------------------
       1   Zr    core        Zr    core        12    3.5891
                             Zr    shell       12    3.5891
                             O     core         8    2.1978
                             O     shell        8    2.1978
--------------------------------------------------------------------------------
       2   O     core        Zr    core         4    2.1978
                             Zr    shell        4    2.1978
                             O     core         6    2.5378       12    3.5891
                             O     shell        6    2.5378       12    3.5891
--------------------------------------------------------------------------------
       3   Zr    shell       Zr    core        12    3.5891
                             Zr    shell       12    3.5891
                             O     core         8    2.1978
                             O     shell        8    2.1978
--------------------------------------------------------------------------------
       4   O     shell       Zr    core         4    2.1978
                             Zr    shell        4    2.1978
                             O     core         6    2.5378       12    3.5891
                             O     shell        6    2.5378       12    3.5891
--------------------------------------------------------------------------------



  Born effective charge tensors : 

-------------------------------------------------------------------------------
  Atom             x           y             z
-------------------------------------------------------------------------------
    1 Zr    x       3.6770      0.0000      0.0000
            y       0.0000      3.6770      0.0000
            z       0.0000      0.0000      3.6770
-------------------------------------------------------------------------------
    2 O     x      -1.8385      0.0000      0.0000
            y       0.0000     -1.8385     -0.0000
            z       0.0000     -0.0000     -1.8385
-------------------------------------------------------------------------------




  Elastic Constant Matrix: (Units=GPa)

-------------------------------------------------------------------------------
  Indices      1         2         3         4         5         6    
-------------------------------------------------------------------------------
       1    616.2933  119.6612  119.6612   -0.0000   -0.0000   -0.0000
       2    119.6612  616.2933  119.6612   -0.0000   -0.0000   -0.0000
       3    119.6612  119.6612  616.2933   -0.0000   -0.0000   -0.0000
       4     -0.0000   -0.0000   -0.0000  100.8598    0.0000   -0.0000
       5     -0.0000   -0.0000   -0.0000    0.0000  100.8598    0.0000
       6     -0.0000   -0.0000   -0.0000   -0.0000    0.0000  100.8598
-------------------------------------------------------------------------------


  Elastic Compliance Matrix: (Units=1/GPa)

-------------------------------------------------------------------------------
  Indices      1         2         3         4         5         6    
-------------------------------------------------------------------------------
       1    0.001732 -0.000282 -0.000282  0.000000  0.000000  0.000000
       2   -0.000282  0.001732 -0.000282 -0.000000  0.000000  0.000000
       3   -0.000282 -0.000282  0.001732  0.000000  0.000000  0.000000
       4    0.000000 -0.000000  0.000000  0.009915 -0.000000  0.000000
       5    0.000000  0.000000  0.000000 -0.000000  0.009915 -0.000000
       6    0.000000  0.000000  0.000000  0.000000 -0.000000  0.009915
-------------------------------------------------------------------------------

  Mechanical properties :

-------------------------------------------------------------------------------
  Convention :                    Reuss         Voigt         Hill
-------------------------------------------------------------------------------
  Bulk  Modulus (GPa)     =     285.20524     285.20524     285.20524
  Shear Modulus (GPa)     =     132.28031     159.84228     146.06129
-------------------------------------------------------------------------------
  Velocity S-wave (km/s)  =       4.59717       5.05346       4.83071
  Velocity P-wave (km/s)  =       8.58749       8.92280       8.75675
-------------------------------------------------------------------------------
  Compressibility (1/GPa) =    0.00350625
-------------------------------------------------------------------------------
  Stress axis :                     x             y             z
-------------------------------------------------------------------------------
  Youngs Moduli (GPa)     =     577.38110     577.38110     577.38110
-------------------------------------------------------------------------------
  Poissons Ratio (x)      =                     0.16259       0.16259
  Poissons Ratio (y)      =       0.16259                     0.16259
  Poissons Ratio (z)      =       0.16259       0.16259
-------------------------------------------------------------------------------


  Piezoelectric Strain Matrix: (Units=C/m**2)

-------------------------------------------------------------------------------
  Indices      1         2         3         4         5         6    
-------------------------------------------------------------------------------
       x    -0.00000   0.00000   0.00000   0.00000   0.00000   0.00000
       y    -0.00000  -0.00000  -0.00000   0.00000   0.00000   0.00000
       z    -0.00000  -0.00000  -0.00000   0.00000   0.00000   0.00000
-------------------------------------------------------------------------------


  Piezoelectric Stress Matrix: (Units=10**-11 C/N)

-------------------------------------------------------------------------------
  Indices      1         2         3         4         5         6    
-------------------------------------------------------------------------------
       x    -0.00000   0.00000   0.00000   0.00000   0.00000   0.00000
       y    -0.00000  -0.00000  -0.00000   0.00000   0.00000   0.00000
       z     0.00000   0.00000  -0.00000   0.00000   0.00000   0.00000
-------------------------------------------------------------------------------


  Static dielectric constant tensor : 

-------------------------------------------------------------------------------
              x         y         z
-------------------------------------------------------------------------------
       x    26.88485   0.00000   0.00000
       y     0.00000  26.88485   0.00000
       z     0.00000   0.00000  26.88485
--------------------------------------------------------------------------------

  High frequency dielectric constant tensor : 

-------------------------------------------------------------------------------
              x         y         z
-------------------------------------------------------------------------------
       x     2.63099   0.00000   0.00000
       y     0.00000   2.63099   0.00000
       z     0.00000   0.00000   2.63099
-------------------------------------------------------------------------------

  Static refractive indices : 

-------------------------------------------------------------------------------
    1 =    5.18506      2 =    5.18506      3 =    5.18506
-------------------------------------------------------------------------------

  High frequency refractive indices : 

-------------------------------------------------------------------------------
    1 =    1.62203      2 =    1.62203      3 =    1.62203
-------------------------------------------------------------------------------


  Time to end of optimisation =       0.0147 seconds

********************************************************************************
*  Defect calculation for configuration   1 :                                  *
********************************************************************************

  Total number of defects =      3

  Total charge on defect  =   2.00

  Defect centre is at   0.3900   0.2500   0.2500  Frac

  Region 1 radius =  12.0000      Number of ions =   1330

  Number of symmetry inequivalent region 1 ions  =    412

  Region 2 radius =  24.0000      Number of ions =   9282

  Number of symmetry inequivalent region 2a ions =   2546

  Region 2a mode = 4 : screened electrostatics due to region 1 
                       neglect correction to region 1 forces from 2a
                       region 2a displacements based on defects only

  Region 2a ions will only interact with defects in region 1

  Vacancies:

--------------------------------------------------------------------------------
    Specification type     Symbol/Number         x          y          z
--------------------------------------------------------------------------------
    Fractional                               0.250000   0.250000   0.250000
    Fractional                               0.750000   0.250000   0.250000
--------------------------------------------------------------------------------

  Interstitials:

--------------------------------------------------------------------------------
    Specification type     Symbol/Number         x          y          z
--------------------------------------------------------------------------------
    Atom/Fractional         O                0.390000   0.250000   0.250000
--------------------------------------------------------------------------------


  Symmetry reduced region 1 (Relative to defect centre) :

--------------------------------------------------------------------------------
   No.   Atomic       x            y             z       Radius  Multiplicity   
         Label      (Angs)       (Angs)        (Angs)    (Angs)     
--------------------------------------------------------------------------------
     1  O     c      0.0000       0.0000       0.0000    0.0000     1    Defect
     2  Zr    c      0.5583 *     1.2689 *    -1.2689    0.0000     2          
     3  O     c     -0.7106 *    -0.0000 *     2.5378 *  0.0000     4          
     4  Zr    c     -1.9795 *    -1.2689 *    -1.2689    0.0000     2          
     5  O     c      1.8272 *     0.0000 *    -2.5378 *  0.0000     4          
     6  O     c     -3.2484 *    -0.0000      -0.0000    0.0000     1          
     7  Zr    c      3.0962 *     1.2689 *     1.2689    0.0000     2          
     8  O     c     -0.7106 *     2.5378 *     2.5378    0.0000     2          
     9  O     c     -0.7106 *    -2.5378 *     2.5378    0.0000     2          
    10  O     c      1.8272 *     2.5378 *     2.5378    0.0000     2          
    11  O     c      1.8272 *    -2.5378 *     2.5378    0.0000     2          
    12  Zr    c      0.5583 *     1.2689 *     3.8068 *  0.0000     4          
    13  O     c     -3.2484 *    -2.5378 *     0.0000 *  0.0000     4          
    14  O     c      4.3651 *     0.0000       0.0000    0.0000     1          
    15  Zr    c     -1.9795 *    -3.8068 *     1.2689 *  0.0000     4          
    16  O     c     -3.2484 *     2.5378 *     2.5378    0.0000     2          
    17  O     c     -3.2484 *    -2.5378 *     2.5378    0.0000     2          
    18  Zr    c     -4.5174 *    -1.2689 *     1.2689    0.0000     2          
    19  O     c      4.3651 *     2.5378 *    -0.0000 *  0.0000     4          
    20  Zr    c      3.0962 *     3.8068 *    -1.2689 *  0.0000     4          
    21  O     c     -0.7106 *    -5.0757 *     0.0000 *  0.0000     4          
    22  O     c      1.8272 *    -0.0000 *     5.0757 *  0.0000     4          
    23  Zr    c      0.5583 *    -3.8068 *     3.8068    0.0000     2          
    24  O     c      4.3651 *     2.5378 *    -2.5378    0.0000     2          
    25  O     c      4.3651 *     2.5378 *     2.5378    0.0000     2          
    26  O     c     -0.7106 *     5.0757 *     2.5378 *  0.0000     4          
    27  O     c     -0.7106 *    -2.5378 *     5.0757 *  0.0000     4          
    28  Zr    c     -1.9795 *     3.8068 *     3.8068    0.0000     2          
    29  O     c     -5.7863 *     0.0000       0.0000    0.0000     1          
    30  Zr    c      5.6340 *     1.2689 *    -1.2689    0.0000     2          
    31  O     c      1.8272 *    -5.0757 *     2.5378 *  0.0000     4          
    32  O     c      1.8272 *     5.0757 *     2.5378 *  0.0000     4          
    33  O     c     -3.2484 *    -0.0000 *     5.0757 *  0.0000     4          
    34  Zr    c     -4.5174 *     3.8068 *     1.2689 *  0.0000     4          
    35  Zr    c      3.0962 *     3.8068 *     3.8068    0.0000     2          
    36  O     c     -5.7863 *    -0.0000 *     2.5378 *  0.0000     4          
    37  Zr    c      0.5583 *    -1.2689 *     6.3446 *  0.0000     4          
    38  O     c     -3.2484 *     2.5378 *     5.0757 *  0.0000     4          
    39  O     c     -3.2484 *    -5.0757 *     2.5378 *  0.0000     4          
    40  O     c      4.3651 *     5.0757 *     0.0000 *  0.0000     4          
    41  Zr    c     -1.9795 *     1.2689 *     6.3446 *  0.0000     4          
    42  O     c     -5.7863 *     2.5378 *     2.5378    0.0000     2          
    43  O     c     -5.7863 *    -2.5378 *     2.5378    0.0000     2          
    44  O     c      6.9029 *    -0.0000      -0.0000    0.0000     1          
    45  Zr    c      5.6340 *    -1.2689 *    -3.8068 *  0.0000     4          
    46  Zr    c     -4.5174 *     3.8068 *    -3.8068    0.0000     2          
    47  O     c      4.3651 *     5.0757 *     2.5378 *  0.0000     4          
    48  O     c      4.3651 *    -2.5378 *     5.0757 *  0.0000     4          
    49  Zr    c      3.0962 *     1.2689 *     6.3446 *  0.0000     4          
    50  O     c     -0.7106 *     5.0757 *     5.0757    0.0000     2          
    51  O     c     -0.7106 *    -5.0757 *     5.0757    0.0000     2          
    52  Zr    c     -7.0552 *     1.2689 *     1.2689    0.0000     2          
    53  O     c      6.9029 *     2.5378 *     0.0000 *  0.0000     4          
    54  O     c      1.8272 *     5.0757 *     5.0757    0.0000     2          
    55  O     c      1.8272 *    -5.0757 *     5.0757    0.0000     2          
    56  Zr    c      0.5583 *     3.8068 *     6.3446 *  0.0000     4          
    57  O     c     -0.7106 *    -0.0000 *     7.6135 *  0.0000     4          
    58  Zr    c     -1.9795 *     3.8068 *    -6.3446 *  0.0000     4          
    59  O     c     -5.7863 *     5.0757 *     0.0000 *  0.0000     4          
    60  O     c      6.9029 *     2.5378 *     2.5378    0.0000     2          
    61  O     c      6.9029 *     2.5378 *    -2.5378    0.0000     2          
    62  Zr    c      5.6340 *     3.8068 *    -3.8068    0.0000     2          
    63  O     c      1.8272 *     0.0000 *     7.6135 *  0.0000     4          
    64  O     c     -3.2484 *     5.0757 *     5.0757    0.0000     2          
    65  O     c     -3.2484 *     5.0757 *    -5.0757    0.0000     2          
    66  Zr    c     -4.5174 *    -6.3446 *     1.2689 *  0.0000     4          
    67  Zr    c      3.0962 *    -3.8068 *     6.3446 *  0.0000     4          
    68  O     c     -0.7106 *    -7.6135 *     2.5378 *  0.0000     4          
    69  O     c     -0.7106 *     2.5378 *     7.6135 *  0.0000     4          
    70  O     c     -5.7863 *    -2.5378 *     5.0757 *  0.0000     4          
    71  O     c     -5.7863 *     2.5378 *     5.0757 *  0.0000     4          
    72  Zr    c     -7.0552 *     3.8068 *    -1.2689 *  0.0000     4          
    73  O     c      1.8272 *     7.6135 *     2.5378 *  0.0000     4          
    74  O     c      1.8272 *    -2.5378 *     7.6135 *  0.0000     4          
    75  O     c     -3.2484 *    -7.6135 *     0.0000 *  0.0000     4          
    76  O     c     -8.3241 *    -0.0000      -0.0000    0.0000     1          
    77  Zr    c      8.1719 *     1.2689 *     1.2689    0.0000     2          
    78  O     c      4.3651 *    -5.0757 *     5.0757    0.0000     2          
    79  O     c      4.3651 *     5.0757 *     5.0757    0.0000     2          
    80  O     c      6.9029 *     5.0757 *    -0.0000 *  0.0000     4          
    81  Zr    c      5.6340 *     6.3446 *    -1.2689 *  0.0000     4          
    82  O     c     -3.2484 *    -2.5378 *     7.6135 *  0.0000     4          
    83  O     c     -3.2484 *     2.5378 *     7.6135 *  0.0000     4          
    84  Zr    c     -4.5174 *     3.8068 *     6.3446 *  0.0000     4          
    85  O     c     -8.3241 *    -2.5378 *     0.0000 *  0.0000     4          
    86  O     c      4.3651 *    -0.0000 *     7.6135 *  0.0000     4          
    87  Zr    c     -7.0552 *     3.8068 *     3.8068    0.0000     2          
    88  O     c      6.9029 *    -2.5378 *     5.0757 *  0.0000     4          
    89  O     c      6.9029 *     2.5378 *     5.0757 *  0.0000     4          
    90  Zr    c      0.5583 *    -6.3446 *     6.3446    0.0000     2          
    91  Zr    c      0.5583 *     1.2689 *     8.8824 *  0.0000     4          
    92  O     c     -8.3241 *    -2.5378 *    -2.5378    0.0000     2          
    93  O     c     -8.3241 *    -2.5378 *     2.5378    0.0000     2          
    94  Zr    c      8.1719 *     3.8068 *    -1.2689 *  0.0000     4          
    95  O     c      4.3651 *    -2.5378 *     7.6135 *  0.0000     4          
    96  O     c      4.3651 *     7.6135 *     2.5378 *  0.0000     4          
    97  O     c     -0.7106 *     5.0757 *     7.6135 *  0.0000     4          
    98  O     c     -0.7106 *    -5.0757 *     7.6135 *  0.0000     4          
    99  Zr    c     -1.9795 *     8.8824 *    -1.2689 *  0.0000     4          
   100  Zr    c     -1.9795 *     6.3446 *     6.3446    0.0000     2          
   101  O     c     -5.7863 *     5.0757 *     5.0757    0.0000     2          
   102  O     c     -5.7863 *    -5.0757 *     5.0757    0.0000     2          
   103  Zr    c      5.6340 *     6.3446 *     3.8068 *  0.0000     4          
   104  O     c      1.8272 *    -7.6135 *     5.0757 *  0.0000     4          
   105  O     c      1.8272 *     5.0757 *     7.6135 *  0.0000     4          
   106  O     c      9.4408 *     0.0000       0.0000    0.0000     1          
   107  Zr    c      3.0962 *    -1.2689 *     8.8824 *  0.0000     4          
   108  Zr    c      3.0962 *     6.3446 *     6.3446    0.0000     2          
   109  O     c     -5.7863 *    -0.0000 *     7.6135 *  0.0000     4          
   110  Zr    c     -7.0552 *    -6.3446 *    -1.2689 *  0.0000     4          
   111  Zr    c      0.5583 *     8.8824 *    -3.8068 *  0.0000     4          
   112  O     c     -3.2484 *     5.0757 *    -7.6135 *  0.0000     4          
   113  O     c     -3.2484 *     5.0757 *     7.6135 *  0.0000     4          
   114  O     c     -8.3241 *    -0.0000 *     5.0757 *  0.0000     4          
   115  Zr    c     -9.5930 *    -1.2689 *     1.2689    0.0000     2          
   116  O     c      9.4408 *     2.5378 *    -0.0000 *  0.0000     4          
   117  Zr    c      8.1719 *     3.8068 *     3.8068    0.0000     2          
   118  Zr    c     -1.9795 *     3.8068 *     8.8824 *  0.0000     4          
   119  O     c     -5.7863 *     2.5378 *     7.6135 *  0.0000     4          
   120  O     c     -5.7863 *    -7.6135 *     2.5378 *  0.0000     4          
   121  O     c      6.9029 *     5.0757 *     5.0757    0.0000     2          
   122  O     c      6.9029 *    -5.0757 *     5.0757    0.0000     2          
   123  Zr    c     -4.5174 *     6.3446 *    -6.3446    0.0000     2          
   124  Zr    c     -4.5174 *     1.2689 *     8.8824 *  0.0000     4          
   125  O     c     -8.3241 *    -2.5378 *    -5.0757 *  0.0000     4          
   126  O     c     -8.3241 *     2.5378 *    -5.0757 *  0.0000     4          
   127  O     c      9.4408 *     2.5378 *     2.5378    0.0000     2          
   128  O     c      9.4408 *     2.5378 *    -2.5378    0.0000     2          
   129  O     c      4.3651 *     7.6135 *     5.0757 *  0.0000     4          
   130  O     c      4.3651 *    -5.0757 *     7.6135 *  0.0000     4          
   131  Zr    c      3.0962 *     8.8824 *     3.8068 *  0.0000     4          
   132  O     c     -0.7106 *    -0.0000 *    10.1514 *  0.0000     4          
   133  Zr    c     -7.0552 *     3.8068 *    -6.3446 *  0.0000     4          
   134  O     c      6.9029 *     7.6135 *     0.0000 *  0.0000     4          
   135  O     c      1.8272 *    -0.0000 *    10.1514 *  0.0000     4          
   136  Zr    c     -9.5930 *    -1.2689 *    -3.8068 *  0.0000     4          
   137  Zr    c      8.1719 *     6.3446 *     1.2689 *  0.0000     4          
   138  O     c     -0.7106 *    -2.5378 *    10.1514 *  0.0000     4          
   139  O     c     -0.7106 *     2.5378 *    10.1514 *  0.0000     4          
   140  O     c      6.9029 *     7.6135 *    -2.5378 *  0.0000     4          
   141  O     c      6.9029 *     7.6135 *     2.5378 *  0.0000     4          
   142  Zr    c      5.6340 *     8.8824 *     1.2689 *  0.0000     4          
   143  Zr    c      5.6340 *    -6.3446 *     6.3446    0.0000     2          
   144  O     c      1.8272 *     2.5378 *    10.1514 *  0.0000     4          
   145  O     c      1.8272 *    -2.5378 *    10.1514 *  0.0000     4          
   146  O     c     -3.2484 *    10.1514 *    -0.0000 *  0.0000     4          
   147  Zr    c     -4.5174 *    -8.8824 *     3.8068 *  0.0000     4          
   148  O     c      9.4408 *     0.0000 *    -5.0757 *  0.0000     4          
   149  O     c     -0.7106 *    -7.6135 *     7.6135    0.0000     2          
   150  O     c     -0.7106 *     7.6135 *     7.6135    0.0000     2          
   151  O     c     -5.7863 *     5.0757 *     7.6135 *  0.0000     4          
   152  O     c     -5.7863 *     7.6135 *    -5.0757 *  0.0000     4          
   153  Zr    c     10.7097 *     1.2689 *    -1.2689    0.0000     2          
   154  O     c    -10.8620 *    -0.0000       0.0000    0.0000     1          
   155  O     c      1.8272 *     7.6135 *     7.6135    0.0000     2          
   156  O     c      1.8272 *    -7.6135 *     7.6135    0.0000     2          
   157  Zr    c      0.5583 *     8.8824 *     6.3446 *  0.0000     4          
   158  O     c     -3.2484 *     2.5378 *   -10.1514 *  0.0000     4          
   159  O     c     -3.2484 *     2.5378 *    10.1514 *  0.0000     4          
   160  O     c     -8.3241 *     5.0757 *     5.0757    0.0000     2          
   161  O     c     -8.3241 *    -5.0757 *     5.0757    0.0000     2          
   162  Zr    c     -9.5930 *    -3.8068 *     3.8068    0.0000     2          
   163  O     c      9.4408 *     5.0757 *     2.5378 *  0.0000     4          
   164  O     c      9.4408 *     5.0757 *    -2.5378 *  0.0000     4          
   165  Zr    c      8.1719 *     6.3446 *    -3.8068 *  0.0000     4          
   166  O     c      4.3651 *     0.0000 *    10.1514 *  0.0000     4          
   167  Zr    c     -1.9795 *     6.3446 *    -8.8824 *  0.0000     4          
   168  O     c    -10.8620 *    -2.5378 *    -0.0000 *  0.0000     4          
   169  Zr    c      5.6340 *    -3.8068 *     8.8824 *  0.0000     4          
   170  O     c     -3.2484 *     7.6135 *     7.6135    0.0000     2          
   171  O     c     -3.2484 *    -7.6135 *     7.6135    0.0000     2          
   172  O     c     -8.3241 *    -7.6135 *     0.0000 *  0.0000     4          
   173  O     c      4.3651 *    -2.5378 *    10.1514 *  0.0000     4          
   174  O     c      4.3651 *     2.5378 *    10.1514 *  0.0000     4          
   175  Zr    c      3.0962 *    -6.3446 *     8.8824 *  0.0000     4          
   176  O     c     -0.7106 *   -10.1514 *     5.0757 *  0.0000     4          
   177  O     c     -0.7106 *     5.0757 *    10.1514 *  0.0000     4          
   178  Zr    c     -7.0552 *     6.3446 *     6.3446    0.0000     2          
   179  Zr    c     -7.0552 *    -8.8824 *     1.2689 *  0.0000     4          
   180  Zr    c     10.7097 *     1.2689 *     3.8068 *  0.0000     4          
   181  O     c    -10.8620 *    -2.5378 *     2.5378    0.0000     2          
   182  O     c    -10.8620 *     2.5378 *     2.5378    0.0000     2          
   183  O     c      6.9029 *     7.6135 *    -5.0757 *  0.0000     4          
   184  O     c      6.9029 *     7.6135 *     5.0757 *  0.0000     4          
   185  O     c      1.8272 *     5.0757 *    10.1514 *  0.0000     4          
   186  O     c      1.8272 *    -5.0757 *    10.1514 *  0.0000     4          
   187  Zr    c      0.5583 *    -1.2689 *    11.4203 *  0.0000     4          
   188  O     c     -8.3241 *     7.6135 *     2.5378 *  0.0000     4          
   189  O     c     -8.3241 *    -7.6135 *     2.5378 *  0.0000     4          
   190  Zr    c     -9.5930 *     1.2689 *    -6.3446 *  0.0000     4          
   191  O     c      4.3651 *    -7.6135 *     7.6135    0.0000     2          
   192  O     c      4.3651 *     7.6135 *     7.6135    0.0000     2          
   193  Zr    c     -1.9795 *     1.2689 *    11.4203 *  0.0000     4          
   194  O     c     -5.7863 *     0.0000 *   -10.1514 *  0.0000     4          
   195  O     c     -3.2484 *    10.1514 *    -5.0757 *  0.0000     4          
   196  O     c     -3.2484 *     5.0757 *    10.1514 *  0.0000     4          
   197  Zr    c     -4.5174 *     6.3446 *     8.8824 *  0.0000     4          
   198  O     c      9.4408 *    -5.0757 *    -5.0757    0.0000     2          
   199  O     c      9.4408 *     5.0757 *    -5.0757    0.0000     2          
   200  Zr    c      3.0962 *     1.2689 *    11.4203 *  0.0000     4          
   201  O     c     -5.7863 *    10.1514 *     2.5378 *  0.0000     4          
   202  O     c     -5.7863 *    -2.5378 *    10.1514 *  0.0000     4          
   203  Zr    c     -7.0552 *     3.8068 *     8.8824 *  0.0000     4          
   204  O     c     11.9786 *    -0.0000      -0.0000    0.0000     1          
   205  Zr    c     10.7097 *     3.8068 *    -3.8068    0.0000     2          
   206  O     c    -10.8620 *    -5.0757 *     0.0000 *  0.0000     4          
   207  O     s      0.0000       0.0000       0.0000    0.0000     1    Defect
   208  Zr    s      0.5583 *     1.2689 *    -1.2689    0.0000     2          
   209  O     s     -0.7106 *    -0.0000 *     2.5378 *  0.0000     4          
   210  Zr    s     -1.9795 *    -1.2689 *    -1.2689    0.0000     2          
   211  O     s      1.8272 *     0.0000 *    -2.5378 *  0.0000     4          
   212  O     s     -3.2484 *    -0.0000      -0.0000    0.0000     1          
   213  Zr    s      3.0962 *     1.2689 *     1.2689    0.0000     2          
   214  O     s     -0.7106 *     2.5378 *     2.5378    0.0000     2          
   215  O     s     -0.7106 *    -2.5378 *     2.5378    0.0000     2          
   216  O     s      1.8272 *     2.5378 *     2.5378    0.0000     2          
   217  O     s      1.8272 *    -2.5378 *     2.5378    0.0000     2          
   218  Zr    s      0.5583 *     1.2689 *     3.8068 *  0.0000     4          
   219  O     s     -3.2484 *    -2.5378 *     0.0000 *  0.0000     4          
   220  O     s      4.3651 *     0.0000       0.0000    0.0000     1          
   221  Zr    s     -1.9795 *    -3.8068 *     1.2689 *  0.0000     4          
   222  O     s     -3.2484 *     2.5378 *     2.5378    0.0000     2          
   223  O     s     -3.2484 *    -2.5378 *     2.5378    0.0000     2          
   224  Zr    s     -4.5174 *    -1.2689 *     1.2689    0.0000     2          
   225  O     s      4.3651 *     2.5378 *    -0.0000 *  0.0000     4          
   226  Zr    s      3.0962 *     3.8068 *    -1.2689 *  0.0000     4          
   227  O     s     -0.7106 *    -5.0757 *     0.0000 *  0.0000     4          
   228  O     s      1.8272 *    -0.0000 *     5.0757 *  0.0000     4          
   229  Zr    s      0.5583 *    -3.8068 *     3.8068    0.0000     2          
   230  O     s      4.3651 *     2.5378 *    -2.5378    0.0000     2          
   231  O     s      4.3651 *     2.5378 *     2.5378    0.0000     2          
   232  O     s     -0.7106 *     5.0757 *     2.5378 *  0.0000     4          
   233  O     s     -0.7106 *    -2.5378 *     5.0757 *  0.0000     4          
   234  Zr    s     -1.9795 *     3.8068 *     3.8068    0.0000     2          
   235  O     s     -5.7863 *     0.0000       0.0000    0.0000     1          
   236  Zr    s      5.6340 *     1.2689 *    -1.2689    0.0000     2          
   237  O     s      1.8272 *    -5.0757 *     2.5378 *  0.0000     4          
   238  O     s      1.8272 *     5.0757 *     2.5378 *  0.0000     4          
   239  O     s     -3.2484 *    -0.0000 *     5.0757 *  0.0000     4          
   240  Zr    s     -4.5174 *     3.8068 *     1.2689 *  0.0000     4          
   241  Zr    s      3.0962 *     3.8068 *     3.8068    0.0000     2          
   242  O     s     -5.7863 *    -0.0000 *     2.5378 *  0.0000     4          
   243  Zr    s      0.5583 *    -1.2689 *     6.3446 *  0.0000     4          
   244  O     s     -3.2484 *     2.5378 *     5.0757 *  0.0000     4          
   245  O     s     -3.2484 *    -5.0757 *     2.5378 *  0.0000     4          
   246  O     s      4.3651 *     5.0757 *     0.0000 *  0.0000     4          
   247  Zr    s     -1.9795 *     1.2689 *     6.3446 *  0.0000     4          
   248  O     s     -5.7863 *     2.5378 *     2.5378    0.0000     2          
   249  O     s     -5.7863 *    -2.5378 *     2.5378    0.0000     2          
   250  O     s      6.9029 *    -0.0000      -0.0000    0.0000     1          
   251  Zr    s      5.6340 *    -1.2689 *    -3.8068 *  0.0000     4          
   252  Zr    s     -4.5174 *     3.8068 *    -3.8068    0.0000     2          
   253  O     s      4.3651 *     5.0757 *     2.5378 *  0.0000     4          
   254  O     s      4.3651 *    -2.5378 *     5.0757 *  0.0000     4          
   255  Zr    s      3.0962 *     1.2689 *     6.3446 *  0.0000     4          
   256  O     s     -0.7106 *     5.0757 *     5.0757    0.0000     2          
   257  O     s     -0.7106 *    -5.0757 *     5.0757    0.0000     2          
   258  Zr    s     -7.0552 *     1.2689 *     1.2689    0.0000     2          
   259  O     s      6.9029 *     2.5378 *     0.0000 *  0.0000     4          
   260  O     s      1.8272 *     5.0757 *     5.0757    0.0000     2          
   261  O     s      1.8272 *    -5.0757 *     5.0757    0.0000     2          
   262  Zr    s      0.5583 *     3.8068 *     6.3446 *  0.0000     4          
   263  O     s     -0.7106 *    -0.0000 *     7.6135 *  0.0000     4          
   264  Zr    s     -1.9795 *     3.8068 *    -6.3446 *  0.0000     4          
   265  O     s     -5.7863 *     5.0757 *     0.0000 *  0.0000     4          
   266  O     s      6.9029 *     2.5378 *     2.5378    0.0000     2          
   267  O     s      6.9029 *     2.5378 *    -2.5378    0.0000     2          
   268  Zr    s      5.6340 *     3.8068 *    -3.8068    0.0000     2          
   269  O     s      1.8272 *     0.0000 *     7.6135 *  0.0000     4          
   270  O     s     -3.2484 *     5.0757 *     5.0757    0.0000     2          
   271  O     s     -3.2484 *     5.0757 *    -5.0757    0.0000     2          
   272  Zr    s     -4.5174 *    -6.3446 *     1.2689 *  0.0000     4          
   273  Zr    s      3.0962 *    -3.8068 *     6.3446 *  0.0000     4          
   274  O     s     -0.7106 *    -7.6135 *     2.5378 *  0.0000     4          
   275  O     s     -0.7106 *     2.5378 *     7.6135 *  0.0000     4          
   276  O     s     -5.7863 *    -2.5378 *     5.0757 *  0.0000     4          
   277  O     s     -5.7863 *     2.5378 *     5.0757 *  0.0000     4          
   278  Zr    s     -7.0552 *     3.8068 *    -1.2689 *  0.0000     4          
   279  O     s      1.8272 *     7.6135 *     2.5378 *  0.0000     4          
   280  O     s      1.8272 *    -2.5378 *     7.6135 *  0.0000     4          
   281  O     s     -3.2484 *    -7.6135 *     0.0000 *  0.0000     4          
   282  O     s     -8.3241 *    -0.0000      -0.0000    0.0000     1          
   283  Zr    s      8.1719 *     1.2689 *     1.2689    0.0000     2          
   284  O     s      4.3651 *    -5.0757 *     5.0757    0.0000     2          
   285  O     s      4.3651 *     5.0757 *     5.0757    0.0000     2          
   286  O     s      6.9029 *     5.0757 *    -0.0000 *  0.0000     4          
   287  Zr    s      5.6340 *     6.3446 *    -1.2689 *  0.0000     4          
   288  O     s     -3.2484 *    -2.5378 *     7.6135 *  0.0000     4          
   289  O     s     -3.2484 *     2.5378 *     7.6135 *  0.0000     4          
   290  Zr    s     -4.5174 *     3.8068 *     6.3446 *  0.0000     4          
   291  O     s     -8.3241 *    -2.5378 *     0.0000 *  0.0000     4          
   292  O     s      4.3651 *    -0.0000 *     7.6135 *  0.0000     4          
   293  Zr    s     -7.0552 *     3.8068 *     3.8068    0.0000     2          
   294  O     s      6.9029 *    -2.5378 *     5.0757 *  0.0000     4          
   295  O     s      6.9029 *     2.5378 *     5.0757 *  0.0000     4          
   296  Zr    s      0.5583 *    -6.3446 *     6.3446    0.0000     2          
   297  Zr    s      0.5583 *     1.2689 *     8.8824 *  0.0000     4          
   298  O     s     -8.3241 *    -2.5378 *    -2.5378    0.0000     2          
   299  O     s     -8.3241 *    -2.5378 *     2.5378    0.0000     2          
   300  Zr    s      8.1719 *     3.8068 *    -1.2689 *  0.0000     4          
   301  O     s      4.3651 *    -2.5378 *     7.6135 *  0.0000     4          
   302  O     s      4.3651 *     7.6135 *     2.5378 *  0.0000     4          
   303  O     s     -0.7106 *     5.0757 *     7.6135 *  0.0000     4          
   304  O     s     -0.7106 *    -5.0757 *     7.6135 *  0.0000     4          
   305  Zr    s     -1.9795 *     8.8824 *    -1.2689 *  0.0000     4          
   306  Zr    s     -1.9795 *     6.3446 *     6.3446    0.0000     2          
   307  O     s     -5.7863 *     5.0757 *     5.0757    0.0000     2          
   308  O     s     -5.7863 *    -5.0757 *     5.0757    0.0000     2          
   309  Zr    s      5.6340 *     6.3446 *     3.8068 *  0.0000     4          
   310  O     s      1.8272 *    -7.6135 *     5.0757 *  0.0000     4          
   311  O     s      1.8272 *     5.0757 *     7.6135 *  0.0000     4          
   312  O     s      9.4408 *     0.0000       0.0000    0.0000     1          
   313  Zr    s      3.0962 *    -1.2689 *     8.8824 *  0.0000     4          
   314  Zr    s      3.0962 *     6.3446 *     6.3446    0.0000     2          
   315  O     s     -5.7863 *    -0.0000 *     7.6135 *  0.0000     4          
   316  Zr    s     -7.0552 *    -6.3446 *    -1.2689 *  0.0000     4          
   317  Zr    s      0.5583 *     8.8824 *    -3.8068 *  0.0000     4          
   318  O     s     -3.2484 *     5.0757 *    -7.6135 *  0.0000     4          
   319  O     s     -3.2484 *     5.0757 *     7.6135 *  0.0000     4          
   320  O     s     -8.3241 *    -0.0000 *     5.0757 *  0.0000     4          
   321  Zr    s     -9.5930 *    -1.2689 *     1.2689    0.0000     2          
   322  O     s      9.4408 *     2.5378 *    -0.0000 *  0.0000     4          
   323  Zr    s      8.1719 *     3.8068 *     3.8068    0.0000     2          
   324  Zr    s     -1.9795 *     3.8068 *     8.8824 *  0.0000     4          
   325  O     s     -5.7863 *     2.5378 *     7.6135 *  0.0000     4          
   326  O     s     -5.7863 *    -7.6135 *     2.5378 *  0.0000     4          
   327  O     s      6.9029 *     5.0757 *     5.0757    0.0000     2          
   328  O     s      6.9029 *    -5.0757 *     5.0757    0.0000     2          
   329  Zr    s     -4.5174 *     6.3446 *    -6.3446    0.0000     2          
   330  Zr    s     -4.5174 *     1.2689 *     8.8824 *  0.0000     4          
   331  O     s     -8.3241 *    -2.5378 *    -5.0757 *  0.0000     4          
   332  O     s     -8.3241 *     2.5378 *    -5.0757 *  0.0000     4          
   333  O     s      9.4408 *     2.5378 *     2.5378    0.0000     2          
   334  O     s      9.4408 *     2.5378 *    -2.5378    0.0000     2          
   335  O     s      4.3651 *     7.6135 *     5.0757 *  0.0000     4          
   336  O     s      4.3651 *    -5.0757 *     7.6135 *  0.0000     4          
   337  Zr    s      3.0962 *     8.8824 *     3.8068 *  0.0000     4          
   338  O     s     -0.7106 *    -0.0000 *    10.1514 *  0.0000     4          
   339  Zr    s     -7.0552 *     3.8068 *    -6.3446 *  0.0000     4          
   340  O     s      6.9029 *     7.6135 *     0.0000 *  0.0000     4          
   341  O     s      1.8272 *    -0.0000 *    10.1514 *  0.0000     4          
   342  Zr    s     -9.5930 *    -1.2689 *    -3.8068 *  0.0000     4          
   343  Zr    s      8.1719 *     6.3446 *     1.2689 *  0.0000     4          
   344  O     s     -0.7106 *    -2.5378 *    10.1514 *  0.0000     4          
   345  O     s     -0.7106 *     2.5378 *    10.1514 *  0.0000     4          
   346  O     s      6.9029 *     7.6135 *    -2.5378 *  0.0000     4          
   347  O     s      6.9029 *     7.6135 *     2.5378 *  0.0000     4          
   348  Zr    s      5.6340 *     8.8824 *     1.2689 *  0.0000     4          
   349  Zr    s      5.6340 *    -6.3446 *     6.3446    0.0000     2          
   350  O     s      1.8272 *     2.5378 *    10.1514 *  0.0000     4          
   351  O     s      1.8272 *    -2.5378 *    10.1514 *  0.0000     4          
   352  O     s     -3.2484 *    10.1514 *    -0.0000 *  0.0000     4          
   353  Zr    s     -4.5174 *    -8.8824 *     3.8068 *  0.0000     4          
   354  O     s      9.4408 *     0.0000 *    -5.0757 *  0.0000     4          
   355  O     s     -0.7106 *    -7.6135 *     7.6135    0.0000     2          
   356  O     s     -0.7106 *     7.6135 *     7.6135    0.0000     2          
   357  O     s     -5.7863 *     5.0757 *     7.6135 *  0.0000     4          
   358  O     s     -5.7863 *     7.6135 *    -5.0757 *  0.0000     4          
   359  Zr    s     10.7097 *     1.2689 *    -1.2689    0.0000     2          
   360  O     s    -10.8620 *    -0.0000       0.0000    0.0000     1          
   361  O     s      1.8272 *     7.6135 *     7.6135    0.0000     2          
   362  O     s      1.8272 *    -7.6135 *     7.6135    0.0000     2          
   363  Zr    s      0.5583 *     8.8824 *     6.3446 *  0.0000     4          
   364  O     s     -3.2484 *     2.5378 *   -10.1514 *  0.0000     4          
   365  O     s     -3.2484 *     2.5378 *    10.1514 *  0.0000     4          
   366  O     s     -8.3241 *     5.0757 *     5.0757    0.0000     2          
   367  O     s     -8.3241 *    -5.0757 *     5.0757    0.0000     2          
   368  Zr    s     -9.5930 *    -3.8068 *     3.8068    0.0000     2          
   369  O     s      9.4408 *     5.0757 *     2.5378 *  0.0000     4          
   370  O     s      9.4408 *     5.0757 *    -2.5378 *  0.0000     4          
   371  Zr    s      8.1719 *     6.3446 *    -3.8068 *  0.0000     4          
   372  O     s      4.3651 *     0.0000 *    10.1514 *  0.0000     4          
   373  Zr    s     -1.9795 *     6.3446 *    -8.8824 *  0.0000     4          
   374  O     s    -10.8620 *    -2.5378 *    -0.0000 *  0.0000     4          
   375  Zr    s      5.6340 *    -3.8068 *     8.8824 *  0.0000     4          
   376  O     s     -3.2484 *     7.6135 *     7.6135    0.0000     2          
   377  O     s     -3.2484 *    -7.6135 *     7.6135    0.0000     2          
   378  O     s     -8.3241 *    -7.6135 *     0.0000 *  0.0000     4          
   379  O     s      4.3651 *    -2.5378 *    10.1514 *  0.0000     4          
   380  O     s      4.3651 *     2.5378 *    10.1514 *  0.0000     4          
   381  Zr    s      3.0962 *    -6.3446 *     8.8824 *  0.0000     4          
   382  O     s     -0.7106 *   -10.1514 *     5.0757 *  0.0000     4          
   383  O     s     -0.7106 *     5.0757 *    10.1514 *  0.0000     4          
   384  Zr    s     -7.0552 *     6.3446 *     6.3446    0.0000     2          
   385  Zr    s     -7.0552 *    -8.8824 *     1.2689 *  0.0000     4          
   386  Zr    s     10.7097 *     1.2689 *     3.8068 *  0.0000     4          
   387  O     s    -10.8620 *    -2.5378 *     2.5378    0.0000     2          
   388  O     s    -10.8620 *     2.5378 *     2.5378    0.0000     2          
   389  O     s      6.9029 *     7.6135 *    -5.0757 *  0.0000     4          
   390  O     s      6.9029 *     7.6135 *     5.0757 *  0.0000     4          
   391  O     s      1.8272 *     5.0757 *    10.1514 *  0.0000     4          
   392  O     s      1.8272 *    -5.0757 *    10.1514 *  0.0000     4          
   393  Zr    s      0.5583 *    -1.2689 *    11.4203 *  0.0000     4          
   394  O     s     -8.3241 *     7.6135 *     2.5378 *  0.0000     4          
   395  O     s     -8.3241 *    -7.6135 *     2.5378 *  0.0000     4          
   396  Zr    s     -9.5930 *     1.2689 *    -6.3446 *  0.0000     4          
   397  O     s      4.3651 *    -7.6135 *     7.6135    0.0000     2          
   398  O     s      4.3651 *     7.6135 *     7.6135    0.0000     2          
   399  Zr    s     -1.9795 *     1.2689 *    11.4203 *  0.0000     4          
   400  O     s     -5.7863 *     0.0000 *   -10.1514 *  0.0000     4          
   401  O     s     -3.2484 *    10.1514 *    -5.0757 *  0.0000     4          
   402  O     s     -3.2484 *     5.0757 *    10.1514 *  0.0000     4          
   403  Zr    s     -4.5174 *     6.3446 *     8.8824 *  0.0000     4          
   404  O     s      9.4408 *    -5.0757 *    -5.0757    0.0000     2          
   405  O     s      9.4408 *     5.0757 *    -5.0757    0.0000     2          
   406  Zr    s      3.0962 *     1.2689 *    11.4203 *  0.0000     4          
   407  O     s     -5.7863 *    10.1514 *     2.5378 *  0.0000     4          
   408  O     s     -5.7863 *    -2.5378 *    10.1514 *  0.0000     4          
   409  Zr    s     -7.0552 *     3.8068 *     8.8824 *  0.0000     4          
   410  O     s     11.9786 *    -0.0000      -0.0000    0.0000     1          
   411  Zr    s     10.7097 *     3.8068 *    -3.8068    0.0000     2          
   412  O     s    -10.8620 *    -5.0757 *     0.0000 *  0.0000     4          
--------------------------------------------------------------------------------


  Constraints on symmetry reduced coordinates :

--------------------------------------------------------------------------------
  Constraint no.      Unconstrained     Constrained    Coefficient    
                         Variable         Variable
--------------------------------------------------------------------------------
           1                 2 y             2 z        -1.00000
           2                 4 y             4 z         1.00000
           3                 7 y             7 z         1.00000
           4                 8 y             8 z         1.00000
           5                 9 y             9 z        -1.00000
           6                10 y            10 z         1.00000
           7                11 y            11 z        -1.00000
           8                16 y            16 z         1.00000
           9                17 y            17 z        -1.00000
          10                18 y            18 z        -1.00000
          11                23 y            23 z        -1.00000
          12                24 y            24 z        -1.00000
          13                25 y            25 z         1.00000
          14                28 y            28 z         1.00000
          15                30 y            30 z        -1.00000
          16                35 y            35 z         1.00000
          17                42 y            42 z         1.00000
          18                43 y            43 z        -1.00000
          19                46 y            46 z        -1.00000
          20                50 y            50 z         1.00000
          21                51 y            51 z        -1.00000
          22                52 y            52 z         1.00000
          23                54 y            54 z         1.00000
          24                55 y            55 z        -1.00000
          25                60 y            60 z         1.00000
          26                61 y            61 z        -1.00000
          27                62 y            62 z        -1.00000
          28                64 y            64 z         1.00000
          29                65 y            65 z        -1.00000
          30                77 y            77 z         1.00000
          31                78 y            78 z        -1.00000
          32                79 y            79 z         1.00000
          33                87 y            87 z         1.00000
          34                90 y            90 z        -1.00000
          35                92 y            92 z         1.00000
          36                93 y            93 z        -1.00000
          37               100 y           100 z         1.00000
          38               101 y           101 z         1.00000
          39               102 y           102 z        -1.00000
          40               108 y           108 z         1.00000
          41               115 y           115 z        -1.00000
          42               117 y           117 z         1.00000
          43               121 y           121 z         1.00000
          44               122 y           122 z        -1.00000
          45               123 y           123 z        -1.00000
          46               127 y           127 z         1.00000
          47               128 y           128 z        -1.00000
          48               143 y           143 z        -1.00000
          49               149 y           149 z        -1.00000
          50               150 y           150 z         1.00000
          51               153 y           153 z        -1.00000
          52               155 y           155 z         1.00000
          53               156 y           156 z        -1.00000
          54               160 y           160 z         1.00000
          55               161 y           161 z        -1.00000
          56               162 y           162 z        -1.00000
          57               170 y           170 z         1.00000
          58               171 y           171 z        -1.00000
          59               178 y           178 z         1.00000
          60               181 y           181 z        -1.00000
          61               182 y           182 z         1.00000
          62               191 y           191 z        -1.00000
          63               192 y           192 z         1.00000
          64               198 y           198 z         1.00000
          65               199 y           199 z        -1.00000
          66               205 y           205 z        -1.00000
          67               208 y           208 z        -1.00000
          68               210 y           210 z         1.00000
          69               213 y           213 z         1.00000
          70               214 y           214 z         1.00000
          71               215 y           215 z        -1.00000
          72               216 y           216 z         1.00000
          73               217 y           217 z        -1.00000
          74               222 y           222 z         1.00000
          75               223 y           223 z        -1.00000
          76               224 y           224 z        -1.00000
          77               229 y           229 z        -1.00000
          78               230 y           230 z        -1.00000
          79               231 y           231 z         1.00000
          80               234 y           234 z         1.00000
          81               236 y           236 z        -1.00000
          82               241 y           241 z         1.00000
          83               248 y           248 z         1.00000
          84               249 y           249 z        -1.00000
          85               252 y           252 z        -1.00000
          86               256 y           256 z         1.00000
          87               257 y           257 z        -1.00000
          88               258 y           258 z         1.00000
          89               260 y           260 z         1.00000
          90               261 y           261 z        -1.00000
          91               266 y           266 z         1.00000
          92               267 y           267 z        -1.00000
          93               268 y           268 z        -1.00000
          94               270 y           270 z         1.00000
          95               271 y           271 z        -1.00000
          96               283 y           283 z         1.00000
          97               284 y           284 z        -1.00000
          98               285 y           285 z         1.00000
          99               293 y           293 z         1.00000
         100               296 y           296 z        -1.00000
         101               298 y           298 z         1.00000
         102               299 y           299 z        -1.00000
         103               306 y           306 z         1.00000
         104               307 y           307 z         1.00000
         105               308 y           308 z        -1.00000
         106               314 y           314 z         1.00000
         107               321 y           321 z        -1.00000
         108               323 y           323 z         1.00000
         109               327 y           327 z         1.00000
         110               328 y           328 z        -1.00000
         111               329 y           329 z        -1.00000
         112               333 y           333 z         1.00000
         113               334 y           334 z        -1.00000
         114               349 y           349 z        -1.00000
         115               355 y           355 z        -1.00000
         116               356 y           356 z         1.00000
         117               359 y           359 z        -1.00000
         118               361 y           361 z         1.00000
         119               362 y           362 z        -1.00000
         120               366 y           366 z         1.00000
         121               367 y           367 z        -1.00000
         122               368 y           368 z        -1.00000
         123               376 y           376 z         1.00000
         124               377 y           377 z        -1.00000
         125               384 y           384 z         1.00000
         126               387 y           387 z        -1.00000
         127               388 y           388 z         1.00000
         128               397 y           397 z        -1.00000
         129               398 y           398 z         1.00000
         130               404 y           404 z         1.00000
         131               405 y           405 z        -1.00000
         132               411 y           411 z        -1.00000
--------------------------------------------------------------------------------


  Components of defect energy : 

--------------------------------------------------------------------------------
  Region 1 - region 1                   =      3.93497243 eV
  Region 1 - region 2a (unrelaxed)      =     27.71240656 eV
  Region 1 - 2a (relaxed - correction)  =     -2.34096545 eV
  Region 1 (Total)                      =     29.30641353 eV
  Region 2a                             =      1.17050861 eV
  Region 2b                             =     -1.15748226 eV
--------------------------------------------------------------------------------
  Total defect energy                   =     29.31943988 eV
--------------------------------------------------------------------------------

  Largest displacement in region 2 =   0.0056 Angstroms


  Number of variables =     1066

  Maximum number of calculations  =        1000
  Maximum Hessian update interval =          10
  Maximum step size               =   1.0000000
  Maximum parameter tolerance     =   0.0000100
  Maximum function  tolerance     =   0.0000100
  Maximum gradient  tolerance     =   0.0010000

  Symmetry adapted optimisation

  Symmetry to be used for second derivatives

  Newton-Raphson optimiser to be used

  BFGS hessian update to be used

  Lower half triangular hessian to be used

  Start of defect optimisation :

  Cycle:      0 Defect Energy:  29.319440  Gnorm:     0.083475  CPU:    4.888
  ** Hessian calculated **
  Cycle:      1 Defect Energy:  24.154187  Gnorm:     0.067349  CPU:   20.564
  Cycle:      2 Defect Energy:  22.579843  Gnorm:     0.058100  CPU:   27.719
  ** Hessian calculated **
  Cycle:      3 Defect Energy:  16.165462  Gnorm:     0.028510  CPU:   41.995
  Cycle:      4 Defect Energy:  14.968534  Gnorm:     0.006610  CPU:   47.743
  Cycle:      5 Defect Energy:  14.801924  Gnorm:     0.002804  CPU:   53.501
  Cycle:      6 Defect Energy:  14.776921  Gnorm:     0.002763  CPU:   55.034
  Cycle:      7 Defect Energy:  14.747826  Gnorm:     0.002500  CPU:   56.569
  Cycle:      8 Defect Energy:  14.722939  Gnorm:     0.001989  CPU:   58.101
  Cycle:      9 Defect Energy:  14.705056  Gnorm:     0.001642  CPU:   59.649
  Cycle:     10 Defect Energy:  14.692566  Gnorm:     0.001200  CPU:   61.180
  Cycle:     11 Defect Energy:  14.684125  Gnorm:     0.000953  CPU:   62.721
  Cycle:     12 Defect Energy:  14.678470  Gnorm:     0.000699  CPU:   64.253
  ** Hessian calculated **
  Cycle:     13 Defect Energy:  14.674413  Gnorm:     0.000512  CPU:   71.494
  Cycle:     14 Defect Energy:  14.671947  Gnorm:     0.000390  CPU:   73.033
  Cycle:     15 Defect Energy:  14.670282  Gnorm:     0.000296  CPU:   74.568
  Cycle:     16 Defect Energy:  14.669164  Gnorm:     0.000226  CPU:   76.099
  Cycle:     17 Defect Energy:  14.668380  Gnorm:     0.000173  CPU:   77.633
  Cycle:     18 Defect Energy:  14.667886  Gnorm:     0.000133  CPU:   79.178
  Cycle:     19 Defect Energy:  14.667563  Gnorm:     0.000102  CPU:   80.714
  Cycle:     20 Defect Energy:  14.667357  Gnorm:     0.000079  CPU:   82.250
  Cycle:     21 Defect Energy:  14.667218  Gnorm:     0.000061  CPU:   83.787
  Cycle:     22 Defect Energy:  14.667139  Gnorm:     0.000047  CPU:   85.320
  ** Hessian calculated **
  Cycle:     23 Defect Energy:  14.667091  Gnorm:     0.000035  CPU:   92.584
  Cycle:     24 Defect Energy:  14.667068  Gnorm:     0.000028  CPU:   94.117
  Cycle:     25 Defect Energy:  14.667122  Gnorm:     0.000021  CPU:   95.652


  **** Optimisation achieved ****


  Final defect energy  =       14.66711901
  Final defect Gnorm   =        0.00001638

  Components of defect energy : 

--------------------------------------------------------------------------------
  Region 1 - region 1                   =     -3.71120530 eV
  Region 1 - region 2a (unrelaxed)      =     20.56375692 eV
  Region 1 - 2a (relaxed - correction)  =     -2.05861126 eV
  Region 1 (Total)                      =     14.79394036 eV
  Region 2a                             =      1.02924599 eV
  Region 2b                             =     -1.15606735 eV
--------------------------------------------------------------------------------
  Total defect energy                   =     14.66711901 eV
--------------------------------------------------------------------------------

  Largest displacement in region 2 =   0.0056 Angstroms

  Final coordinates of region 1 :

--------------------------------------------------------------------------------
   No.  Atomic        x           y           z          Radius      Charge
        Label       (Angs)      (Angs)      (Angs)       (Angs)       (e) 
--------------------------------------------------------------------------------
     1  O     c     1.979517    1.268921    1.268921    0.000000    0.077000
     2  Zr    c     2.486657    2.583636   -0.045794    0.000000    2.650000
     3  Zr    c     2.486657   -0.045794    2.583636    0.000000    2.650000
     4  O     c     1.190346    1.224245    3.798190    0.000000    0.077000
     5  O     c     1.190346    3.798190    1.224245    0.000000    0.077000
     6  O     c     1.190346   -1.260348    1.313596    0.000000    0.077000
     7  O     c     1.190346    1.313596   -1.260348    0.000000    0.077000
     8  Zr    c    -0.033752   -0.037641   -0.037641    0.000000    2.650000
     9  Zr    c    -0.033752    2.575483    2.575483    0.000000    2.650000
    10  O     c     3.797901    1.265496   -1.017934    0.000000    0.077000
    11  O     c     3.797901   -1.017934    1.265496    0.000000    0.077000
    12  O     c     3.797901    3.555775    1.272345    0.000000    0.077000
    13  O     c     3.797901    1.272345    3.555775    0.000000    0.077000
    14  O     c    -0.805148    1.268921    1.268921    0.000000    0.077000
    15  Zr    c     5.121719    2.584886    2.584886    0.000000    2.650000
    16  Zr    c     5.121719   -0.047044   -0.047044    0.000000    2.650000
    17  O     c     1.312255    3.783820    3.783820    0.000000    0.077000
    18  O     c     1.312255   -1.245978   -1.245978    0.000000    0.077000
    19  O     c     1.286643   -1.303157    3.840998    0.000000    0.077000
    20  O     c     1.286643    3.840998   -1.303157    0.000000    0.077000
    21  O     c     3.837831    3.848056    3.848056    0.000000    0.077000
    22  O     c     3.837831   -1.310214   -1.310214    0.000000    0.077000
    23  O     c     3.811719   -1.305190    3.843032    0.000000    0.077000
    24  O     c     3.811719    3.843032   -1.305190    0.000000    0.077000
    25  Zr    c     2.524585    2.565691    5.097145    0.000000    2.650000
    26  Zr    c     2.524585    5.097145    2.565691    0.000000    2.650000
    27  Zr    c     2.524585   -0.027849   -2.559304    0.000000    2.650000
    28  Zr    c     2.524585   -2.559304   -0.027849    0.000000    2.650000
    29  O     c    -1.359934   -1.244758    1.230864    0.000000    0.077000
    30  O     c    -1.359934    1.230864   -1.244758    0.000000    0.077000
    31  O     c    -1.359934    1.306977    3.782600    0.000000    0.077000
    32  O     c    -1.359934    3.782600    1.306977    0.000000    0.077000
    33  O     c     5.646524    1.268921    1.268921    0.000000    0.077000
    34  Zr    c    -0.016209   -2.559442    2.551022    0.000000    2.650000
    35  Zr    c    -0.016209    2.551022   -2.559442    0.000000    2.650000
    36  Zr    c    -0.016209    5.097283   -0.013180    0.000000    2.650000
    37  Zr    c    -0.016209   -0.013180    5.097283    0.000000    2.650000
    38  O     c    -1.211338    3.826298    3.826298    0.000000    0.077000
    39  O     c    -1.211338   -1.288456   -1.288456    0.000000    0.077000
    40  O     c    -1.240889   -1.249719    3.787561    0.000000    0.077000
    41  O     c    -1.240889    3.787561   -1.249719    0.000000    0.077000
    42  Zr    c    -2.551180   -0.024566    2.562408    0.000000    2.650000
    43  Zr    c    -2.551180    2.562408   -0.024566    0.000000    2.650000
    44  O     c     6.403512    3.798403    1.305551    0.000000    0.077000
    45  O     c     6.403512    1.305551    3.798403    0.000000    0.077000
    46  O     c     6.403512    1.232291   -1.260561    0.000000    0.077000
    47  O     c     6.403512   -1.260561    1.232291    0.000000    0.077000
    48  Zr    c     5.090483    5.096058   -0.028101    0.000000    2.650000
    49  Zr    c     5.090483   -0.028101    5.096058    0.000000    2.650000
    50  Zr    c     5.090483    2.565943   -2.558216    0.000000    2.650000
    51  Zr    c     5.090483   -2.558216    2.565943    0.000000    2.650000
    52  O     c     1.299075   -3.806723    1.256067    0.000000    0.077000
    53  O     c     1.299075    1.256067   -3.806723    0.000000    0.077000
    54  O     c     1.299075    1.281774    6.344565    0.000000    0.077000
    55  O     c     1.299075    6.344565    1.281774    0.000000    0.077000
    56  O     c     3.822992    1.272354    6.168774    0.000000    0.077000
    57  O     c     3.822992    6.168774    1.272354    0.000000    0.077000
    58  O     c     3.822992   -3.630932    1.265488    0.000000    0.077000
    59  O     c     3.822992    1.265488   -3.630932    0.000000    0.077000
    60  Zr    c     2.531747   -2.559262    5.097104    0.000000    2.650000
    61  Zr    c     2.531747    5.097104   -2.559262    0.000000    2.650000
    62  O     c     6.339849    3.790327   -1.252485    0.000000    0.077000
    63  O     c     6.339849   -1.252485    3.790327    0.000000    0.077000
    64  O     c     6.361732    3.831925    3.831925    0.000000    0.077000
    65  O     c     6.361732   -1.294084   -1.294084    0.000000    0.077000
    66  O     c     1.260735    6.314095    3.806461    0.000000    0.077000
    67  O     c     1.260735    3.806461    6.314095    0.000000    0.077000
    68  O     c     1.260735   -3.776254   -1.268619    0.000000    0.077000
    69  O     c     1.260735   -1.268619   -3.776254    0.000000    0.077000
    70  O     c     1.261809   -1.256997    6.363142    0.000000    0.077000
    71  O     c     1.261809    6.363142   -1.256997    0.000000    0.077000
    72  O     c     1.261809   -3.825300    3.794838    0.000000    0.077000
    73  O     c     1.261809    3.794838   -3.825300    0.000000    0.077000
    74  Zr    c    -0.015310    5.095672    5.095672    0.000000    2.650000
    75  Zr    c    -0.015310   -2.557830   -2.557830    0.000000    2.650000
    76  O     c    -3.527008    1.268921    1.268921    0.000000    0.077000
    77  Zr    c     7.648613    2.579162   -0.041320    0.000000    2.650000
    78  Zr    c     7.648613   -0.041320    2.579162    0.000000    2.650000
    79  O     c     3.808356   -3.832272    3.790878    0.000000    0.077000
    80  O     c     3.808356    3.790878   -3.832272    0.000000    0.077000
    81  O     c     3.808356   -1.253036    6.370114    0.000000    0.077000
    82  O     c     3.808356    6.370114   -1.253036    0.000000    0.077000
    83  O     c     3.785467    6.374282    3.792577    0.000000    0.077000
    84  O     c     3.785467    3.792577    6.374282    0.000000    0.077000
    85  O     c     3.785467   -1.254735   -3.836440    0.000000    0.077000
[...]
    332 y          3.806763      3.808458     0.001695    Cartesian    0.04
    332 z         -3.806763     -3.804234     0.002529    Cartesian   -0.07
    333 x         11.420288     11.408386    -0.011902    Cartesian   -0.10
    333 y          3.806763      3.805112    -0.001651    Cartesian   -0.04
    333 z          3.806763      3.805112    -0.001651    Cartesian   -0.04
    334 x         11.420288     11.418761    -0.001527    Cartesian   -0.01
    334 y          3.806763      3.797078    -0.009685    Cartesian   -0.25
    334 z         -1.268921     -1.259236     0.009685    Cartesian   -0.76
    335 x          6.344605      6.344420    -0.000184    Cartesian   -0.00
    335 y          8.882446      8.878691    -0.003756    Cartesian   -0.04
    335 z          6.344605      6.341276    -0.003329    Cartesian   -0.05
    336 x          6.344605      6.343066    -0.001538    Cartesian   -0.02
    336 y         -3.806763     -3.804143     0.002620    Cartesian   -0.07
    336 z          8.882446      8.885393     0.002947    Cartesian    0.03
    337 x          5.075684      5.073733    -0.001950    Cartesian   -0.04
    337 y         10.151367     10.156007     0.004640    Cartesian    0.05
    337 z          5.075684      5.073937    -0.001747    Cartesian   -0.03
    338 x          1.268921      1.272426     0.003505    Cartesian    0.28
    338 y          1.268921      1.270588     0.001667    Cartesian    0.13
    338 z         11.420288     11.422839     0.002551    Cartesian    0.02
    339 x         -5.075684     -5.080645    -0.004962    Cartesian    0.10
    339 y          5.075684      5.075364    -0.000320    Cartesian   -0.01
    339 z         -5.075684     -5.079292    -0.003608    Cartesian    0.07
    340 x          8.882446      8.881768    -0.000679    Cartesian   -0.01
    340 y          8.882446      8.873466    -0.008981    Cartesian   -0.10
    340 z          1.268921      1.266163    -0.002758    Cartesian   -0.22
    341 x          3.806763      3.808199     0.001436    Cartesian    0.04
    341 y          1.268921      1.268321    -0.000600    Cartesian   -0.05
    341 z         11.420288     11.371310    -0.048978    Cartesian   -0.43
    342 x         -7.613525     -7.617378    -0.003852    Cartesian    0.05
    342 y         -0.000000      0.002987     0.002987    Cartesian *******
    342 z         -2.537842     -2.537932    -0.000090    Cartesian    0.00
    343 x         10.151367     10.158050     0.006683    Cartesian    0.07
    343 y          7.613525      7.620514     0.006989    Cartesian    0.09
    343 z          2.537842      2.540205     0.002364    Cartesian    0.09
    344 x          1.268921      1.271610     0.002689    Cartesian    0.21
    344 y         -1.268921     -1.266795     0.002126    Cartesian   -0.17
    344 z         11.420288     11.424216     0.003927    Cartesian    0.03
    345 x          1.268921      1.273701     0.004780    Cartesian    0.38
    345 y          3.806763      3.805571    -0.001191    Cartesian   -0.03
    345 z         11.420288     11.406304    -0.013984    Cartesian   -0.12
    346 x          8.882446      8.882253    -0.000193    Cartesian   -0.00
    346 y          8.882446      8.884427     0.001981    Cartesian    0.02
    346 z         -1.268921     -1.267085     0.001835    Cartesian   -0.14
    347 x          8.882446      8.886813     0.004366    Cartesian    0.05
    347 y          8.882446      8.875845    -0.006601    Cartesian   -0.07
    347 z          3.806763      3.806164    -0.000599    Cartesian   -0.02
    348 x          7.613525      7.612431    -0.001095    Cartesian   -0.01
    348 y         10.151367     10.157632     0.006264    Cartesian    0.06
    348 z          2.537842      2.537245    -0.000597    Cartesian   -0.02
    349 x          7.613525      7.612638    -0.000888    Cartesian   -0.01
    349 y         -5.075684     -5.082333    -0.006650    Cartesian    0.13
    349 z          7.613525      7.620175     0.006650    Cartesian    0.09
    350 x          3.806763      3.805284    -0.001479    Cartesian   -0.04
    350 y          3.806763      3.804706    -0.002057    Cartesian   -0.05
    350 z         11.420288     11.430277     0.009988    Cartesian    0.09
    351 x          3.806763      3.809911     0.003149    Cartesian    0.08
    351 y         -1.268921     -1.266837     0.002084    Cartesian   -0.16
    351 z         11.420288     11.428641     0.008353    Cartesian    0.07
    352 x         -1.268921     -1.266400     0.002521    Cartesian   -0.20
    352 y         11.420288     11.415509    -0.004779    Cartesian   -0.04
    352 z          1.268921      1.267424    -0.001497    Cartesian   -0.12
    353 x         -2.537842     -2.541011    -0.003169    Cartesian    0.12
    353 y         -7.613525     -7.617387    -0.003862    Cartesian    0.05
    353 z          5.075684      5.076781     0.001097    Cartesian    0.02
    354 x         11.420288     11.416331    -0.003957    Cartesian   -0.03
    354 y          1.268921      1.274694     0.005773    Cartesian    0.45
    354 z         -3.806763     -3.806393     0.000370    Cartesian   -0.01
    355 x          1.268921      1.274720     0.005799    Cartesian    0.46
    355 y         -6.344605     -6.342640     0.001965    Cartesian   -0.03
    355 z          8.882446      8.880481    -0.001965    Cartesian   -0.02
    356 x          1.268921      1.268886    -0.000035    Cartesian   -0.00
    356 y          8.882446      8.880856    -0.001590    Cartesian   -0.02
    356 z          8.882446      8.880856    -0.001590    Cartesian   -0.02
    357 x         -3.806763     -3.808258    -0.001496    Cartesian    0.04
    357 y          6.344605      6.343512    -0.001093    Cartesian   -0.02
    357 z          8.882446      8.884640     0.002194    Cartesian    0.02
    358 x         -3.806763     -3.805177     0.001586    Cartesian   -0.04
    358 y          8.882446      8.879789    -0.002657    Cartesian   -0.03
    358 z         -3.806763     -3.806387     0.000376    Cartesian   -0.01
    359 x         12.689209     12.680769    -0.008440    Cartesian   -0.07
    359 y          2.537842      2.551238     0.013396    Cartesian    0.53
    359 z          0.000000     -0.013396    -0.013396    Cartesian *******
    360 x         -8.882446     -8.814762     0.067684    Cartesian   -0.76
    360 y          1.268921      1.268921     0.000000    Cartesian    0.00
    360 z          1.268921      1.268921     0.000000    Cartesian    0.00
    361 x          3.806763      3.809849     0.003086    Cartesian    0.08
    361 y          8.882446      8.880136    -0.002310    Cartesian   -0.03
    361 z          8.882446      8.880136    -0.002310    Cartesian   -0.03
    362 x          3.806763      3.805117    -0.001645    Cartesian   -0.04
    362 y         -6.344605     -6.343505     0.001099    Cartesian   -0.02
    362 z          8.882446      8.881347    -0.001099    Cartesian   -0.01
    363 x          2.537842      2.535992    -0.001850    Cartesian   -0.07
    363 y         10.151367     10.157595     0.006227    Cartesian    0.06
    363 z          7.613525      7.616895     0.003369    Cartesian    0.04
    364 x         -1.268921     -1.264986     0.003934    Cartesian   -0.31
    364 y          3.806763      3.804942    -0.001821    Cartesian   -0.05
    364 z         -8.882446     -8.876962     0.005485    Cartesian   -0.06
    365 x         -1.268921     -1.267429     0.001491    Cartesian   -0.12
    365 y          3.806763      3.807594     0.000831    Cartesian    0.02
    365 z         11.420288     11.424741     0.004452    Cartesian    0.04
    366 x         -6.344605     -6.335426     0.009178    Cartesian   -0.14
    366 y          6.344605      6.342159    -0.002445    Cartesian   -0.04
    366 z          6.344605      6.342159    -0.002445    Cartesian   -0.04
    367 x         -6.344605     -6.341227     0.003378    Cartesian   -0.05
    367 y         -3.806763     -3.806353     0.000410    Cartesian   -0.01
    367 z          6.344605      6.344195    -0.000410    Cartesian   -0.01
    368 x         -7.613525     -7.617700    -0.004175    Cartesian    0.05
    368 y         -2.537842     -2.543256    -0.005414    Cartesian    0.21
    368 z          5.075684      5.081098     0.005414    Cartesian    0.11
    369 x         11.420288     11.413116    -0.007172    Cartesian   -0.06
    369 y          6.344605      6.347829     0.003224    Cartesian    0.05
    369 z          3.806763      3.807153     0.000390    Cartesian    0.01
    370 x         11.420288     11.419596    -0.000692    Cartesian   -0.01
    370 y          6.344605      6.340394    -0.004210    Cartesian   -0.07
    370 z         -1.268921     -1.268095     0.000826    Cartesian   -0.07
    371 x         10.151367     10.156377     0.005010    Cartesian    0.05
    371 y          7.613525      7.620932     0.007407    Cartesian    0.10
    371 z         -2.537842     -2.540426    -0.002584    Cartesian    0.10
    372 x          6.344605      6.344862     0.000258    Cartesian    0.00
    372 y          1.268921      1.265785    -0.003136    Cartesian   -0.25
    372 z         11.420288     11.420113    -0.000175    Cartesian   -0.00
    373 x          0.000000     -0.002043    -0.002043    Cartesian *******
    373 y          7.613525      7.617155     0.003630    Cartesian    0.05
    373 z         -7.613525     -7.619922    -0.006396    Cartesian    0.08
    374 x         -8.882446     -8.906652    -0.024206    Cartesian    0.27
    374 y         -1.268921     -1.264619     0.004302    Cartesian   -0.34
    374 z          1.268921      1.272041     0.003120    Cartesian    0.25
    375 x          7.613525      7.618125     0.004600    Cartesian    0.06
    375 y         -2.537842     -2.541216    -0.003374    Cartesian    0.13
    375 z         10.151367     10.157424     0.006056    Cartesian    0.06
    376 x         -1.268921     -1.264818     0.004103    Cartesian   -0.32
    376 y          8.882446      8.880954    -0.001492    Cartesian   -0.02
    376 z          8.882446      8.880954    -0.001492    Cartesian   -0.02
    377 x         -1.268921     -1.267417     0.001504    Cartesian   -0.12
    377 y         -6.344605     -6.342203     0.002401    Cartesian   -0.04
    377 z          8.882446      8.880045    -0.002401    Cartesian   -0.03
    378 x         -6.344605     -6.345170    -0.000566    Cartesian    0.01
    378 y         -6.344605     -6.343046     0.001558    Cartesian   -0.02
    378 z          1.268921      1.266937    -0.001984    Cartesian   -0.16
    379 x          6.344605      6.342560    -0.002044    Cartesian   -0.03
    379 y         -1.268921     -1.267761     0.001160    Cartesian   -0.09
    379 z         11.420288     11.404394    -0.015895    Cartesian   -0.14
    380 x          6.344605      6.343164    -0.001441    Cartesian   -0.02
    380 y          3.806763      3.802791    -0.003972    Cartesian   -0.10
    380 z         11.420288     11.418694    -0.001594    Cartesian   -0.01
    381 x          5.075684      5.076856     0.001172    Cartesian    0.02
    381 y         -5.075684     -5.079891    -0.004207    Cartesian    0.08
    381 z         10.151367     10.159125     0.007758    Cartesian    0.08
    382 x          1.268921      1.271123     0.002202    Cartesian    0.17
    382 y         -8.882446     -8.876471     0.005976    Cartesian   -0.07
    382 z          6.344605      6.341980    -0.002624    Cartesian   -0.04
    383 x          1.268921      1.268923     0.000002    Cartesian    0.00
    383 y          6.344605      6.343992    -0.000613    Cartesian   -0.01
    383 z         11.420288     11.418106    -0.002182    Cartesian   -0.02
    384 x         -5.075684     -5.079750    -0.004067    Cartesian    0.08
    384 y          7.613525      7.618929     0.005403    Cartesian    0.07
    384 z          7.613525      7.618929     0.005403    Cartesian    0.07
    385 x         -5.075684     -5.080125    -0.004442    Cartesian    0.09
    385 y         -7.613525     -7.618684    -0.005159    Cartesian    0.07
    385 z          2.537842      2.537317    -0.000525    Cartesian   -0.02
    386 x         12.689209     12.700608     0.011399    Cartesian    0.09
    386 y          2.537842      2.535520    -0.002322    Cartesian   -0.09
    386 z          5.075684      5.076532     0.000848    Cartesian    0.02
    387 x         -8.882446     -8.859106     0.023341    Cartesian   -0.26
    387 y         -1.268921     -1.269025    -0.000104    Cartesian    0.01
    387 z          3.806763      3.806867     0.000104    Cartesian    0.00
    388 x         -8.882446     -8.859671     0.022775    Cartesian   -0.26
    388 y          3.806763      3.805532    -0.001231    Cartesian   -0.03
    388 z          3.806763      3.805532    -0.001231    Cartesian   -0.03
    389 x          8.882446      8.882047    -0.000399    Cartesian   -0.00
    389 y          8.882446      8.878766    -0.003681    Cartesian   -0.04
    389 z         -3.806763     -3.804992     0.001771    Cartesian   -0.05
    390 x          8.882446      8.874846    -0.007600    Cartesian   -0.09
    390 y          8.882446      8.875655    -0.006792    Cartesian   -0.08
    390 z          6.344605      6.338529    -0.006075    Cartesian   -0.10
    391 x          3.806763      3.805498    -0.001265    Cartesian   -0.03
    391 y          6.344605      6.341688    -0.002917    Cartesian   -0.05
    391 z         11.420288     11.409618    -0.010670    Cartesian   -0.09
    392 x          3.806763      3.807378     0.000615    Cartesian    0.02
    392 y         -3.806763     -3.805639     0.001124    Cartesian   -0.03
    392 z         11.420288     11.410873    -0.009415    Cartesian   -0.08
    393 x          2.537842      2.534663    -0.003179    Cartesian   -0.13
    393 y         -0.000000     -0.005190    -0.005190    Cartesian *******
    393 z         12.689209     12.696351     0.007142    Cartesian    0.06
    394 x         -6.344605     -6.335319     0.009286    Cartesian   -0.15
    394 y          8.882446      8.880368    -0.002078    Cartesian   -0.02
    394 z          3.806763      3.804308    -0.002455    Cartesian   -0.06
    395 x         -6.344605     -6.339958     0.004646    Cartesian   -0.07
    395 y         -6.344605     -6.341598     0.003007    Cartesian   -0.05
    395 z          3.806763      3.806411    -0.000352    Cartesian   -0.01
    396 x         -7.613525     -7.619574    -0.006048    Cartesian    0.08
    396 y          2.537842      2.539832     0.001991    Cartesian    0.08
    396 z         -5.075684     -5.080088    -0.004404    Cartesian    0.09
    397 x          6.344605      6.346346     0.001742    Cartesian    0.03
    397 y         -6.344605     -6.340921     0.003684    Cartesian   -0.06
    397 z          8.882446      8.878763    -0.003684    Cartesian   -0.04
    398 x          6.344605      6.339627    -0.004978    Cartesian   -0.08
    398 y          8.882446      8.873970    -0.008477    Cartesian   -0.10
    398 z          8.882446      8.873970    -0.008477    Cartesian   -0.10
    399 x          0.000000     -0.002432    -0.002432    Cartesian    0.00
    399 y          2.537842      2.538432     0.000590    Cartesian    0.02
    399 z         12.689209     12.698630     0.009421    Cartesian    0.07
    400 x         -3.806763     -3.803934     0.002828    Cartesian   -0.07
    400 y          1.268921      1.267313    -0.001608    Cartesian   -0.13
    400 z         -8.882446     -8.876990     0.005457    Cartesian   -0.06
    401 x         -1.268921     -1.265901     0.003020    Cartesian   -0.24
    401 y         11.420288     11.413590    -0.006698    Cartesian   -0.06
    401 z         -3.806763     -3.804895     0.001868    Cartesian   -0.05
    402 x         -1.268921     -1.266649     0.002272    Cartesian   -0.18
    402 y          6.344605      6.341611    -0.002994    Cartesian   -0.05
    402 z         11.420288     11.411000    -0.009288    Cartesian   -0.08
    403 x         -2.537842     -2.542164    -0.004322    Cartesian    0.17
    403 y          7.613525      7.618461     0.004936    Cartesian    0.06
    403 z         10.151367     10.157955     0.006588    Cartesian    0.06
    404 x         11.420288     11.413170    -0.007118    Cartesian   -0.06
    404 y         -3.806763     -3.798807     0.007956    Cartesian   -0.21
    404 z         -3.806763     -3.798807     0.007956    Cartesian   -0.21
    405 x         11.420288     11.423272     0.002984    Cartesian    0.03
    405 y          6.344605      6.343158    -0.001447    Cartesian   -0.02
    405 z         -3.806763     -3.805316     0.001447    Cartesian   -0.04
    406 x          5.075684      5.079425     0.003742    Cartesian    0.07
    406 y          2.537842      2.542484     0.004642    Cartesian    0.18
    406 z         12.689209     12.698416     0.009207    Cartesian    0.07
    407 x         -3.806763     -3.803666     0.003097    Cartesian   -0.08
    407 y         11.420288     11.411132    -0.009156    Cartesian   -0.08
    407 z          3.806763      3.805058    -0.001704    Cartesian   -0.04
    408 x         -3.806763     -3.802220     0.004543    Cartesian   -0.12
    408 y         -1.268921     -1.267603     0.001318    Cartesian   -0.10
    408 z         11.420288     11.413665    -0.006623    Cartesian   -0.06
    409 x         -5.075684     -5.081905    -0.006221    Cartesian    0.12
    409 y          5.075684      5.079781     0.004098    Cartesian    0.08
    409 z         10.151367     10.158250     0.006883    Cartesian    0.07
    410 x         13.958130     13.882813    -0.075317    Cartesian   -0.54
    410 y          1.268921      1.268921     0.000000    Cartesian    0.00
    410 z          1.268921      1.268921     0.000000    Cartesian    0.00
    411 x         12.689209     12.699711     0.010502    Cartesian    0.08
    411 y          5.075684      5.084780     0.009096    Cartesian    0.18
    411 z         -2.537842     -2.546938    -0.009096    Cartesian    0.36
    412 x         -8.882446     -8.865297     0.017149    Cartesian   -0.19
    412 y         -3.806763     -3.804363     0.002400    Cartesian   -0.06
    412 z          1.268921      1.269753     0.000832    Cartesian    0.07
--------------------------------------------------------------------------------


  Time to end of optimisation  =       97.1987 seconds


  Peak dynamic memory used =     404.07 MB 


  Timing analysis for GULP :

--------------------------------------------------------------------------------
  Task / Subroutine                                          Time (Seconds)
--------------------------------------------------------------------------------
  Calculation of reciprocal space energy and derivatives          0.0002
  Calculation of reciprocal space energy using symmetry           0.0002
  Calculation of real space energy and derivatives                0.0020
  Calculation of real space energy using symmetry                 0.0072
  Calculation for region 1 energy and derivatives (2-b)          24.7776
  Calculation for region 2a energy                               55.6796
  Calculation for region 2b energy                                0.0083
  Calculation and manipulation of Hessian matrix                 15.1592
  Calculation of matrix inversion                                 1.1262
  Symmetry generation of equivalent positions                     0.0016
--------------------------------------------------------------------------------
  Total CPU time                                                 97.1988
--------------------------------------------------------------------------------


  Dump file written as ZrO2.grs


  Job Finished at 12:14.37 14th October    2020                               

