********************************************************************************
*                       GENERAL UTILITY LATTICE PROGRAM                        *
*                                 Julian Gale                                  *
*                       Curtin Institute for Computation                       *
*                    School of Molecular and Life Sciences                     *
*                    Curtin University, Western Australia                      *
********************************************************************************
* Version = 5.2.0 * Last modified =  10th September 2020                       *
********************************************************************************
* Zirconia doped with calcium                                                  *
*  optimise     - perform optimisation run                                     *
*  conp         - constant pressure calculation                                *
*  property     - calculate properties for final geometry                      *
*  defect       - perform defect calculation after bulk run                    *
*  distance     - calculate distances                                          *
*  compare      - compare initial and final structures                         *
********************************************************************************
* Zirconia doped with calcium                                                  *
********************************************************************************


  Job Started  at 12:14.37 14th October    2020                               

  Number of CPUs =     1


  Total number of configurations input =      1

********************************************************************************
*  Input for Configuration =   1 : ZrO2                                        *
********************************************************************************

  Formula = ZrO2                                                        

  Number of irreducible atoms/shells =       4


  Total number atoms/shells =       6

  Dimensionality = 3               :  Bulk   


  Symmetry :

  Crystal family                   :  Cubic       
  Crystal class  (Groth - 1921)    :  Cubic Hexakisoctahedral              

  Space group (centrosymmetric)    :  F M 3 M         

  Patterson group                  :  F m -3 m 

  Cartesian lattice vectors (Angstroms) :

        0.000000    2.535000    2.535000
        2.535000    0.000000    2.535000
        2.535000    2.535000    0.000000

  Primitive cell parameters :            Full cell parameters :

  a =   3.5850    alpha =  60.0000       a =   5.0700    alpha =  90.0000
  b =   3.5850    beta  =  60.0000       b =   5.0700    beta  =  90.0000
  c =   3.5850    gamma =  60.0000       c =   5.0700    gamma =  90.0000

  Initial volumes (Angstroms**3):

  Primitive cell =          32.580961    Full cell =         130.323843

  Temperature of configuration =   0.00     K 

  Pressure of configuration =         0.000 GPa 

  Fractional coordinates of asymmetric unit :

--------------------------------------------------------------------------------
   No.  Atomic       x           y          z         Charge      Occupancy
        Label      (Frac)      (Frac)     (Frac)        (e)         (Frac)  
--------------------------------------------------------------------------------
      1 Zr    c    0.000000    0.000000    0.000000     2.65000    1.000000    
      2 O     c    0.250000    0.250000    0.250000     0.07700    1.000000    
      3 Zr    s    0.000000    0.000000    0.000000     1.35000    1.000000    
      4 O     s    0.250000    0.250000    0.250000    -2.07700    1.000000    
--------------------------------------------------------------------------------


  Constraints : 

--------------------------------------------------------------------------------
  Constraint no.      Unconstrained     Constrained    Coefficient    Offset
                         Variable         Variable
--------------------------------------------------------------------------------
           1              Strain 1        Strain 2       1.00000      0.0000
           2              Strain 1        Strain 3       1.00000      0.0000
--------------------------------------------------------------------------------


  Distance calculation :


  Cutoff for distances  =      4.000000 Angstroms

--------------------------------------------------------------------------------
  Asymmetric unit site  Full lattice sites    No.  Distance      No.  Distance
      No.   At.No.            At.No.                (Angs)             (Angs) 
--------------------------------------------------------------------------------
       1   Zr    core        Zr    core        12    3.5850
                             Zr    shell       12    3.5850
                             O     core         8    2.1954
                             O     shell        8    2.1954
--------------------------------------------------------------------------------
       2   O     core        Zr    core         4    2.1954
                             Zr    shell        4    2.1954
                             O     core         6    2.5350       12    3.5850
                             O     shell        6    2.5350       12    3.5850
--------------------------------------------------------------------------------
       3   Zr    shell       Zr    core        12    3.5850
                             Zr    shell       12    3.5850
                             O     core         8    2.1954
                             O     shell        8    2.1954
--------------------------------------------------------------------------------
       4   O     shell       Zr    core         4    2.1954
                             Zr    shell        4    2.1954
                             O     core         6    2.5350       12    3.5850
                             O     shell        6    2.5350       12    3.5850
--------------------------------------------------------------------------------



********************************************************************************
*  General input information                                                   *
********************************************************************************

  Species output for all configurations : 

--------------------------------------------------------------------------------
  Species    Type    Atomic    Atomic    Charge       Radii (Angs)     Library
                     Number     Mass       (e)     Cova   Ionic  VDW   Symbol
--------------------------------------------------------------------------------
    Zr       Core       40      91.22   2.650000   1.560  0.000  2.330          
    Zr       Shell      40       0.00   1.350000   1.560  0.000  2.330          
    O        Core        8      16.00   0.077000   0.730  0.000  1.360          
    O        Shell       8       0.00  -2.077000   0.730  0.000  1.360          
--------------------------------------------------------------------------------


  Lattice summation method               =    Ewald          (3-D)
                                         =    Parry          (2-D)
                                         =    Saunders et al (1-D)
  Accuracy factor for lattice sums       =   12.000


  Analytic derivatives to be used

  Time limit = Infinity

  Maximum range for interatomic potentials =    100000.000000 Angstroms

  General interatomic potentials :

--------------------------------------------------------------------------------
Atom  Types   Potential      Parameter       Value         Units   Cutoffs(Ang)
  1     2                                                            Min /  Max 
--------------------------------------------------------------------------------
O    s Zr   s Buckingham    Buckingham A     985.86900    eV        0.000 12.000
                            Buckingham rho  0.37600000    Ang       
                            Buckingham C     0.0000000    eV*Ang^6  
--------------------------------------------------------------------------------
O    s O    s Buckingham    Buckingham A     22764.300    eV        0.000 12.000
                            Buckingham rho  0.14900000    Ang       
                            Buckingham C     27.890000    eV*Ang^6  
--------------------------------------------------------------------------------
Zr   c Zr   s Spring (c-s)  Spring k 2       169.61700    eV*Ang^-2 0.000  0.800
                            Spring k 4       0.0000000    eV*Ang^-4 
--------------------------------------------------------------------------------
O    c O    s Spring (c-s)  Spring k 2       27.290000    eV*Ang^-2 0.000  0.800
                            Spring k 4       0.0000000    eV*Ang^-4 
--------------------------------------------------------------------------------

********************************************************************************
*  Output for configuration   1 : ZrO2                                         *
********************************************************************************


  Components of energy : 

--------------------------------------------------------------------------------
  Interatomic potentials     =          22.43756329 eV    
  Monopole - monopole (real) =         -15.67991073 eV    
  Monopole - monopole (recip)=        -116.52038266 eV    
  Monopole - monopole (total)=        -132.20029339 eV    
--------------------------------------------------------------------------------
  Total lattice energy : 
    Primitive unit cell      =        -109.76273010 eV    
    Non-primitive unit cell  =        -439.05092039 eV    
--------------------------------------------------------------------------------
  Total lattice energy (in kJmol-1): 
    Primitive unit cell      =          -10590.4256 kJ/(mole unit cells)
    Non-primitive unit cell  =          -42361.7023 kJ/(mole unit cells)
--------------------------------------------------------------------------------


  Number of variables =        1

  Maximum number of calculations  =          1000
  Maximum Hessian update interval =            10
  Maximum step size               =   1.000000000
  Maximum parameter tolerance     =   0.000010000
  Maximum function  tolerance     =   0.000010000
  Maximum gradient  tolerance     =   0.001000000
  Maximum gradient  component     =   0.010000000

  Symmetry constrained optimisation

  Symmetry used for second derivatives

  Cell parameters to be optimised using strains

  Newton-Raphson optimiser to be used

  BFGS hessian update to be used

  Lower half triangular hessian to be used

  Start of bulk optimisation :

  Cycle:      0 Energy:      -109.762730  Gnorm:      0.588311  CPU:    0.006
  ** Hessian calculated **
  Cycle:      1 Energy:      -109.763059  Gnorm:      0.000316  CPU:    0.009


  **** Optimisation achieved ****


  Final energy =    -109.76305939 eV
  Final Gnorm  =       0.00000099

  Components of energy : 

--------------------------------------------------------------------------------
  Interatomic potentials     =          22.28919976 eV    
  Monopole - monopole (real) =         -15.66235280 eV    
  Monopole - monopole (recip)=        -116.38990634 eV    
  Monopole - monopole (total)=        -132.05225914 eV    
--------------------------------------------------------------------------------
  Total lattice energy : 
    Primitive unit cell      =        -109.76305939 eV    
    Non-primitive unit cell  =        -439.05223754 eV    
--------------------------------------------------------------------------------
  Total lattice energy (in kJmol-1): 
    Primitive unit cell      =          -10590.4573 kJ/(mole unit cells)
    Non-primitive unit cell  =          -42361.8294 kJ/(mole unit cells)
--------------------------------------------------------------------------------

  Final asymmetric unit coordinates :

--------------------------------------------------------------------------------
   No.  Atomic        x           y           z         Radius
        Label       (Frac)      (Frac)      (Frac)       (Angs) 
--------------------------------------------------------------------------------
     1  Zr    c     0.000000    0.000000    0.000000    0.000000
     2  O     c     0.250000    0.250000    0.250000    0.000000
     3  Zr    s     0.000000    0.000000    0.000000    0.000000
     4  O     s     0.250000    0.250000    0.250000    0.000000
--------------------------------------------------------------------------------

  Final Cartesian lattice vectors (Angstroms) :

        0.000000    2.537842    2.537842
        2.537842    0.000000    2.537842
        2.537842    2.537842    0.000000


  Final cell parameters and derivatives :

--------------------------------------------------------------------------------
       a            3.589050 Angstrom     dE/de1(xx)    -0.000001 eV/strain
       b            3.589050 Angstrom     dE/de2(yy)     0.000000 eV/strain
       c            3.589050 Angstrom     dE/de3(zz)     0.000000 eV/strain
       alpha       60.000000 Degrees      dE/de4(yz)     0.000000 eV/strain
       beta        60.000000 Degrees      dE/de5(xz)     0.000000 eV/strain
       gamma       60.000000 Degrees      dE/de6(xy)     0.000000 eV/strain
--------------------------------------------------------------------------------

  Primitive cell volume =            32.690656 Angs**3

  Density of cell =      6.259124 g/cm**3

  Non-primitive lattice parameters :

  a    =     5.075684  b   =     5.075684  c    =     5.075684
  alpha=    90.000000  beta=    90.000000  gamma=    90.000000

  Non-primitive cell volume =           130.762624 Angs**3


  Final internal derivatives :

--------------------------------------------------------------------------------
   No.  Atomic          a             b             c           Radius
        Label          (eV)          (eV)          (eV)        (eV/Angs)
--------------------------------------------------------------------------------
      1 Zr    c       0.000000      0.000000      0.000000      0.000000
      2 O     c       0.000000      0.000000      0.000000      0.000000
      3 Zr    s       0.000000      0.000000      0.000000      0.000000
      4 O     s       0.000000      0.000000      0.000000      0.000000
--------------------------------------------------------------------------------
  Maximum abs         0.000000      0.000000      0.000000      0.000000
--------------------------------------------------------------------------------

  Comparison of initial and final structures : 

--------------------------------------------------------------------------------
  Parameter   Initial value   Final value   Difference    Units      Percent
--------------------------------------------------------------------------------
    Volume       130.323843    130.762624     0.438781    Angs**3      0.34
    a              5.070000      5.075684     0.005684    Angstroms    0.11
    b              5.070000      5.075684     0.005684    Angstroms    0.11
    c              5.070000      5.075684     0.005684    Angstroms    0.11
    alpha         90.000000     90.000000     0.000000    Degrees      0.00
    beta          90.000000     90.000000     0.000000    Degrees      0.00
    gamma         90.000000     90.000000     0.000000    Degrees      0.00
      1 x          0.000000      0.000000     0.000000    Fractional   0.00
      1 y          0.000000      0.000000     0.000000    Fractional   0.00
      1 z          0.000000      0.000000     0.000000    Fractional   0.00
      2 x          0.250000      0.250000     0.000000    Fractional   0.00
      2 y          0.250000      0.250000     0.000000    Fractional   0.00
      2 z          0.250000      0.250000     0.000000    Fractional   0.00
      3 x          0.000000      0.000000     0.000000    Fractional   0.00
      3 y          0.000000      0.000000     0.000000    Fractional   0.00
      3 z          0.000000      0.000000     0.000000    Fractional   0.00
      4 x          0.250000      0.250000     0.000000    Fractional   0.00
      4 y          0.250000      0.250000     0.000000    Fractional   0.00
      4 z          0.250000      0.250000     0.000000    Fractional   0.00
--------------------------------------------------------------------------------


  Distance calculation :


  Cutoff for distances  =      4.000000 Angstroms

--------------------------------------------------------------------------------
  Asymmetric unit site  Full lattice sites    No.  Distance      No.  Distance
      No.   At.No.            At.No.                (Angs)             (Angs) 
--------------------------------------------------------------------------------
       1   Zr    core        Zr    core        12    3.5891
                             Zr    shell       12    3.5891
                             O     core         8    2.1978
                             O     shell        8    2.1978
--------------------------------------------------------------------------------
       2   O     core        Zr    core         4    2.1978
                             Zr    shell        4    2.1978
                             O     core         6    2.5378       12    3.5891
                             O     shell        6    2.5378       12    3.5891
--------------------------------------------------------------------------------
       3   Zr    shell       Zr    core        12    3.5891
                             Zr    shell       12    3.5891
                             O     core         8    2.1978
                             O     shell        8    2.1978
--------------------------------------------------------------------------------
       4   O     shell       Zr    core         4    2.1978
                             Zr    shell        4    2.1978
                             O     core         6    2.5378       12    3.5891
                             O     shell        6    2.5378       12    3.5891
--------------------------------------------------------------------------------



  Born effective charge tensors : 

-------------------------------------------------------------------------------
  Atom             x           y             z
-------------------------------------------------------------------------------
    1 Zr    x       3.6770      0.0000      0.0000
            y       0.0000      3.6770      0.0000
            z       0.0000      0.0000      3.6770
-------------------------------------------------------------------------------
    2 O     x      -1.8385      0.0000      0.0000
            y       0.0000     -1.8385     -0.0000
            z       0.0000     -0.0000     -1.8385
-------------------------------------------------------------------------------




  Elastic Constant Matrix: (Units=GPa)

-------------------------------------------------------------------------------
  Indices      1         2         3         4         5         6    
-------------------------------------------------------------------------------
       1    616.2933  119.6612  119.6612   -0.0000   -0.0000   -0.0000
       2    119.6612  616.2933  119.6612   -0.0000   -0.0000   -0.0000
       3    119.6612  119.6612  616.2933   -0.0000   -0.0000   -0.0000
       4     -0.0000   -0.0000   -0.0000  100.8598    0.0000   -0.0000
       5     -0.0000   -0.0000   -0.0000    0.0000  100.8598    0.0000
       6     -0.0000   -0.0000   -0.0000   -0.0000    0.0000  100.8598
-------------------------------------------------------------------------------


  Elastic Compliance Matrix: (Units=1/GPa)

-------------------------------------------------------------------------------
  Indices      1         2         3         4         5         6    
-------------------------------------------------------------------------------
       1    0.001732 -0.000282 -0.000282  0.000000  0.000000  0.000000
       2   -0.000282  0.001732 -0.000282 -0.000000  0.000000  0.000000
       3   -0.000282 -0.000282  0.001732  0.000000  0.000000  0.000000
       4    0.000000 -0.000000  0.000000  0.009915 -0.000000  0.000000
       5    0.000000  0.000000  0.000000 -0.000000  0.009915 -0.000000
       6    0.000000  0.000000  0.000000  0.000000 -0.000000  0.009915
-------------------------------------------------------------------------------

  Mechanical properties :

-------------------------------------------------------------------------------
  Convention :                    Reuss         Voigt         Hill
-------------------------------------------------------------------------------
  Bulk  Modulus (GPa)     =     285.20524     285.20524     285.20524
  Shear Modulus (GPa)     =     132.28031     159.84228     146.06129
-------------------------------------------------------------------------------
  Velocity S-wave (km/s)  =       4.59717       5.05346       4.83071
  Velocity P-wave (km/s)  =       8.58749       8.92280       8.75675
-------------------------------------------------------------------------------
  Compressibility (1/GPa) =    0.00350625
-------------------------------------------------------------------------------
  Stress axis :                     x             y             z
-------------------------------------------------------------------------------
  Youngs Moduli (GPa)     =     577.38110     577.38110     577.38110
-------------------------------------------------------------------------------
  Poissons Ratio (x)      =                     0.16259       0.16259
  Poissons Ratio (y)      =       0.16259                     0.16259
  Poissons Ratio (z)      =       0.16259       0.16259
-------------------------------------------------------------------------------


  Piezoelectric Strain Matrix: (Units=C/m**2)

-------------------------------------------------------------------------------
  Indices      1         2         3         4         5         6    
-------------------------------------------------------------------------------
       x    -0.00000   0.00000   0.00000   0.00000   0.00000   0.00000
       y    -0.00000  -0.00000  -0.00000   0.00000   0.00000   0.00000
       z    -0.00000  -0.00000  -0.00000   0.00000   0.00000   0.00000
-------------------------------------------------------------------------------


  Piezoelectric Stress Matrix: (Units=10**-11 C/N)

-------------------------------------------------------------------------------
  Indices      1         2         3         4         5         6    
-------------------------------------------------------------------------------
       x    -0.00000   0.00000   0.00000   0.00000   0.00000   0.00000
       y    -0.00000  -0.00000  -0.00000   0.00000   0.00000   0.00000
       z     0.00000   0.00000  -0.00000   0.00000   0.00000   0.00000
-------------------------------------------------------------------------------


  Static dielectric constant tensor : 

-------------------------------------------------------------------------------
              x         y         z
-------------------------------------------------------------------------------
       x    26.88485   0.00000   0.00000
       y     0.00000  26.88485   0.00000
       z     0.00000   0.00000  26.88485
--------------------------------------------------------------------------------

  High frequency dielectric constant tensor : 

-------------------------------------------------------------------------------
              x         y         z
-------------------------------------------------------------------------------
       x     2.63099   0.00000   0.00000
       y     0.00000   2.63099   0.00000
       z     0.00000   0.00000   2.63099
-------------------------------------------------------------------------------

  Static refractive indices : 

-------------------------------------------------------------------------------
    1 =    5.18506      2 =    5.18506      3 =    5.18506
-------------------------------------------------------------------------------

  High frequency refractive indices : 

-------------------------------------------------------------------------------
    1 =    1.62203      2 =    1.62203      3 =    1.62203
-------------------------------------------------------------------------------


  Time to end of optimisation =       0.0144 seconds

********************************************************************************
*  Defect calculation for configuration   1 :                                  *
********************************************************************************

  Total number of defects =      3

  Total charge on defect  =   2.00

  Defect centre is at   0.4000   0.2500   0.2500  Frac

  Region 1 radius =  12.0000      Number of ions =   1322

  Number of symmetry inequivalent region 1 ions  =    410

  Region 2 radius =  24.0000      Number of ions =   9294

  Number of symmetry inequivalent region 2a ions =   2550

  Region 2a mode = 4 : screened electrostatics due to region 1 
                       neglect correction to region 1 forces from 2a
                       region 2a displacements based on defects only

  Region 2a ions will only interact with defects in region 1

  Vacancies:

--------------------------------------------------------------------------------
    Specification type     Symbol/Number         x          y          z
--------------------------------------------------------------------------------
    Fractional                               0.250000   0.250000   0.250000
    Fractional                               0.750000   0.250000   0.250000
--------------------------------------------------------------------------------

  Interstitials:

--------------------------------------------------------------------------------
    Specification type     Symbol/Number         x          y          z
--------------------------------------------------------------------------------
    Atom/Fractional         O                0.400000   0.250000   0.250000
--------------------------------------------------------------------------------


  Symmetry reduced region 1 (Relative to defect centre) :

--------------------------------------------------------------------------------
   No.   Atomic       x            y             z       Radius  Multiplicity   
         Label      (Angs)       (Angs)        (Angs)    (Angs)     
--------------------------------------------------------------------------------
     1  O     c      0.0000       0.0000       0.0000    0.0000     1    Defect
     2  Zr    c      0.5076 *     1.2689 *    -1.2689    0.0000     2          
     3  O     c     -0.7614 *    -0.0000 *     2.5378 *  0.0000     4          
     4  Zr    c     -2.0303 *     1.2689 *     1.2689    0.0000     2          
     5  O     c      1.7765 *     2.5378 *     0.0000 *  0.0000     4          
     6  O     c     -3.2992 *    -0.0000      -0.0000    0.0000     1          
     7  Zr    c      3.0454 *     1.2689 *     1.2689    0.0000     2          
     8  O     c     -0.7614 *     2.5378 *     2.5378    0.0000     2          
     9  O     c     -0.7614 *    -2.5378 *     2.5378    0.0000     2          
    10  O     c      1.7765 *     2.5378 *     2.5378    0.0000     2          
    11  O     c      1.7765 *    -2.5378 *     2.5378    0.0000     2          
    12  Zr    c      0.5076 *     1.2689 *     3.8068 *  0.0000     4          
    13  O     c     -3.2992 *     0.0000 *     2.5378 *  0.0000     4          
    14  O     c      4.3143 *     0.0000       0.0000    0.0000     1          
    15  Zr    c     -2.0303 *    -3.8068 *     1.2689 *  0.0000     4          
    16  O     c     -3.2992 *     2.5378 *     2.5378    0.0000     2          
    17  O     c     -3.2992 *    -2.5378 *     2.5378    0.0000     2          
    18  Zr    c     -4.5681 *    -1.2689 *     1.2689    0.0000     2          
    19  O     c      4.3143 *     2.5378 *    -0.0000 *  0.0000     4          
    20  Zr    c      3.0454 *    -3.8068 *     1.2689 *  0.0000     4          
    21  O     c     -0.7614 *    -5.0757 *     0.0000 *  0.0000     4          
    22  O     c      1.7765 *    -0.0000 *     5.0757 *  0.0000     4          
    23  Zr    c      0.5076 *    -3.8068 *     3.8068    0.0000     2          
    24  O     c      4.3143 *    -2.5378 *     2.5378    0.0000     2          
    25  O     c      4.3143 *     2.5378 *     2.5378    0.0000     2          
    26  O     c     -0.7614 *     5.0757 *     2.5378 *  0.0000     4          
    27  O     c     -0.7614 *    -2.5378 *     5.0757 *  0.0000     4          
    28  Zr    c     -2.0303 *     3.8068 *     3.8068    0.0000     2          
    29  O     c     -5.8370 *     0.0000       0.0000    0.0000     1          
    30  Zr    c      5.5833 *     1.2689 *    -1.2689    0.0000     2          
    31  O     c      1.7765 *    -5.0757 *     2.5378 *  0.0000     4          
    32  O     c      1.7765 *     5.0757 *     2.5378 *  0.0000     4          
    33  O     c     -3.2992 *    -0.0000 *     5.0757 *  0.0000     4          
    34  Zr    c     -4.5681 *     3.8068 *     1.2689 *  0.0000     4          
    35  Zr    c      3.0454 *     3.8068 *     3.8068    0.0000     2          
    36  O     c     -5.8370 *    -0.0000 *     2.5378 *  0.0000     4          
    37  Zr    c      0.5076 *    -1.2689 *     6.3446 *  0.0000     4          
    38  O     c     -3.2992 *     5.0757 *     2.5378 *  0.0000     4          
    39  O     c     -3.2992 *    -5.0757 *     2.5378 *  0.0000     4          
    40  O     c      4.3143 *     5.0757 *     0.0000 *  0.0000     4          
    41  Zr    c     -2.0303 *     6.3446 *     1.2689 *  0.0000     4          
    42  O     c     -5.8370 *     2.5378 *     2.5378    0.0000     2          
    43  O     c      6.8522 *    -0.0000      -0.0000    0.0000     1          
    44  O     c     -5.8370 *    -2.5378 *     2.5378    0.0000     2          
    45  Zr    c      5.5833 *    -3.8068 *    -1.2689 *  0.0000     4          
    46  Zr    c     -4.5681 *     3.8068 *    -3.8068    0.0000     2          
    47  O     c      4.3143 *     5.0757 *     2.5378 *  0.0000     4          
    48  O     c      4.3143 *    -2.5378 *     5.0757 *  0.0000     4          
    49  Zr    c      3.0454 *    -6.3446 *    -1.2689 *  0.0000     4          
    50  O     c     -0.7614 *    -5.0757 *     5.0757    0.0000     2          
    51  O     c     -0.7614 *     5.0757 *     5.0757    0.0000     2          
    52  O     c      6.8522 *     2.5378 *     0.0000 *  0.0000     4          
    53  Zr    c     -7.1060 *     1.2689 *     1.2689    0.0000     2          
    54  O     c      1.7765 *     5.0757 *     5.0757    0.0000     2          
    55  O     c      1.7765 *    -5.0757 *     5.0757    0.0000     2          
    56  Zr    c      0.5076 *     3.8068 *     6.3446 *  0.0000     4          
    57  O     c     -0.7614 *    -0.0000 *     7.6135 *  0.0000     4          
    58  Zr    c     -2.0303 *    -6.3446 *     3.8068 *  0.0000     4          
    59  O     c      6.8522 *     2.5378 *     2.5378    0.0000     2          
    60  O     c      6.8522 *     2.5378 *    -2.5378    0.0000     2          
    61  O     c     -5.8370 *     5.0757 *     0.0000 *  0.0000     4          
    62  Zr    c      5.5833 *     3.8068 *    -3.8068    0.0000     2          
    63  O     c      1.7765 *     0.0000 *     7.6135 *  0.0000     4          
    64  O     c     -3.2992 *     5.0757 *     5.0757    0.0000     2          
    65  O     c     -3.2992 *    -5.0757 *     5.0757    0.0000     2          
    66  Zr    c     -4.5681 *    -6.3446 *     1.2689 *  0.0000     4          
    67  Zr    c      3.0454 *    -3.8068 *     6.3446 *  0.0000     4          
    68  O     c     -0.7614 *     2.5378 *     7.6135 *  0.0000     4          
    69  O     c     -0.7614 *    -7.6135 *     2.5378 *  0.0000     4          
    70  O     c     -5.8370 *     2.5378 *     5.0757 *  0.0000     4          
    71  O     c     -5.8370 *    -2.5378 *     5.0757 *  0.0000     4          
    72  Zr    c     -7.1060 *     1.2689 *    -3.8068 *  0.0000     4          
    73  O     c      1.7765 *    -2.5378 *     7.6135 *  0.0000     4          
    74  O     c      1.7765 *     2.5378 *     7.6135 *  0.0000     4          
    75  O     c     -3.2992 *    -7.6135 *     0.0000 *  0.0000     4          
    76  Zr    c      8.1211 *     1.2689 *     1.2689    0.0000     2          
    77  O     c      4.3143 *    -5.0757 *     5.0757    0.0000     2          
    78  O     c      4.3143 *     5.0757 *     5.0757    0.0000     2          
    79  O     c     -8.3749 *    -0.0000      -0.0000    0.0000     1          
    80  O     c      6.8522 *     5.0757 *    -0.0000 *  0.0000     4          
    81  Zr    c      5.5833 *     6.3446 *    -1.2689 *  0.0000     4          
    82  O     c     -3.2992 *    -2.5378 *     7.6135 *  0.0000     4          
    83  O     c     -3.2992 *     2.5378 *     7.6135 *  0.0000     4          
    84  Zr    c     -4.5681 *     3.8068 *     6.3446 *  0.0000     4          
    85  O     c      4.3143 *    -0.0000 *     7.6135 *  0.0000     4          
    86  O     c     -8.3749 *    -2.5378 *     0.0000 *  0.0000     4          
    87  O     c      6.8522 *     5.0757 *    -2.5378 *  0.0000     4          
    88  O     c      6.8522 *     5.0757 *     2.5378 *  0.0000     4          
    89  Zr    c     -7.1060 *    -3.8068 *    -3.8068    0.0000     2          
    90  Zr    c      0.5076 *    -6.3446 *     6.3446    0.0000     2          
    91  Zr    c      0.5076 *     1.2689 *     8.8824 *  0.0000     4          
    92  Zr    c      8.1211 *     3.8068 *    -1.2689 *  0.0000     4          
    93  O     c      4.3143 *    -2.5378 *     7.6135 *  0.0000     4          
    94  O     c      4.3143 *     7.6135 *     2.5378 *  0.0000     4          
    95  O     c     -8.3749 *    -2.5378 *    -2.5378    0.0000     2          
    96  O     c     -8.3749 *    -2.5378 *     2.5378    0.0000     2          
    97  O     c     -0.7614 *     5.0757 *     7.6135 *  0.0000     4          
    98  O     c     -0.7614 *    -5.0757 *     7.6135 *  0.0000     4          
    99  Zr    c     -2.0303 *     6.3446 *     6.3446    0.0000     2          
   100  Zr    c     -2.0303 *     8.8824 *    -1.2689 *  0.0000     4          
   101  O     c     -5.8370 *     5.0757 *     5.0757    0.0000     2          
   102  O     c     -5.8370 *    -5.0757 *     5.0757    0.0000     2          
   103  Zr    c      5.5833 *     6.3446 *     3.8068 *  0.0000     4          
   104  O     c      1.7765 *    -7.6135 *     5.0757 *  0.0000     4          
   105  O     c      1.7765 *     5.0757 *     7.6135 *  0.0000     4          
   106  O     c      9.3900 *     0.0000       0.0000    0.0000     1          
   107  Zr    c      3.0454 *    -1.2689 *     8.8824 *  0.0000     4          
   108  Zr    c      3.0454 *     6.3446 *     6.3446    0.0000     2          
   109  O     c     -5.8370 *    -0.0000 *     7.6135 *  0.0000     4          
   110  Zr    c     -7.1060 *     1.2689 *     6.3446 *  0.0000     4          
   111  Zr    c      0.5076 *     8.8824 *    -3.8068 *  0.0000     4          
   112  O     c     -3.2992 *     5.0757 *     7.6135 *  0.0000     4          
   113  O     c     -3.2992 *    -7.6135 *     5.0757 *  0.0000     4          
   114  O     c      9.3900 *     2.5378 *    -0.0000 *  0.0000     4          
   115  Zr    c      8.1211 *     3.8068 *     3.8068    0.0000     2          
   116  O     c     -8.3749 *    -0.0000 *     5.0757 *  0.0000     4          
   117  Zr    c     -9.6438 *    -1.2689 *     1.2689    0.0000     2          
   118  Zr    c     -2.0303 *     3.8068 *     8.8824 *  0.0000     4          
   119  O     c     -5.8370 *     2.5378 *     7.6135 *  0.0000     4          
   120  O     c      6.8522 *     5.0757 *     5.0757    0.0000     2          
   121  O     c     -5.8370 *    -7.6135 *     2.5378 *  0.0000     4          
   122  O     c      6.8522 *    -5.0757 *     5.0757    0.0000     2          
   123  O     c      9.3900 *     2.5378 *     2.5378    0.0000     2          
   124  O     c      9.3900 *     2.5378 *    -2.5378    0.0000     2          
   125  Zr    c     -4.5681 *     6.3446 *    -6.3446    0.0000     2          
   126  Zr    c     -4.5681 *     1.2689 *     8.8824 *  0.0000     4          
   127  O     c      4.3143 *     5.0757 *     7.6135 *  0.0000     4          
   128  O     c      4.3143 *    -5.0757 *     7.6135 *  0.0000     4          
   129  O     c     -8.3749 *    -5.0757 *    -2.5378 *  0.0000     4          
   130  O     c     -8.3749 *    -5.0757 *     2.5378 *  0.0000     4          
   131  Zr    c      3.0454 *     8.8824 *     3.8068 *  0.0000     4          
   132  O     c     -0.7614 *    -0.0000 *    10.1514 *  0.0000     4          
   133  O     c      6.8522 *     7.6135 *     0.0000 *  0.0000     4          
   134  Zr    c     -7.1060 *     3.8068 *    -6.3446 *  0.0000     4          
   135  O     c      1.7765 *    -0.0000 *    10.1514 *  0.0000     4          
   136  Zr    c      8.1211 *     6.3446 *     1.2689 *  0.0000     4          
   137  Zr    c     -9.6438 *    -1.2689 *    -3.8068 *  0.0000     4          
   138  O     c     -0.7614 *    10.1514 *    -2.5378 *  0.0000     4          
   139  O     c     -0.7614 *     2.5378 *    10.1514 *  0.0000     4          
   140  O     c      6.8522 *     2.5378 *     7.6135 *  0.0000     4          
   141  O     c      6.8522 *    -2.5378 *     7.6135 *  0.0000     4          
   142  Zr    c      5.5833 *     6.3446 *    -6.3446    0.0000     2          
   143  Zr    c      5.5833 *     8.8824 *     1.2689 *  0.0000     4          
   144  O     c      1.7765 *    -2.5378 *    10.1514 *  0.0000     4          
   145  O     c      1.7765 *     2.5378 *    10.1514 *  0.0000     4          
   146  O     c      9.3900 *     0.0000 *    -5.0757 *  0.0000     4          
   147  O     c     -3.2992 *    -0.0000 *    10.1514 *  0.0000     4          
   148  Zr    c     -4.5681 *    -8.8824 *     3.8068 *  0.0000     4          
   149  O     c     -0.7614 *    -7.6135 *     7.6135    0.0000     2          
   150  O     c     -0.7614 *     7.6135 *     7.6135    0.0000     2          
   151  Zr    c     10.6589 *     1.2689 *    -1.2689    0.0000     2          
   152  O     c     -5.8370 *     5.0757 *     7.6135 *  0.0000     4          
   153  O     c     -5.8370 *     7.6135 *    -5.0757 *  0.0000     4          
   154  O     c      1.7765 *     7.6135 *     7.6135    0.0000     2          
   155  O     c      1.7765 *    -7.6135 *     7.6135    0.0000     2          
   156  O     c    -10.9127 *    -0.0000       0.0000    0.0000     1          
   157  Zr    c      0.5076 *     8.8824 *     6.3446 *  0.0000     4          
   158  O     c     -3.2992 *     2.5378 *    10.1514 *  0.0000     4          
   159  O     c      9.3900 *     5.0757 *     2.5378 *  0.0000     4          
   160  O     c      9.3900 *     5.0757 *    -2.5378 *  0.0000     4          
   161  O     c     -3.2992 *   -10.1514 *     2.5378 *  0.0000     4          
   162  Zr    c      8.1211 *     6.3446 *    -3.8068 *  0.0000     4          
   163  O     c      4.3143 *     0.0000 *    10.1514 *  0.0000     4          
   164  O     c     -8.3749 *     5.0757 *     5.0757    0.0000     2          
   165  O     c     -8.3749 *    -5.0757 *     5.0757    0.0000     2          
   166  Zr    c     -9.6438 *    -3.8068 *     3.8068    0.0000     2          
   167  Zr    c     -2.0303 *    -8.8824 *     6.3446 *  0.0000     4          
   168  Zr    c      5.5833 *     8.8824 *    -3.8068 *  0.0000     4          
   169  O     c    -10.9127 *    -2.5378 *    -0.0000 *  0.0000     4          
   170  O     c     -3.2992 *     7.6135 *     7.6135    0.0000     2          
   171  O     c     -3.2992 *    -7.6135 *     7.6135    0.0000     2          
   172  O     c      4.3143 *    -2.5378 *    10.1514 *  0.0000     4          
   173  O     c      4.3143 *     2.5378 *    10.1514 *  0.0000     4          
   174  O     c     -8.3749 *    -7.6135 *     0.0000 *  0.0000     4          
   175  Zr    c      3.0454 *    -6.3446 *     8.8824 *  0.0000     4          
   176  O     c     -0.7614 *    10.1514 *     5.0757 *  0.0000     4          
   177  O     c     -0.7614 *   -10.1514 *     5.0757 *  0.0000     4          
   178  Zr    c     10.6589 *     1.2689 *     3.8068 *  0.0000     4          
   179  O     c      6.8522 *    -5.0757 *     7.6135 *  0.0000     4          
   180  O     c      6.8522 *     7.6135 *     5.0757 *  0.0000     4          
   181  Zr    c     -7.1060 *     1.2689 *    -8.8824 *  0.0000     4          
   182  Zr    c     -7.1060 *     6.3446 *     6.3446    0.0000     2          
   183  O     c      1.7765 *    -5.0757 *    10.1514 *  0.0000     4          
   184  O     c      1.7765 *     5.0757 *    10.1514 *  0.0000     4          
   185  O     c    -10.9127 *    -2.5378 *    -2.5378    0.0000     2          
   186  O     c    -10.9127 *    -2.5378 *     2.5378    0.0000     2          
   187  Zr    c      0.5076 *    -1.2689 *    11.4203 *  0.0000     4          
   188  O     c      4.3143 *    -7.6135 *     7.6135    0.0000     2          
   189  O     c      4.3143 *     7.6135 *     7.6135    0.0000     2          
   190  O     c     -8.3749 *    -2.5378 *     7.6135 *  0.0000     4          
   191  O     c     -8.3749 *     2.5378 *     7.6135 *  0.0000     4          
   192  Zr    c     -9.6438 *     1.2689 *    -6.3446 *  0.0000     4          
   193  Zr    c     -2.0303 *     1.2689 *    11.4203 *  0.0000     4          
   194  O     c     -5.8370 *   -10.1514 *     0.0000 *  0.0000     4          
   195  O     c      9.3900 *    -5.0757 *    -5.0757    0.0000     2          
   196  O     c      9.3900 *     5.0757 *    -5.0757    0.0000     2          
   197  O     c     -3.2992 *     5.0757 *    10.1514 *  0.0000     4          
   198  O     c     -3.2992 *   -10.1514 *     5.0757 *  0.0000     4          
   199  Zr    c     -4.5681 *     6.3446 *     8.8824 *  0.0000     4          
   200  Zr    c      3.0454 *     1.2689 *    11.4203 *  0.0000     4          
   201  O     c     11.9279 *    -0.0000      -0.0000    0.0000     1          
   202  Zr    c     10.6589 *     3.8068 *    -3.8068    0.0000     2          
   203  O     c     -5.8370 *     2.5378 *    10.1514 *  0.0000     4          
   204  O     c     -5.8370 *    -2.5378 *    10.1514 *  0.0000     4          
   205  Zr    c     -7.1060 *     3.8068 *     8.8824 *  0.0000     4          
   206  O     s      0.0000       0.0000       0.0000    0.0000     1    Defect
   207  Zr    s      0.5076 *     1.2689 *    -1.2689    0.0000     2          
   208  O     s     -0.7614 *    -0.0000 *     2.5378 *  0.0000     4          
   209  Zr    s     -2.0303 *     1.2689 *     1.2689    0.0000     2          
   210  O     s      1.7765 *     2.5378 *     0.0000 *  0.0000     4          
   211  O     s     -3.2992 *    -0.0000      -0.0000    0.0000     1          
   212  Zr    s      3.0454 *     1.2689 *     1.2689    0.0000     2          
   213  O     s     -0.7614 *     2.5378 *     2.5378    0.0000     2          
   214  O     s     -0.7614 *    -2.5378 *     2.5378    0.0000     2          
   215  O     s      1.7765 *     2.5378 *     2.5378    0.0000     2          
   216  O     s      1.7765 *    -2.5378 *     2.5378    0.0000     2          
   217  Zr    s      0.5076 *     1.2689 *     3.8068 *  0.0000     4          
   218  O     s     -3.2992 *     0.0000 *     2.5378 *  0.0000     4          
   219  O     s      4.3143 *     0.0000       0.0000    0.0000     1          
   220  Zr    s     -2.0303 *    -3.8068 *     1.2689 *  0.0000     4          
   221  O     s     -3.2992 *     2.5378 *     2.5378    0.0000     2          
   222  O     s     -3.2992 *    -2.5378 *     2.5378    0.0000     2          
   223  Zr    s     -4.5681 *    -1.2689 *     1.2689    0.0000     2          
   224  O     s      4.3143 *     2.5378 *    -0.0000 *  0.0000     4          
   225  Zr    s      3.0454 *    -3.8068 *     1.2689 *  0.0000     4          
   226  O     s     -0.7614 *    -5.0757 *     0.0000 *  0.0000     4          
   227  O     s      1.7765 *    -0.0000 *     5.0757 *  0.0000     4          
   228  Zr    s      0.5076 *    -3.8068 *     3.8068    0.0000     2          
   229  O     s      4.3143 *    -2.5378 *     2.5378    0.0000     2          
   230  O     s      4.3143 *     2.5378 *     2.5378    0.0000     2          
   231  O     s     -0.7614 *     5.0757 *     2.5378 *  0.0000     4          
   232  O     s     -0.7614 *    -2.5378 *     5.0757 *  0.0000     4          
   233  Zr    s     -2.0303 *     3.8068 *     3.8068    0.0000     2          
   234  O     s     -5.8370 *     0.0000       0.0000    0.0000     1          
   235  Zr    s      5.5833 *     1.2689 *    -1.2689    0.0000     2          
   236  O     s      1.7765 *    -5.0757 *     2.5378 *  0.0000     4          
   237  O     s      1.7765 *     5.0757 *     2.5378 *  0.0000     4          
   238  O     s     -3.2992 *    -0.0000 *     5.0757 *  0.0000     4          
   239  Zr    s     -4.5681 *     3.8068 *     1.2689 *  0.0000     4          
   240  Zr    s      3.0454 *     3.8068 *     3.8068    0.0000     2          
   241  O     s     -5.8370 *    -0.0000 *     2.5378 *  0.0000     4          
   242  Zr    s      0.5076 *    -1.2689 *     6.3446 *  0.0000     4          
   243  O     s     -3.2992 *     5.0757 *     2.5378 *  0.0000     4          
   244  O     s     -3.2992 *    -5.0757 *     2.5378 *  0.0000     4          
   245  O     s      4.3143 *     5.0757 *     0.0000 *  0.0000     4          
   246  Zr    s     -2.0303 *     6.3446 *     1.2689 *  0.0000     4          
   247  O     s     -5.8370 *     2.5378 *     2.5378    0.0000     2          
   248  O     s      6.8522 *    -0.0000      -0.0000    0.0000     1          
   249  O     s     -5.8370 *    -2.5378 *     2.5378    0.0000     2          
   250  Zr    s      5.5833 *    -3.8068 *    -1.2689 *  0.0000     4          
   251  Zr    s     -4.5681 *     3.8068 *    -3.8068    0.0000     2          
   252  O     s      4.3143 *     5.0757 *     2.5378 *  0.0000     4          
   253  O     s      4.3143 *    -2.5378 *     5.0757 *  0.0000     4          
   254  Zr    s      3.0454 *    -6.3446 *    -1.2689 *  0.0000     4          
   255  O     s     -0.7614 *    -5.0757 *     5.0757    0.0000     2          
   256  O     s     -0.7614 *     5.0757 *     5.0757    0.0000     2          
   257  O     s      6.8522 *     2.5378 *     0.0000 *  0.0000     4          
   258  Zr    s     -7.1060 *     1.2689 *     1.2689    0.0000     2          
   259  O     s      1.7765 *     5.0757 *     5.0757    0.0000     2          
   260  O     s      1.7765 *    -5.0757 *     5.0757    0.0000     2          
   261  Zr    s      0.5076 *     3.8068 *     6.3446 *  0.0000     4          
   262  O     s     -0.7614 *    -0.0000 *     7.6135 *  0.0000     4          
   263  Zr    s     -2.0303 *    -6.3446 *     3.8068 *  0.0000     4          
   264  O     s      6.8522 *     2.5378 *     2.5378    0.0000     2          
   265  O     s      6.8522 *     2.5378 *    -2.5378    0.0000     2          
   266  O     s     -5.8370 *     5.0757 *     0.0000 *  0.0000     4          
   267  Zr    s      5.5833 *     3.8068 *    -3.8068    0.0000     2          
   268  O     s      1.7765 *     0.0000 *     7.6135 *  0.0000     4          
   269  O     s     -3.2992 *     5.0757 *     5.0757    0.0000     2          
   270  O     s     -3.2992 *    -5.0757 *     5.0757    0.0000     2          
   271  Zr    s     -4.5681 *    -6.3446 *     1.2689 *  0.0000     4          
   272  Zr    s      3.0454 *    -3.8068 *     6.3446 *  0.0000     4          
   273  O     s     -0.7614 *     2.5378 *     7.6135 *  0.0000     4          
   274  O     s     -0.7614 *    -7.6135 *     2.5378 *  0.0000     4          
   275  O     s     -5.8370 *     2.5378 *     5.0757 *  0.0000     4          
   276  O     s     -5.8370 *    -2.5378 *     5.0757 *  0.0000     4          
   277  Zr    s     -7.1060 *     1.2689 *    -3.8068 *  0.0000     4          
   278  O     s      1.7765 *    -2.5378 *     7.6135 *  0.0000     4          
   279  O     s      1.7765 *     2.5378 *     7.6135 *  0.0000     4          
   280  O     s     -3.2992 *    -7.6135 *     0.0000 *  0.0000     4          
   281  Zr    s      8.1211 *     1.2689 *     1.2689    0.0000     2          
   282  O     s      4.3143 *    -5.0757 *     5.0757    0.0000     2          
   283  O     s      4.3143 *     5.0757 *     5.0757    0.0000     2          
   284  O     s     -8.3749 *    -0.0000      -0.0000    0.0000     1          
   285  O     s      6.8522 *     5.0757 *    -0.0000 *  0.0000     4          
   286  Zr    s      5.5833 *     6.3446 *    -1.2689 *  0.0000     4          
   287  O     s     -3.2992 *    -2.5378 *     7.6135 *  0.0000     4          
   288  O     s     -3.2992 *     2.5378 *     7.6135 *  0.0000     4          
   289  Zr    s     -4.5681 *     3.8068 *     6.3446 *  0.0000     4          
   290  O     s      4.3143 *    -0.0000 *     7.6135 *  0.0000     4          
   291  O     s     -8.3749 *    -2.5378 *     0.0000 *  0.0000     4          
   292  O     s      6.8522 *     5.0757 *    -2.5378 *  0.0000     4          
   293  O     s      6.8522 *     5.0757 *     2.5378 *  0.0000     4          
   294  Zr    s     -7.1060 *    -3.8068 *    -3.8068    0.0000     2          
   295  Zr    s      0.5076 *    -6.3446 *     6.3446    0.0000     2          
   296  Zr    s      0.5076 *     1.2689 *     8.8824 *  0.0000     4          
   297  Zr    s      8.1211 *     3.8068 *    -1.2689 *  0.0000     4          
   298  O     s      4.3143 *    -2.5378 *     7.6135 *  0.0000     4          
   299  O     s      4.3143 *     7.6135 *     2.5378 *  0.0000     4          
   300  O     s     -8.3749 *    -2.5378 *    -2.5378    0.0000     2          
   301  O     s     -8.3749 *    -2.5378 *     2.5378    0.0000     2          
   302  O     s     -0.7614 *     5.0757 *     7.6135 *  0.0000     4          
   303  O     s     -0.7614 *    -5.0757 *     7.6135 *  0.0000     4          
   304  Zr    s     -2.0303 *     6.3446 *     6.3446    0.0000     2          
   305  Zr    s     -2.0303 *     8.8824 *    -1.2689 *  0.0000     4          
   306  O     s     -5.8370 *     5.0757 *     5.0757    0.0000     2          
   307  O     s     -5.8370 *    -5.0757 *     5.0757    0.0000     2          
   308  Zr    s      5.5833 *     6.3446 *     3.8068 *  0.0000     4          
   309  O     s      1.7765 *    -7.6135 *     5.0757 *  0.0000     4          
   310  O     s      1.7765 *     5.0757 *     7.6135 *  0.0000     4          
   311  O     s      9.3900 *     0.0000       0.0000    0.0000     1          
   312  Zr    s      3.0454 *    -1.2689 *     8.8824 *  0.0000     4          
   313  Zr    s      3.0454 *     6.3446 *     6.3446    0.0000     2          
   314  O     s     -5.8370 *    -0.0000 *     7.6135 *  0.0000     4          
   315  Zr    s     -7.1060 *     1.2689 *     6.3446 *  0.0000     4          
   316  Zr    s      0.5076 *     8.8824 *    -3.8068 *  0.0000     4          
   317  O     s     -3.2992 *     5.0757 *     7.6135 *  0.0000     4          
   318  O     s     -3.2992 *    -7.6135 *     5.0757 *  0.0000     4          
   319  O     s      9.3900 *     2.5378 *    -0.0000 *  0.0000     4          
   320  Zr    s      8.1211 *     3.8068 *     3.8068    0.0000     2          
   321  O     s     -8.3749 *    -0.0000 *     5.0757 *  0.0000     4          
   322  Zr    s     -9.6438 *    -1.2689 *     1.2689    0.0000     2          
   323  Zr    s     -2.0303 *     3.8068 *     8.8824 *  0.0000     4          
   324  O     s     -5.8370 *     2.5378 *     7.6135 *  0.0000     4          
   325  O     s      6.8522 *     5.0757 *     5.0757    0.0000     2          
   326  O     s     -5.8370 *    -7.6135 *     2.5378 *  0.0000     4          
   327  O     s      6.8522 *    -5.0757 *     5.0757    0.0000     2          
   328  O     s      9.3900 *     2.5378 *     2.5378    0.0000     2          
   329  O     s      9.3900 *     2.5378 *    -2.5378    0.0000     2          
   330  Zr    s     -4.5681 *     6.3446 *    -6.3446    0.0000     2          
   331  Zr    s     -4.5681 *     1.2689 *     8.8824 *  0.0000     4          
   332  O     s      4.3143 *     5.0757 *     7.6135 *  0.0000     4          
   333  O     s      4.3143 *    -5.0757 *     7.6135 *  0.0000     4          
   334  O     s     -8.3749 *    -5.0757 *    -2.5378 *  0.0000     4          
   335  O     s     -8.3749 *    -5.0757 *     2.5378 *  0.0000     4          
   336  Zr    s      3.0454 *     8.8824 *     3.8068 *  0.0000     4          
   337  O     s     -0.7614 *    -0.0000 *    10.1514 *  0.0000     4          
   338  O     s      6.8522 *     7.6135 *     0.0000 *  0.0000     4          
   339  Zr    s     -7.1060 *     3.8068 *    -6.3446 *  0.0000     4          
   340  O     s      1.7765 *    -0.0000 *    10.1514 *  0.0000     4          
   341  Zr    s      8.1211 *     6.3446 *     1.2689 *  0.0000     4          
   342  Zr    s     -9.6438 *    -1.2689 *    -3.8068 *  0.0000     4          
   343  O     s     -0.7614 *    10.1514 *    -2.5378 *  0.0000     4          
   344  O     s     -0.7614 *     2.5378 *    10.1514 *  0.0000     4          
   345  O     s      6.8522 *     2.5378 *     7.6135 *  0.0000     4          
   346  O     s      6.8522 *    -2.5378 *     7.6135 *  0.0000     4          
   347  Zr    s      5.5833 *     6.3446 *    -6.3446    0.0000     2          
   348  Zr    s      5.5833 *     8.8824 *     1.2689 *  0.0000     4          
   349  O     s      1.7765 *    -2.5378 *    10.1514 *  0.0000     4          
   350  O     s      1.7765 *     2.5378 *    10.1514 *  0.0000     4          
   351  O     s      9.3900 *     0.0000 *    -5.0757 *  0.0000     4          
   352  O     s     -3.2992 *    -0.0000 *    10.1514 *  0.0000     4          
   353  Zr    s     -4.5681 *    -8.8824 *     3.8068 *  0.0000     4          
   354  O     s     -0.7614 *    -7.6135 *     7.6135    0.0000     2          
   355  O     s     -0.7614 *     7.6135 *     7.6135    0.0000     2          
   356  Zr    s     10.6589 *     1.2689 *    -1.2689    0.0000     2          
   357  O     s     -5.8370 *     5.0757 *     7.6135 *  0.0000     4          
   358  O     s     -5.8370 *     7.6135 *    -5.0757 *  0.0000     4          
   359  O     s      1.7765 *     7.6135 *     7.6135    0.0000     2          
   360  O     s      1.7765 *    -7.6135 *     7.6135    0.0000     2          
   361  O     s    -10.9127 *    -0.0000       0.0000    0.0000     1          
   362  Zr    s      0.5076 *     8.8824 *     6.3446 *  0.0000     4          
   363  O     s     -3.2992 *     2.5378 *    10.1514 *  0.0000     4          
   364  O     s      9.3900 *     5.0757 *     2.5378 *  0.0000     4          
   365  O     s      9.3900 *     5.0757 *    -2.5378 *  0.0000     4          
   366  O     s     -3.2992 *   -10.1514 *     2.5378 *  0.0000     4          
   367  Zr    s      8.1211 *     6.3446 *    -3.8068 *  0.0000     4          
   368  O     s      4.3143 *     0.0000 *    10.1514 *  0.0000     4          
   369  O     s     -8.3749 *     5.0757 *     5.0757    0.0000     2          
   370  O     s     -8.3749 *    -5.0757 *     5.0757    0.0000     2          
   371  Zr    s     -9.6438 *    -3.8068 *     3.8068    0.0000     2          
   372  Zr    s     -2.0303 *    -8.8824 *     6.3446 *  0.0000     4          
   373  Zr    s      5.5833 *     8.8824 *    -3.8068 *  0.0000     4          
   374  O     s    -10.9127 *    -2.5378 *    -0.0000 *  0.0000     4          
   375  O     s     -3.2992 *     7.6135 *     7.6135    0.0000     2          
   376  O     s     -3.2992 *    -7.6135 *     7.6135    0.0000     2          
   377  O     s      4.3143 *    -2.5378 *    10.1514 *  0.0000     4          
   378  O     s      4.3143 *     2.5378 *    10.1514 *  0.0000     4          
   379  O     s     -8.3749 *    -7.6135 *     0.0000 *  0.0000     4          
   380  Zr    s      3.0454 *    -6.3446 *     8.8824 *  0.0000     4          
   381  O     s     -0.7614 *    10.1514 *     5.0757 *  0.0000     4          
   382  O     s     -0.7614 *   -10.1514 *     5.0757 *  0.0000     4          
   383  Zr    s     10.6589 *     1.2689 *     3.8068 *  0.0000     4          
   384  O     s      6.8522 *    -5.0757 *     7.6135 *  0.0000     4          
   385  O     s      6.8522 *     7.6135 *     5.0757 *  0.0000     4          
   386  Zr    s     -7.1060 *     1.2689 *    -8.8824 *  0.0000     4          
   387  Zr    s     -7.1060 *     6.3446 *     6.3446    0.0000     2          
   388  O     s      1.7765 *    -5.0757 *    10.1514 *  0.0000     4          
   389  O     s      1.7765 *     5.0757 *    10.1514 *  0.0000     4          
   390  O     s    -10.9127 *    -2.5378 *    -2.5378    0.0000     2          
   391  O     s    -10.9127 *    -2.5378 *     2.5378    0.0000     2          
   392  Zr    s      0.5076 *    -1.2689 *    11.4203 *  0.0000     4          
   393  O     s      4.3143 *    -7.6135 *     7.6135    0.0000     2          
   394  O     s      4.3143 *     7.6135 *     7.6135    0.0000     2          
   395  O     s     -8.3749 *    -2.5378 *     7.6135 *  0.0000     4          
   396  O     s     -8.3749 *     2.5378 *     7.6135 *  0.0000     4          
   397  Zr    s     -9.6438 *     1.2689 *    -6.3446 *  0.0000     4          
   398  Zr    s     -2.0303 *     1.2689 *    11.4203 *  0.0000     4          
   399  O     s     -5.8370 *   -10.1514 *     0.0000 *  0.0000     4          
   400  O     s      9.3900 *    -5.0757 *    -5.0757    0.0000     2          
   401  O     s      9.3900 *     5.0757 *    -5.0757    0.0000     2          
   402  O     s     -3.2992 *     5.0757 *    10.1514 *  0.0000     4          
   403  O     s     -3.2992 *   -10.1514 *     5.0757 *  0.0000     4          
   404  Zr    s     -4.5681 *     6.3446 *     8.8824 *  0.0000     4          
   405  Zr    s      3.0454 *     1.2689 *    11.4203 *  0.0000     4          
   406  O     s     11.9279 *    -0.0000      -0.0000    0.0000     1          
   407  Zr    s     10.6589 *     3.8068 *    -3.8068    0.0000     2          
   408  O     s     -5.8370 *     2.5378 *    10.1514 *  0.0000     4          
   409  O     s     -5.8370 *    -2.5378 *    10.1514 *  0.0000     4          
   410  Zr    s     -7.1060 *     3.8068 *     8.8824 *  0.0000     4          
--------------------------------------------------------------------------------


  Constraints on symmetry reduced coordinates :

--------------------------------------------------------------------------------
  Constraint no.      Unconstrained     Constrained    Coefficient    
                         Variable         Variable
--------------------------------------------------------------------------------
           1                 2 y             2 z        -1.00000
           2                 4 y             4 z         1.00000
           3                 7 y             7 z         1.00000
           4                 8 y             8 z         1.00000
           5                 9 y             9 z        -1.00000
           6                10 y            10 z         1.00000
           7                11 y            11 z        -1.00000
           8                16 y            16 z         1.00000
           9                17 y            17 z        -1.00000
          10                18 y            18 z        -1.00000
          11                23 y            23 z        -1.00000
          12                24 y            24 z        -1.00000
          13                25 y            25 z         1.00000
          14                28 y            28 z         1.00000
          15                30 y            30 z        -1.00000
          16                35 y            35 z         1.00000
          17                42 y            42 z         1.00000
          18                44 y            44 z        -1.00000
          19                46 y            46 z        -1.00000
          20                50 y            50 z        -1.00000
          21                51 y            51 z         1.00000
          22                53 y            53 z         1.00000
          23                54 y            54 z         1.00000
          24                55 y            55 z        -1.00000
          25                59 y            59 z         1.00000
          26                60 y            60 z        -1.00000
          27                62 y            62 z        -1.00000
          28                64 y            64 z         1.00000
          29                65 y            65 z        -1.00000
          30                76 y            76 z         1.00000
          31                77 y            77 z        -1.00000
          32                78 y            78 z         1.00000
          33                89 y            89 z         1.00000
          34                90 y            90 z        -1.00000
          35                95 y            95 z         1.00000
          36                96 y            96 z        -1.00000
          37                99 y            99 z         1.00000
          38               101 y           101 z         1.00000
          39               102 y           102 z        -1.00000
          40               108 y           108 z         1.00000
          41               115 y           115 z         1.00000
          42               117 y           117 z        -1.00000
          43               120 y           120 z         1.00000
          44               122 y           122 z        -1.00000
          45               123 y           123 z         1.00000
          46               124 y           124 z        -1.00000
          47               125 y           125 z        -1.00000
          48               142 y           142 z        -1.00000
          49               149 y           149 z        -1.00000
          50               150 y           150 z         1.00000
          51               151 y           151 z        -1.00000
          52               154 y           154 z         1.00000
          53               155 y           155 z        -1.00000
          54               164 y           164 z         1.00000
          55               165 y           165 z        -1.00000
          56               166 y           166 z        -1.00000
          57               170 y           170 z         1.00000
          58               171 y           171 z        -1.00000
          59               182 y           182 z         1.00000
          60               185 y           185 z         1.00000
          61               186 y           186 z        -1.00000
          62               188 y           188 z        -1.00000
          63               189 y           189 z         1.00000
          64               195 y           195 z         1.00000
          65               196 y           196 z        -1.00000
          66               202 y           202 z        -1.00000
          67               207 y           207 z        -1.00000
          68               209 y           209 z         1.00000
          69               212 y           212 z         1.00000
          70               213 y           213 z         1.00000
          71               214 y           214 z        -1.00000
          72               215 y           215 z         1.00000
          73               216 y           216 z        -1.00000
          74               221 y           221 z         1.00000
          75               222 y           222 z        -1.00000
          76               223 y           223 z        -1.00000
          77               228 y           228 z        -1.00000
          78               229 y           229 z        -1.00000
          79               230 y           230 z         1.00000
          80               233 y           233 z         1.00000
          81               235 y           235 z        -1.00000
          82               240 y           240 z         1.00000
          83               247 y           247 z         1.00000
          84               249 y           249 z        -1.00000
          85               251 y           251 z        -1.00000
          86               255 y           255 z        -1.00000
          87               256 y           256 z         1.00000
          88               258 y           258 z         1.00000
          89               259 y           259 z         1.00000
          90               260 y           260 z        -1.00000
          91               264 y           264 z         1.00000
          92               265 y           265 z        -1.00000
          93               267 y           267 z        -1.00000
          94               269 y           269 z         1.00000
          95               270 y           270 z        -1.00000
          96               281 y           281 z         1.00000
          97               282 y           282 z        -1.00000
          98               283 y           283 z         1.00000
          99               294 y           294 z         1.00000
         100               295 y           295 z        -1.00000
         101               300 y           300 z         1.00000
         102               301 y           301 z        -1.00000
         103               304 y           304 z         1.00000
         104               306 y           306 z         1.00000
         105               307 y           307 z        -1.00000
         106               313 y           313 z         1.00000
         107               320 y           320 z         1.00000
         108               322 y           322 z        -1.00000
         109               325 y           325 z         1.00000
         110               327 y           327 z        -1.00000
         111               328 y           328 z         1.00000
         112               329 y           329 z        -1.00000
         113               330 y           330 z        -1.00000
         114               347 y           347 z        -1.00000
         115               354 y           354 z        -1.00000
         116               355 y           355 z         1.00000
         117               356 y           356 z        -1.00000
         118               359 y           359 z         1.00000
         119               360 y           360 z        -1.00000
         120               369 y           369 z         1.00000
         121               370 y           370 z        -1.00000
         122               371 y           371 z        -1.00000
         123               375 y           375 z         1.00000
         124               376 y           376 z        -1.00000
         125               387 y           387 z         1.00000
         126               390 y           390 z         1.00000
         127               391 y           391 z        -1.00000
         128               393 y           393 z        -1.00000
         129               394 y           394 z         1.00000
         130               400 y           400 z         1.00000
         131               401 y           401 z        -1.00000
         132               407 y           407 z        -1.00000
--------------------------------------------------------------------------------


  Components of defect energy : 

--------------------------------------------------------------------------------
  Region 1 - region 1                   =     21.70725356 eV
  Region 1 - region 2a (unrelaxed)      =      9.81946833 eV
  Region 1 - 2a (relaxed - correction)  =     -2.34496073 eV
  Region 1 (Total)                      =     29.18176116 eV
  Region 2a                             =      1.17250705 eV
  Region 2b                             =     -1.15710395 eV
--------------------------------------------------------------------------------
  Total defect energy                   =     29.19716426 eV
--------------------------------------------------------------------------------

  Largest displacement in region 2 =   0.0056 Angstroms


  Number of variables =     1060

  Maximum number of calculations  =        1000
  Maximum Hessian update interval =          10
  Maximum step size               =   1.0000000
  Maximum parameter tolerance     =   0.0000100
  Maximum function  tolerance     =   0.0000100
  Maximum gradient  tolerance     =   0.0010000

  Symmetry adapted optimisation

  Symmetry to be used for second derivatives

  Newton-Raphson optimiser to be used

  BFGS hessian update to be used

  Lower half triangular hessian to be used

  Start of defect optimisation :

  Cycle:      0 Defect Energy:  29.197164  Gnorm:     0.083866  CPU:    4.812
  ** Hessian calculated **
  Cycle:      1 Defect Energy:  23.763838  Gnorm:     0.064744  CPU:   21.608
  ** Hessian calculated **
  Cycle:      2 Defect Energy:  15.732722  Gnorm:     0.022742  CPU:   38.570
  Cycle:      3 Defect Energy:  14.913876  Gnorm:     0.006868  CPU:   44.318
  Cycle:      4 Defect Energy:  14.775041  Gnorm:     0.002056  CPU:   50.052
  Cycle:      5 Defect Energy:  14.746890  Gnorm:     0.001712  CPU:   51.590
  Cycle:      6 Defect Energy:  14.724985  Gnorm:     0.001538  CPU:   53.118
  Cycle:      7 Defect Energy:  14.707556  Gnorm:     0.001563  CPU:   54.645
  Cycle:      8 Defect Energy:  14.695865  Gnorm:     0.001336  CPU:   56.176
  Cycle:      9 Defect Energy:  14.687686  Gnorm:     0.001154  CPU:   57.707
  Cycle:     10 Defect Energy:  14.681620  Gnorm:     0.000950  CPU:   59.235
  Cycle:     11 Defect Energy:  14.676905  Gnorm:     0.000752  CPU:   60.771
  ** Hessian calculated **
  Cycle:     12 Defect Energy:  14.672606  Gnorm:     0.000551  CPU:   67.930
  Cycle:     13 Defect Energy:  14.669920  Gnorm:     0.000424  CPU:   69.458
  Cycle:     14 Defect Energy:  14.667866  Gnorm:     0.000330  CPU:   70.990
  Cycle:     15 Defect Energy:  14.666298  Gnorm:     0.000264  CPU:   72.533
  Cycle:     16 Defect Energy:  14.665114  Gnorm:     0.000222  CPU:   74.065
  Cycle:     17 Defect Energy:  14.663956  Gnorm:     0.000201  CPU:   75.596
  Cycle:     18 Defect Energy:  14.662885  Gnorm:     0.000208  CPU:   77.126
  Cycle:     19 Defect Energy:  14.661731  Gnorm:     0.000273  CPU:   78.652
  Cycle:     20 Defect Energy:  14.660143  Gnorm:     0.000508  CPU:   80.187
  Cycle:     21 Defect Energy:  14.659178  Gnorm:     0.000713  CPU:   81.736
  ** Hessian calculated **
  Cycle:     22 Defect Energy:  14.658939  Gnorm:     0.000333  CPU:   88.890
  Cycle:     23 Defect Energy:  14.658870  Gnorm:     0.000233  CPU:   90.422
  Cycle:     24 Defect Energy:  14.658804  Gnorm:     0.000153  CPU:   91.963
  Cycle:     25 Defect Energy:  14.658741  Gnorm:     0.000101  CPU:   93.491
  Cycle:     26 Defect Energy:  14.658696  Gnorm:     0.000084  CPU:   95.021
  Cycle:     27 Defect Energy:  14.658657  Gnorm:     0.000089  CPU:   96.548
  Cycle:     28 Defect Energy:  14.658628  Gnorm:     0.000097  CPU:   98.076
  Cycle:     29 Defect Energy:  14.658598  Gnorm:     0.000103  CPU:   99.604
  Cycle:     30 Defect Energy:  14.658572  Gnorm:     0.000104  CPU:  101.135
  Cycle:     31 Defect Energy:  14.658547  Gnorm:     0.000100  CPU:  102.674
  ** Hessian calculated **
  Cycle:     32 Defect Energy:  14.658531  Gnorm:     0.000100  CPU:  109.828
  Cycle:     33 Defect Energy:  14.658506  Gnorm:     0.000099  CPU:  111.361
  Cycle:     34 Defect Energy:  14.658469  Gnorm:     0.000097  CPU:  112.904
  Cycle:     35 Defect Energy:  14.658414  Gnorm:     0.000095  CPU:  114.429
  Cycle:     36 Defect Energy:  14.658333  Gnorm:     0.000091  CPU:  115.966
  Cycle:     37 Defect Energy:  14.658179  Gnorm:     0.000085  CPU:  117.492
  Cycle:     38 Defect Energy:  14.658016  Gnorm:     0.000073  CPU:  119.025
  Cycle:     39 Defect Energy:  14.657762  Gnorm:     0.000052  CPU:  120.563
  Cycle:     40 Defect Energy:  14.657563  Gnorm:     0.000029  CPU:  122.103
  Cycle:     41 Defect Energy:  14.657480  Gnorm:     0.000028  CPU:  123.633
  ** Hessian calculated **
  Cycle:     42 Defect Energy:  14.657448  Gnorm:     0.000021  CPU:  130.787
  Cycle:     43 Defect Energy:  14.657433  Gnorm:     0.000016  CPU:  132.328


  **** Optimisation achieved ****


  Final defect energy  =       14.65742617
  Final defect Gnorm   =        0.00001195

  Components of defect energy : 

--------------------------------------------------------------------------------
  Region 1 - region 1                   =     14.59439619 eV
  Region 1 - region 2a (unrelaxed)      =      2.25175825 eV
  Region 1 - 2a (relaxed - correction)  =     -2.06548786 eV
  Region 1 (Total)                      =     14.78066658 eV
  Region 2a                             =      1.03267789 eV
  Region 2b                             =     -1.15591830 eV
--------------------------------------------------------------------------------
  Total defect energy                   =     14.65742617 eV
--------------------------------------------------------------------------------

  Largest displacement in region 2 =   0.0056 Angstroms

  Final coordinates of region 1 :

--------------------------------------------------------------------------------
   No.  Atomic        x           y           z          Radius      Charge
        Label       (Angs)      (Angs)      (Angs)       (Angs)       (e) 
--------------------------------------------------------------------------------
     1  O     c     2.030273    1.268921    1.268921    0.000000    0.077000
     2  Zr    c     2.480953    2.585337   -0.047495    0.000000    2.650000
     3  Zr    c     2.480953   -0.047495    2.585337    0.000000    2.650000
     4  O     c     1.165042    1.212579    3.769764    0.000000    0.077000
     5  O     c     1.165042    3.769764    1.212579    0.000000    0.077000
     6  O     c     1.165042   -1.231922    1.325263    0.000000    0.077000
     7  O     c     1.165042    1.325263   -1.231922    0.000000    0.077000
     8  Zr    c    -0.038042    2.575319    2.575319    0.000000    2.650000
     9  Zr    c    -0.038042   -0.037477   -0.037477    0.000000    2.650000
    10  O     c     3.759475    3.675712    1.293367    0.000000    0.077000
    11  O     c     3.759475    1.244475   -1.137870    0.000000    0.077000
    12  O     c     3.759475    1.293367    3.675712    0.000000    0.077000
    13  O     c     3.759475   -1.137870    1.244475    0.000000    0.077000
    14  O     c    -0.801987    1.268921    1.268921    0.000000    0.077000
    15  Zr    c     5.086822    2.576218    2.576218    0.000000    2.650000
    16  Zr    c     5.086822   -0.038376   -0.038376    0.000000    2.650000
    17  O     c     1.309977    3.780885    3.780885    0.000000    0.077000
    18  O     c     1.309977   -1.243043   -1.243043    0.000000    0.077000
    19  O     c     1.306444   -1.310100    3.847941    0.000000    0.077000
    20  O     c     1.306444    3.847941   -1.310100    0.000000    0.077000
    21  O     c     3.830077    3.853812    3.853812    0.000000    0.077000
    22  O     c     3.830077   -1.315970   -1.315970    0.000000    0.077000
    23  O     c     3.832457   -1.283600    3.821442    0.000000    0.077000
    24  O     c     3.832457    3.821442   -1.283600    0.000000    0.077000
    25  Zr    c     2.529875    2.560702    5.094686    0.000000    2.650000
    26  Zr    c     2.529875   -2.556844   -0.022860    0.000000    2.650000
    27  Zr    c     2.529875    5.094686    2.560702    0.000000    2.650000
    28  Zr    c     2.529875   -0.022860   -2.556844    0.000000    2.650000
    29  O     c    -1.378339    1.310513    3.786211    0.000000    0.077000
    30  O     c    -1.378339    3.786211    1.310513    0.000000    0.077000
    31  O     c    -1.378339   -1.248370    1.227329    0.000000    0.077000
    32  O     c    -1.378339    1.227329   -1.248370    0.000000    0.077000
    33  O     c     5.238322    1.268921    1.268921    0.000000    0.077000
    34  Zr    c    -0.017220   -2.556800    2.548983    0.000000    2.650000
    35  Zr    c    -0.017220    2.548983   -2.556800    0.000000    2.650000
    36  Zr    c    -0.017220   -0.011141    5.094642    0.000000    2.650000
    37  Zr    c    -0.017220    5.094642   -0.011141    0.000000    2.650000
    38  O     c    -1.213408    3.829904    3.829904    0.000000    0.077000
    39  O     c    -1.213408   -1.292062   -1.292062    0.000000    0.077000
    40  O     c    -1.229429   -1.247383    3.785225    0.000000    0.077000
    41  O     c    -1.229429    3.785225   -1.247383    0.000000    0.077000
    42  Zr    c    -2.555793   -0.024468    2.562309    0.000000    2.650000
    43  Zr    c    -2.555793    2.562309   -0.024468    0.000000    2.650000
    44  O     c     6.393841    3.730287    1.299942    0.000000    0.077000
    45  O     c     6.393841    1.299942    3.730287    0.000000    0.077000
    46  O     c     6.393841    1.237900   -1.192446    0.000000    0.077000
    47  O     c     6.393841   -1.192446    1.237900    0.000000    0.077000
    48  Zr    c     5.077827   -2.560922    2.568681    0.000000    2.650000
    49  Zr    c     5.077827   -0.030839    5.098764    0.000000    2.650000
    50  Zr    c     5.077827    5.098764   -0.030839    0.000000    2.650000
    51  Zr    c     5.077827    2.568681   -2.560922    0.000000    2.650000
    52  O     c     1.299108   -3.783098    1.258736    0.000000    0.077000
    53  O     c     1.299108    1.258736   -3.783098    0.000000    0.077000
    54  O     c     1.299108    1.279106    6.320939    0.000000    0.077000
    55  O     c     1.299108    6.320939    1.279106    0.000000    0.077000
    56  O     c     3.828943    1.265884    6.251853    0.000000    0.077000
    57  O     c     3.828943    6.251853    1.265884    0.000000    0.077000
    58  O     c     3.828943   -3.714012    1.271958    0.000000    0.077000
    59  O     c     3.828943    1.271958   -3.714012    0.000000    0.077000
    60  Zr    c     2.528676   -2.561442    5.099284    0.000000    2.650000
    61  Zr    c     2.528676    5.099284   -2.561442    0.000000    2.650000
    62  O     c     6.353176   -1.272825    3.810667    0.000000    0.077000
    63  O     c     6.353176    3.810667   -1.272825    0.000000    0.077000
    64  O     c     6.362217    3.844021    3.844021    0.000000    0.077000
    65  O     c     6.362217   -1.306179   -1.306179    0.000000    0.077000
    66  O     c     1.258392    6.318663    3.808112    0.000000    0.077000
    67  O     c     1.258392    3.808112    6.318663    0.000000    0.077000
    68  O     c     1.258392   -3.780821   -1.270271    0.000000    0.077000
[...]
    330 y          7.613525      7.617482     0.003956    Cartesian    0.05
    330 z         -5.075684     -5.079640    -0.003956    Cartesian    0.08
    331 x         -2.537842     -2.540622    -0.002781    Cartesian    0.11
    331 y          2.537842      2.539279     0.001438    Cartesian    0.06
    331 z         10.151367     10.153936     0.002569    Cartesian    0.03
    332 x          6.344605      6.343895    -0.000709    Cartesian   -0.01
    332 y          6.344605      6.340765    -0.003839    Cartesian   -0.06
    332 z          8.882446      8.877652    -0.004794    Cartesian   -0.05
    333 x          6.344605      6.342376    -0.002229    Cartesian   -0.04
    333 y         -3.806763     -3.805474     0.001289    Cartesian   -0.03
    333 z          8.882446      8.882900     0.000454    Cartesian    0.01
    334 x         -6.344605     -6.350403    -0.005799    Cartesian    0.09
    334 y         -3.806763     -3.809397    -0.002634    Cartesian    0.07
    334 z         -1.268921     -1.271877    -0.002956    Cartesian    0.23
    335 x         -6.344605     -6.354202    -0.009597    Cartesian    0.15
    335 y         -3.806763     -3.804047     0.002715    Cartesian   -0.07
    335 z          3.806763      3.808793     0.002030    Cartesian    0.05
    336 x          5.075684      5.073793    -0.001891    Cartesian   -0.04
    336 y         10.151367     10.156307     0.004940    Cartesian    0.05
    336 z          5.075684      5.073945    -0.001738    Cartesian   -0.03
    337 x          1.268921      1.273452     0.004531    Cartesian    0.36
    337 y          1.268921      1.269777     0.000856    Cartesian    0.07
    337 z         11.420288     11.414263    -0.006025    Cartesian   -0.05
    338 x          8.882446      8.881116    -0.001330    Cartesian   -0.01
    338 y          8.882446      8.870972    -0.011474    Cartesian   -0.13
    338 z          1.268921      1.266251    -0.002670    Cartesian   -0.21
    339 x         -5.075684     -5.081512    -0.005828    Cartesian    0.11
    339 y          5.075684      5.074636    -0.001048    Cartesian   -0.02
    339 z         -5.075684     -5.079009    -0.003326    Cartesian    0.07
    340 x          3.806763      3.810172     0.003409    Cartesian    0.09
    340 y          1.268921      1.268165    -0.000756    Cartesian   -0.06
    340 z         11.420288     11.394513    -0.025775    Cartesian   -0.23
    341 x         10.151367     10.155902     0.004535    Cartesian    0.04
    341 y          7.613525      7.619344     0.005819    Cartesian    0.08
    341 z          2.537842      2.540637     0.002795    Cartesian    0.11
    342 x         -7.613525     -7.620636    -0.007110    Cartesian    0.09
    342 y         -0.000000      0.002725     0.002725    Cartesian *******
    342 z         -2.537842     -2.537776     0.000066    Cartesian   -0.00
    343 x          1.268921      1.270938     0.002017    Cartesian    0.16
    343 y         11.420288     11.426638     0.006350    Cartesian    0.06
    343 z         -1.268921     -1.267950     0.000971    Cartesian   -0.08
    344 x          1.268921      1.273042     0.004121    Cartesian    0.32
    344 y          3.806763      3.805832    -0.000931    Cartesian   -0.02
    344 z         11.420288     11.409730    -0.010558    Cartesian   -0.09
    345 x          8.882446      8.887619     0.005173    Cartesian    0.06
    345 y          3.806763      3.804709    -0.002054    Cartesian   -0.05
    345 z          8.882446      8.873739    -0.008707    Cartesian   -0.10
    346 x          8.882446      8.883392     0.000945    Cartesian    0.01
    346 y         -1.268921     -1.267423     0.001498    Cartesian   -0.12
    346 z          8.882446      8.884882     0.002436    Cartesian    0.03
    347 x          7.613525      7.611647    -0.001879    Cartesian   -0.02
    347 y          7.613525      7.621928     0.008402    Cartesian    0.11
    347 z         -5.075684     -5.084086    -0.008402    Cartesian    0.17
    348 x          7.613525      7.611945    -0.001580    Cartesian   -0.02
    348 y         10.151367     10.156507     0.005139    Cartesian    0.05
    348 z          2.537842      2.538973     0.001131    Cartesian    0.04
    349 x          3.806763      3.809798     0.003035    Cartesian    0.08
    349 y         -1.268921     -1.266965     0.001956    Cartesian   -0.15
    349 z         11.420288     11.419627    -0.000661    Cartesian   -0.01
    350 x          3.806763      3.806049    -0.000714    Cartesian   -0.02
    350 y          3.806763      3.804891    -0.001871    Cartesian   -0.05
    350 z         11.420288     11.428113     0.007825    Cartesian    0.07
    351 x         11.420288     11.418394    -0.001894    Cartesian   -0.02
    351 y          1.268921      1.277177     0.008256    Cartesian    0.65
    351 z         -3.806763     -3.804346     0.002417    Cartesian   -0.06
    352 x         -1.268921     -1.265580     0.003341    Cartesian   -0.26
    352 y          1.268921      1.267237    -0.001684    Cartesian   -0.13
    352 z         11.420288     11.417005    -0.003284    Cartesian   -0.03
    353 x         -2.537842     -2.541677    -0.003835    Cartesian    0.15
    353 y         -7.613525     -7.617129    -0.003604    Cartesian    0.05
    353 z          5.075684      5.077039     0.001356    Cartesian    0.03
    354 x          1.268921      1.275285     0.006364    Cartesian    0.50
    354 y         -6.344605     -6.342725     0.001879    Cartesian   -0.03
    354 z          8.882446      8.880567    -0.001879    Cartesian   -0.02
    355 x          1.268921      1.269444     0.000523    Cartesian    0.04
    355 y          8.882446      8.880911    -0.001535    Cartesian   -0.02
    355 z          8.882446      8.880911    -0.001535    Cartesian   -0.02
    356 x         12.689209     12.678855    -0.010354    Cartesian   -0.08
    356 y          2.537842      2.557641     0.019800    Cartesian    0.78
    356 z          0.000000     -0.019800    -0.019800    Cartesian *******
    357 x         -3.806763     -3.808444    -0.001681    Cartesian    0.04
    357 y          6.344605      6.343468    -0.001137    Cartesian   -0.02
    357 z          8.882446      8.885135     0.002689    Cartesian    0.03
    358 x         -3.806763     -3.805201     0.001561    Cartesian   -0.04
    358 y          8.882446      8.879876    -0.002570    Cartesian   -0.03
    358 z         -3.806763     -3.806398     0.000365    Cartesian   -0.01
    359 x          3.806763      3.810853     0.004090    Cartesian    0.11
    359 y          8.882446      8.880067    -0.002380    Cartesian   -0.03
    359 z          8.882446      8.880067    -0.002380    Cartesian   -0.03
    360 x          3.806763      3.806025    -0.000737    Cartesian   -0.02
    360 y         -6.344605     -6.343638     0.000967    Cartesian   -0.02
    360 z          8.882446      8.881480    -0.000967    Cartesian   -0.01
    361 x         -8.882446     -8.814820     0.067626    Cartesian   -0.76
    361 y          1.268921      1.268921     0.000000    Cartesian    0.00
    361 z          1.268921      1.268921     0.000000    Cartesian    0.00
    362 x          2.537842      2.535592    -0.002250    Cartesian   -0.09
    362 y         10.151367     10.157792     0.006424    Cartesian    0.06
    362 z          7.613525      7.616798     0.003273    Cartesian    0.04
    363 x         -1.268921     -1.267154     0.001767    Cartesian   -0.14
    363 y          3.806763      3.807091     0.000328    Cartesian    0.01
    363 z         11.420288     11.425648     0.005360    Cartesian    0.05
    364 x         11.420288     11.412194    -0.008094    Cartesian   -0.07
    364 y          6.344605      6.349264     0.004660    Cartesian    0.07
    364 z          3.806763      3.806731    -0.000031    Cartesian   -0.00
    365 x         11.420288     11.418198    -0.002090    Cartesian   -0.02
    365 y          6.344605      6.337762    -0.006843    Cartesian   -0.11
    365 z         -1.268921     -1.268108     0.000813    Cartesian   -0.06
    366 x         -1.268921     -1.265290     0.003631    Cartesian   -0.29
    366 y         -8.882446     -8.875302     0.007144    Cartesian   -0.08
    366 z          3.806763      3.804654    -0.002109    Cartesian   -0.06
    367 x         10.151367     10.154235     0.002868    Cartesian    0.03
    367 y          7.613525      7.623162     0.009637    Cartesian    0.13
    367 z         -2.537842     -2.541774    -0.003933    Cartesian    0.15
    368 x          6.344605      6.347443     0.002839    Cartesian    0.04
    368 y          1.268921      1.265984    -0.002937    Cartesian   -0.23
    368 z         11.420288     11.404781    -0.015507    Cartesian   -0.14
    369 x         -6.344605     -6.335366     0.009238    Cartesian   -0.15
    369 y          6.344605      6.341938    -0.002667    Cartesian   -0.04
    369 z          6.344605      6.341938    -0.002667    Cartesian   -0.04
    370 x         -6.344605     -6.340735     0.003870    Cartesian   -0.06
    370 y         -3.806763     -3.806491     0.000272    Cartesian   -0.01
    370 z          6.344605      6.344332    -0.000272    Cartesian   -0.00
    371 x         -7.613525     -7.618295    -0.004769    Cartesian    0.06
    371 y         -2.537842     -2.543572    -0.005730    Cartesian    0.23
    371 z          5.075684      5.081414     0.005730    Cartesian    0.11
    372 x         -0.000000     -0.002697    -0.002697    Cartesian *******
    372 y         -7.613525     -7.619651    -0.006126    Cartesian    0.08
    372 z          7.613525      7.617164     0.003639    Cartesian    0.05
    373 x          7.613525      7.616560     0.003035    Cartesian    0.04
    373 y         10.151367     10.158859     0.007492    Cartesian    0.07
    373 z         -2.537842     -2.539116    -0.001275    Cartesian    0.05
    374 x         -8.882446     -8.907146    -0.024700    Cartesian    0.28
    374 y         -1.268921     -1.264180     0.004741    Cartesian   -0.37
    374 z          1.268921      1.272097     0.003176    Cartesian    0.25
    375 x         -1.268921     -1.264520     0.004401    Cartesian   -0.35
    375 y          8.882446      8.880950    -0.001497    Cartesian   -0.02
    375 z          8.882446      8.880950    -0.001497    Cartesian   -0.02
    376 x         -1.268921     -1.266915     0.002006    Cartesian   -0.16
    376 y         -6.344605     -6.342321     0.002283    Cartesian   -0.04
    376 z          8.882446      8.880163    -0.002283    Cartesian   -0.03
    377 x          6.344605      6.342382    -0.002223    Cartesian   -0.04
    377 y         -1.268921     -1.267658     0.001263    Cartesian   -0.10
    377 z         11.420288     11.411095    -0.009193    Cartesian   -0.08
    378 x          6.344605      6.344294    -0.000310    Cartesian   -0.00
    378 y          3.806763      3.802152    -0.004611    Cartesian   -0.12
    378 z         11.420288     11.419813    -0.000475    Cartesian   -0.00
    379 x         -6.344605     -6.345648    -0.001044    Cartesian    0.02
    379 y         -6.344605     -6.343376     0.001229    Cartesian   -0.02
    379 z          1.268921      1.266508    -0.002413    Cartesian   -0.19
    380 x          5.075684      5.076011     0.000327    Cartesian    0.01
    380 y         -5.075684     -5.079874    -0.004190    Cartesian    0.08
    380 z         10.151367     10.160040     0.008673    Cartesian    0.09
    381 x          1.268921      1.269457     0.000536    Cartesian    0.04
    381 y         11.420288     11.417827    -0.002462    Cartesian   -0.02
    381 z          6.344605      6.344458    -0.000146    Cartesian   -0.00
    382 x          1.268921      1.271534     0.002613    Cartesian    0.21
    382 y         -8.882446     -8.874975     0.007471    Cartesian   -0.08
    382 z          6.344605      6.342030    -0.002574    Cartesian   -0.04
    383 x         12.689209     12.702220     0.013011    Cartesian    0.10
    383 y          2.537842      2.535301    -0.002541    Cartesian   -0.10
    383 z          5.075684      5.078158     0.002475    Cartesian    0.05
    384 x          8.882446      8.883317     0.000870    Cartesian    0.01
    384 y         -3.806763     -3.805135     0.001628    Cartesian   -0.04
    384 z          8.882446      8.877145    -0.005301    Cartesian   -0.06
    385 x          8.882446      8.874816    -0.007630    Cartesian   -0.09
    385 y          8.882446      8.875996    -0.006451    Cartesian   -0.07
    385 z          6.344605      6.338125    -0.006479    Cartesian   -0.10
    386 x         -5.075684     -5.080587    -0.004903    Cartesian    0.10
    386 y          2.537842      2.537277    -0.000565    Cartesian   -0.02
    386 z         -7.613525     -7.618425    -0.004900    Cartesian    0.06
    387 x         -5.075684     -5.079738    -0.004054    Cartesian    0.08
    387 y          7.613525      7.619079     0.005554    Cartesian    0.07
    387 z          7.613525      7.619079     0.005554    Cartesian    0.07
    388 x          3.806763      3.807452     0.000689    Cartesian    0.02
    388 y         -3.806763     -3.805831     0.000932    Cartesian   -0.02
    388 z         11.420288     11.413406    -0.006882    Cartesian   -0.06
    389 x          3.806763      3.805794    -0.000969    Cartesian   -0.03
    389 y          6.344605      6.341292    -0.003312    Cartesian   -0.05
    389 z         11.420288     11.410292    -0.009996    Cartesian   -0.09
    390 x         -8.882446     -8.859441     0.023005    Cartesian   -0.26
    390 y         -1.268921     -1.267734     0.001187    Cartesian   -0.09
    390 z         -1.268921     -1.267734     0.001187    Cartesian   -0.09
    391 x         -8.882446     -8.856668     0.025778    Cartesian   -0.29
    391 y         -1.268921     -1.269200    -0.000279    Cartesian    0.02
    391 z          3.806763      3.807042     0.000279    Cartesian    0.01
    392 x          2.537842      2.535264    -0.002577    Cartesian   -0.10
    392 y         -0.000000     -0.003697    -0.003697    Cartesian *******
    392 z         12.689209     12.696982     0.007773    Cartesian    0.06
    393 x          6.344605      6.348020     0.003415    Cartesian    0.05
    393 y         -6.344605     -6.340927     0.003677    Cartesian   -0.06
    393 z          8.882446      8.878769    -0.003677    Cartesian   -0.04
    394 x          6.344605      6.339993    -0.004612    Cartesian   -0.07
    394 y          8.882446      8.873939    -0.008507    Cartesian   -0.10
    394 z          8.882446      8.873939    -0.008507    Cartesian   -0.10
    395 x         -6.344605     -6.340232     0.004373    Cartesian   -0.07
    395 y         -1.268921     -1.268452     0.000469    Cartesian   -0.04
    395 z          8.882446      8.879604    -0.002842    Cartesian   -0.03
    396 x         -6.344605     -6.334911     0.009694    Cartesian   -0.15
    396 y          3.806763      3.804169    -0.002594    Cartesian   -0.07
    396 z          8.882446      8.880417    -0.002030    Cartesian   -0.02
    397 x         -7.613525     -7.622815    -0.009290    Cartesian    0.12
    397 y          2.537842      2.539670     0.001828    Cartesian    0.07
    397 z         -5.075684     -5.080547    -0.004864    Cartesian    0.10
    398 x         -0.000000     -0.003483    -0.003483    Cartesian *******
    398 y          2.537842      2.539512     0.001670    Cartesian    0.07
    398 z         12.689209     12.698181     0.008972    Cartesian    0.07
    399 x         -3.806763     -3.803644     0.003118    Cartesian   -0.08
    399 y         -8.882446     -8.876781     0.005665    Cartesian   -0.06
    399 z          1.268921      1.267249    -0.001672    Cartesian   -0.13
    400 x         11.420288     11.413660    -0.006628    Cartesian   -0.06
    400 y         -3.806763     -3.798357     0.008405    Cartesian   -0.22
    400 z         -3.806763     -3.798357     0.008405    Cartesian   -0.22
    401 x         11.420288     11.426412     0.006124    Cartesian    0.05
    401 y          6.344605      6.343014    -0.001590    Cartesian   -0.03
    401 z         -3.806763     -3.805172     0.001590    Cartesian   -0.04
    402 x         -1.268921     -1.266569     0.002352    Cartesian   -0.19
    402 y          6.344605      6.341386    -0.003219    Cartesian   -0.05
    402 z         11.420288     11.411181    -0.009107    Cartesian   -0.08
    403 x         -1.268921     -1.265623     0.003298    Cartesian   -0.26
    403 y         -8.882446     -8.876371     0.006076    Cartesian   -0.07
    403 z          6.344605      6.342885    -0.001719    Cartesian   -0.03
    404 x         -2.537842     -2.542130    -0.004288    Cartesian    0.17
    404 y          7.613525      7.618272     0.004746    Cartesian    0.06
    404 z         10.151367     10.157915     0.006548    Cartesian    0.06
    405 x          5.075684      5.076576     0.000893    Cartesian    0.02
    405 y          2.537842      2.542185     0.004343    Cartesian    0.17
    405 z         12.689209     12.698868     0.009659    Cartesian    0.08
    406 x         13.958130     13.861373    -0.096757    Cartesian   -0.69
    406 y          1.268921      1.268921     0.000000    Cartesian    0.00
    406 z          1.268921      1.268921     0.000000    Cartesian    0.00
    407 x         12.689209     12.699442     0.010233    Cartesian    0.08
    407 y          5.075684      5.087341     0.011658    Cartesian    0.23
    407 z         -2.537842     -2.549499    -0.011658    Cartesian    0.46
    408 x         -3.806763     -3.803735     0.003028    Cartesian   -0.08
    408 y          3.806763      3.805223    -0.001540    Cartesian   -0.04
    408 z         11.420288     11.411272    -0.009017    Cartesian   -0.08
    409 x         -3.806763     -3.802257     0.004506    Cartesian   -0.12
    409 y         -1.268921     -1.267841     0.001080    Cartesian   -0.09
    409 z         11.420288     11.413988    -0.006300    Cartesian   -0.06
    410 x         -5.075684     -5.081865    -0.006181    Cartesian    0.12
    410 y          5.075684      5.079922     0.004239    Cartesian    0.08
    410 z         10.151367     10.158443     0.007075    Cartesian    0.07
--------------------------------------------------------------------------------


  Time to end of optimisation  =      133.8645 seconds


  Peak dynamic memory used =     399.42 MB 


  Timing analysis for GULP :

--------------------------------------------------------------------------------
  Task / Subroutine                                          Time (Seconds)
--------------------------------------------------------------------------------
  Calculation of reciprocal space energy and derivatives          0.0002
  Calculation of reciprocal space energy using symmetry           0.0002
  Calculation of real space energy and derivatives                0.0020
  Calculation of real space energy using symmetry                 0.0071
  Calculation for region 1 energy and derivatives (2-b)          34.1840
  Calculation for region 2a energy                               75.4291
  Calculation for region 2b energy                                0.0116
  Calculation and manipulation of Hessian matrix                 22.0907
  Calculation of matrix inversion                                 1.6506
  Symmetry generation of equivalent positions                     0.0015
--------------------------------------------------------------------------------
  Total CPU time                                                133.8646
--------------------------------------------------------------------------------


  Dump file written as ZrO2.grs


  Job Finished at 12:16.51 14th October    2020                               

