********************************************************************************
*                       GENERAL UTILITY LATTICE PROGRAM                        *
*                                 Julian Gale                                  *
*                       Curtin Institute for Computation                       *
*                    School of Molecular and Life Sciences                     *
*                    Curtin University, Western Australia                      *
********************************************************************************
* Version = 5.2.0 * Last modified =  10th September 2020                       *
********************************************************************************
* Zirconia doped with calcium                                                  *
*  optimise     - perform optimisation run                                     *
*  conp         - constant pressure calculation                                *
*  property     - calculate properties for final geometry                      *
*  defect       - perform defect calculation after bulk run                    *
*  distance     - calculate distances                                          *
*  compare      - compare initial and final structures                         *
********************************************************************************
* Zirconia doped with calcium                                                  *
********************************************************************************


  Job Started  at 12:18.51 14th October    2020                               

  Number of CPUs =     1


  Total number of configurations input =      1

********************************************************************************
*  Input for Configuration =   1 : ZrO2                                        *
********************************************************************************

  Formula = ZrO2                                                        

  Number of irreducible atoms/shells =       4


  Total number atoms/shells =       6

  Dimensionality = 3               :  Bulk   


  Symmetry :

  Crystal family                   :  Cubic       
  Crystal class  (Groth - 1921)    :  Cubic Hexakisoctahedral              

  Space group (centrosymmetric)    :  F M 3 M         

  Patterson group                  :  F m -3 m 

  Cartesian lattice vectors (Angstroms) :

        0.000000    2.535000    2.535000
        2.535000    0.000000    2.535000
        2.535000    2.535000    0.000000

  Primitive cell parameters :            Full cell parameters :

  a =   3.5850    alpha =  60.0000       a =   5.0700    alpha =  90.0000
  b =   3.5850    beta  =  60.0000       b =   5.0700    beta  =  90.0000
  c =   3.5850    gamma =  60.0000       c =   5.0700    gamma =  90.0000

  Initial volumes (Angstroms**3):

  Primitive cell =          32.580961    Full cell =         130.323843

  Temperature of configuration =   0.00     K 

  Pressure of configuration =         0.000 GPa 

  Fractional coordinates of asymmetric unit :

--------------------------------------------------------------------------------
   No.  Atomic       x           y          z         Charge      Occupancy
        Label      (Frac)      (Frac)     (Frac)        (e)         (Frac)  
--------------------------------------------------------------------------------
      1 Zr    c    0.000000    0.000000    0.000000     2.65000    1.000000    
      2 O     c    0.250000    0.250000    0.250000     0.07700    1.000000    
      3 Zr    s    0.000000    0.000000    0.000000     1.35000    1.000000    
      4 O     s    0.250000    0.250000    0.250000    -2.07700    1.000000    
--------------------------------------------------------------------------------


  Constraints : 

--------------------------------------------------------------------------------
  Constraint no.      Unconstrained     Constrained    Coefficient    Offset
                         Variable         Variable
--------------------------------------------------------------------------------
           1              Strain 1        Strain 2       1.00000      0.0000
           2              Strain 1        Strain 3       1.00000      0.0000
--------------------------------------------------------------------------------


  Distance calculation :


  Cutoff for distances  =      4.000000 Angstroms

--------------------------------------------------------------------------------
  Asymmetric unit site  Full lattice sites    No.  Distance      No.  Distance
      No.   At.No.            At.No.                (Angs)             (Angs) 
--------------------------------------------------------------------------------
       1   Zr    core        Zr    core        12    3.5850
                             Zr    shell       12    3.5850
                             O     core         8    2.1954
                             O     shell        8    2.1954
--------------------------------------------------------------------------------
       2   O     core        Zr    core         4    2.1954
                             Zr    shell        4    2.1954
                             O     core         6    2.5350       12    3.5850
                             O     shell        6    2.5350       12    3.5850
--------------------------------------------------------------------------------
       3   Zr    shell       Zr    core        12    3.5850
                             Zr    shell       12    3.5850
                             O     core         8    2.1954
                             O     shell        8    2.1954
--------------------------------------------------------------------------------
       4   O     shell       Zr    core         4    2.1954
                             Zr    shell        4    2.1954
                             O     core         6    2.5350       12    3.5850
                             O     shell        6    2.5350       12    3.5850
--------------------------------------------------------------------------------



********************************************************************************
*  General input information                                                   *
********************************************************************************

  Species output for all configurations : 

--------------------------------------------------------------------------------
  Species    Type    Atomic    Atomic    Charge       Radii (Angs)     Library
                     Number     Mass       (e)     Cova   Ionic  VDW   Symbol
--------------------------------------------------------------------------------
    Zr       Core       40      91.22   2.650000   1.560  0.000  2.330          
    Zr       Shell      40       0.00   1.350000   1.560  0.000  2.330          
    O        Core        8      16.00   0.077000   0.730  0.000  1.360          
    O        Shell       8       0.00  -2.077000   0.730  0.000  1.360          
--------------------------------------------------------------------------------


  Lattice summation method               =    Ewald          (3-D)
                                         =    Parry          (2-D)
                                         =    Saunders et al (1-D)
  Accuracy factor for lattice sums       =   12.000


  Analytic derivatives to be used

  Time limit = Infinity

  Maximum range for interatomic potentials =    100000.000000 Angstroms

  General interatomic potentials :

--------------------------------------------------------------------------------
Atom  Types   Potential      Parameter       Value         Units   Cutoffs(Ang)
  1     2                                                            Min /  Max 
--------------------------------------------------------------------------------
O    s Zr   s Buckingham    Buckingham A     985.86900    eV        0.000 12.000
                            Buckingham rho  0.37600000    Ang       
                            Buckingham C     0.0000000    eV*Ang^6  
--------------------------------------------------------------------------------
O    s O    s Buckingham    Buckingham A     22764.300    eV        0.000 12.000
                            Buckingham rho  0.14900000    Ang       
                            Buckingham C     27.890000    eV*Ang^6  
--------------------------------------------------------------------------------
Zr   c Zr   s Spring (c-s)  Spring k 2       169.61700    eV*Ang^-2 0.000  0.800
                            Spring k 4       0.0000000    eV*Ang^-4 
--------------------------------------------------------------------------------
O    c O    s Spring (c-s)  Spring k 2       27.290000    eV*Ang^-2 0.000  0.800
                            Spring k 4       0.0000000    eV*Ang^-4 
--------------------------------------------------------------------------------

********************************************************************************
*  Output for configuration   1 : ZrO2                                         *
********************************************************************************


  Components of energy : 

--------------------------------------------------------------------------------
  Interatomic potentials     =          22.43756329 eV    
  Monopole - monopole (real) =         -15.67991073 eV    
  Monopole - monopole (recip)=        -116.52038266 eV    
  Monopole - monopole (total)=        -132.20029339 eV    
--------------------------------------------------------------------------------
  Total lattice energy : 
    Primitive unit cell      =        -109.76273010 eV    
    Non-primitive unit cell  =        -439.05092039 eV    
--------------------------------------------------------------------------------
  Total lattice energy (in kJmol-1): 
    Primitive unit cell      =          -10590.4256 kJ/(mole unit cells)
    Non-primitive unit cell  =          -42361.7023 kJ/(mole unit cells)
--------------------------------------------------------------------------------


  Number of variables =        1

  Maximum number of calculations  =          1000
  Maximum Hessian update interval =            10
  Maximum step size               =   1.000000000
  Maximum parameter tolerance     =   0.000010000
  Maximum function  tolerance     =   0.000010000
  Maximum gradient  tolerance     =   0.001000000
  Maximum gradient  component     =   0.010000000

  Symmetry constrained optimisation

  Symmetry used for second derivatives

  Cell parameters to be optimised using strains

  Newton-Raphson optimiser to be used

  BFGS hessian update to be used

  Lower half triangular hessian to be used

  Start of bulk optimisation :

  Cycle:      0 Energy:      -109.762730  Gnorm:      0.588311  CPU:    0.006
  ** Hessian calculated **
  Cycle:      1 Energy:      -109.763059  Gnorm:      0.000316  CPU:    0.009


  **** Optimisation achieved ****


  Final energy =    -109.76305939 eV
  Final Gnorm  =       0.00000099

  Components of energy : 

--------------------------------------------------------------------------------
  Interatomic potentials     =          22.28919976 eV    
  Monopole - monopole (real) =         -15.66235280 eV    
  Monopole - monopole (recip)=        -116.38990634 eV    
  Monopole - monopole (total)=        -132.05225914 eV    
--------------------------------------------------------------------------------
  Total lattice energy : 
    Primitive unit cell      =        -109.76305939 eV    
    Non-primitive unit cell  =        -439.05223754 eV    
--------------------------------------------------------------------------------
  Total lattice energy (in kJmol-1): 
    Primitive unit cell      =          -10590.4573 kJ/(mole unit cells)
    Non-primitive unit cell  =          -42361.8294 kJ/(mole unit cells)
--------------------------------------------------------------------------------

  Final asymmetric unit coordinates :

--------------------------------------------------------------------------------
   No.  Atomic        x           y           z         Radius
        Label       (Frac)      (Frac)      (Frac)       (Angs) 
--------------------------------------------------------------------------------
     1  Zr    c     0.000000    0.000000    0.000000    0.000000
     2  O     c     0.250000    0.250000    0.250000    0.000000
     3  Zr    s     0.000000    0.000000    0.000000    0.000000
     4  O     s     0.250000    0.250000    0.250000    0.000000
--------------------------------------------------------------------------------

  Final Cartesian lattice vectors (Angstroms) :

        0.000000    2.537842    2.537842
        2.537842    0.000000    2.537842
        2.537842    2.537842    0.000000


  Final cell parameters and derivatives :

--------------------------------------------------------------------------------
       a            3.589050 Angstrom     dE/de1(xx)    -0.000001 eV/strain
       b            3.589050 Angstrom     dE/de2(yy)     0.000000 eV/strain
       c            3.589050 Angstrom     dE/de3(zz)     0.000000 eV/strain
       alpha       60.000000 Degrees      dE/de4(yz)     0.000000 eV/strain
       beta        60.000000 Degrees      dE/de5(xz)     0.000000 eV/strain
       gamma       60.000000 Degrees      dE/de6(xy)     0.000000 eV/strain
--------------------------------------------------------------------------------

  Primitive cell volume =            32.690656 Angs**3

  Density of cell =      6.259124 g/cm**3

  Non-primitive lattice parameters :

  a    =     5.075684  b   =     5.075684  c    =     5.075684
  alpha=    90.000000  beta=    90.000000  gamma=    90.000000

  Non-primitive cell volume =           130.762624 Angs**3


  Final internal derivatives :

--------------------------------------------------------------------------------
   No.  Atomic          a             b             c           Radius
        Label          (eV)          (eV)          (eV)        (eV/Angs)
--------------------------------------------------------------------------------
      1 Zr    c       0.000000      0.000000      0.000000      0.000000
      2 O     c       0.000000      0.000000      0.000000      0.000000
      3 Zr    s       0.000000      0.000000      0.000000      0.000000
      4 O     s       0.000000      0.000000      0.000000      0.000000
--------------------------------------------------------------------------------
  Maximum abs         0.000000      0.000000      0.000000      0.000000
--------------------------------------------------------------------------------

  Comparison of initial and final structures : 

--------------------------------------------------------------------------------
  Parameter   Initial value   Final value   Difference    Units      Percent
--------------------------------------------------------------------------------
    Volume       130.323843    130.762624     0.438781    Angs**3      0.34
    a              5.070000      5.075684     0.005684    Angstroms    0.11
    b              5.070000      5.075684     0.005684    Angstroms    0.11
    c              5.070000      5.075684     0.005684    Angstroms    0.11
    alpha         90.000000     90.000000     0.000000    Degrees      0.00
    beta          90.000000     90.000000     0.000000    Degrees      0.00
    gamma         90.000000     90.000000     0.000000    Degrees      0.00
      1 x          0.000000      0.000000     0.000000    Fractional   0.00
      1 y          0.000000      0.000000     0.000000    Fractional   0.00
      1 z          0.000000      0.000000     0.000000    Fractional   0.00
      2 x          0.250000      0.250000     0.000000    Fractional   0.00
      2 y          0.250000      0.250000     0.000000    Fractional   0.00
      2 z          0.250000      0.250000     0.000000    Fractional   0.00
      3 x          0.000000      0.000000     0.000000    Fractional   0.00
      3 y          0.000000      0.000000     0.000000    Fractional   0.00
      3 z          0.000000      0.000000     0.000000    Fractional   0.00
      4 x          0.250000      0.250000     0.000000    Fractional   0.00
      4 y          0.250000      0.250000     0.000000    Fractional   0.00
      4 z          0.250000      0.250000     0.000000    Fractional   0.00
--------------------------------------------------------------------------------


  Distance calculation :


  Cutoff for distances  =      4.000000 Angstroms

--------------------------------------------------------------------------------
  Asymmetric unit site  Full lattice sites    No.  Distance      No.  Distance
      No.   At.No.            At.No.                (Angs)             (Angs) 
--------------------------------------------------------------------------------
       1   Zr    core        Zr    core        12    3.5891
                             Zr    shell       12    3.5891
                             O     core         8    2.1978
                             O     shell        8    2.1978
--------------------------------------------------------------------------------
       2   O     core        Zr    core         4    2.1978
                             Zr    shell        4    2.1978
                             O     core         6    2.5378       12    3.5891
                             O     shell        6    2.5378       12    3.5891
--------------------------------------------------------------------------------
       3   Zr    shell       Zr    core        12    3.5891
                             Zr    shell       12    3.5891
                             O     core         8    2.1978
                             O     shell        8    2.1978
--------------------------------------------------------------------------------
       4   O     shell       Zr    core         4    2.1978
                             Zr    shell        4    2.1978
                             O     core         6    2.5378       12    3.5891
                             O     shell        6    2.5378       12    3.5891
--------------------------------------------------------------------------------



  Born effective charge tensors : 

-------------------------------------------------------------------------------
  Atom             x           y             z
-------------------------------------------------------------------------------
    1 Zr    x       3.6770      0.0000      0.0000
            y       0.0000      3.6770      0.0000
            z       0.0000      0.0000      3.6770
-------------------------------------------------------------------------------
    2 O     x      -1.8385      0.0000      0.0000
            y       0.0000     -1.8385     -0.0000
            z       0.0000     -0.0000     -1.8385
-------------------------------------------------------------------------------




  Elastic Constant Matrix: (Units=GPa)

-------------------------------------------------------------------------------
  Indices      1         2         3         4         5         6    
-------------------------------------------------------------------------------
       1    616.2933  119.6612  119.6612   -0.0000   -0.0000   -0.0000
       2    119.6612  616.2933  119.6612   -0.0000   -0.0000   -0.0000
       3    119.6612  119.6612  616.2933   -0.0000   -0.0000   -0.0000
       4     -0.0000   -0.0000   -0.0000  100.8598    0.0000   -0.0000
       5     -0.0000   -0.0000   -0.0000    0.0000  100.8598    0.0000
       6     -0.0000   -0.0000   -0.0000   -0.0000    0.0000  100.8598
-------------------------------------------------------------------------------


  Elastic Compliance Matrix: (Units=1/GPa)

-------------------------------------------------------------------------------
  Indices      1         2         3         4         5         6    
-------------------------------------------------------------------------------
       1    0.001732 -0.000282 -0.000282  0.000000  0.000000  0.000000
       2   -0.000282  0.001732 -0.000282 -0.000000  0.000000  0.000000
       3   -0.000282 -0.000282  0.001732  0.000000  0.000000  0.000000
       4    0.000000 -0.000000  0.000000  0.009915 -0.000000  0.000000
       5    0.000000  0.000000  0.000000 -0.000000  0.009915 -0.000000
       6    0.000000  0.000000  0.000000  0.000000 -0.000000  0.009915
-------------------------------------------------------------------------------

  Mechanical properties :

-------------------------------------------------------------------------------
  Convention :                    Reuss         Voigt         Hill
-------------------------------------------------------------------------------
  Bulk  Modulus (GPa)     =     285.20524     285.20524     285.20524
  Shear Modulus (GPa)     =     132.28031     159.84228     146.06129
-------------------------------------------------------------------------------
  Velocity S-wave (km/s)  =       4.59717       5.05346       4.83071
  Velocity P-wave (km/s)  =       8.58749       8.92280       8.75675
-------------------------------------------------------------------------------
  Compressibility (1/GPa) =    0.00350625
-------------------------------------------------------------------------------
  Stress axis :                     x             y             z
-------------------------------------------------------------------------------
  Youngs Moduli (GPa)     =     577.38110     577.38110     577.38110
-------------------------------------------------------------------------------
  Poissons Ratio (x)      =                     0.16259       0.16259
  Poissons Ratio (y)      =       0.16259                     0.16259
  Poissons Ratio (z)      =       0.16259       0.16259
-------------------------------------------------------------------------------


  Piezoelectric Strain Matrix: (Units=C/m**2)

-------------------------------------------------------------------------------
  Indices      1         2         3         4         5         6    
-------------------------------------------------------------------------------
       x    -0.00000   0.00000   0.00000   0.00000   0.00000   0.00000
       y    -0.00000  -0.00000  -0.00000   0.00000   0.00000   0.00000
       z    -0.00000  -0.00000  -0.00000   0.00000   0.00000   0.00000
-------------------------------------------------------------------------------


  Piezoelectric Stress Matrix: (Units=10**-11 C/N)

-------------------------------------------------------------------------------
  Indices      1         2         3         4         5         6    
-------------------------------------------------------------------------------
       x    -0.00000   0.00000   0.00000   0.00000   0.00000   0.00000
       y    -0.00000  -0.00000  -0.00000   0.00000   0.00000   0.00000
       z     0.00000   0.00000  -0.00000   0.00000   0.00000   0.00000
-------------------------------------------------------------------------------


  Static dielectric constant tensor : 

-------------------------------------------------------------------------------
              x         y         z
-------------------------------------------------------------------------------
       x    26.88485   0.00000   0.00000
       y     0.00000  26.88485   0.00000
       z     0.00000   0.00000  26.88485
--------------------------------------------------------------------------------

  High frequency dielectric constant tensor : 

-------------------------------------------------------------------------------
              x         y         z
-------------------------------------------------------------------------------
       x     2.63099   0.00000   0.00000
       y     0.00000   2.63099   0.00000
       z     0.00000   0.00000   2.63099
-------------------------------------------------------------------------------

  Static refractive indices : 

-------------------------------------------------------------------------------
    1 =    5.18506      2 =    5.18506      3 =    5.18506
-------------------------------------------------------------------------------

  High frequency refractive indices : 

-------------------------------------------------------------------------------
    1 =    1.62203      2 =    1.62203      3 =    1.62203
-------------------------------------------------------------------------------


  Time to end of optimisation =       0.0142 seconds

********************************************************************************
*  Defect calculation for configuration   1 :                                  *
********************************************************************************

  Total number of defects =      3

  Total charge on defect  =   2.00

  Defect centre is at   0.4200   0.2500   0.2500  Frac

  Region 1 radius =  12.0000      Number of ions =   1298

  Number of symmetry inequivalent region 1 ions  =    404

  Region 2 radius =  24.0000      Number of ions =   9318

  Number of symmetry inequivalent region 2a ions =   2556

  Region 2a mode = 4 : screened electrostatics due to region 1 
                       neglect correction to region 1 forces from 2a
                       region 2a displacements based on defects only

  Region 2a ions will only interact with defects in region 1

  Vacancies:

--------------------------------------------------------------------------------
    Specification type     Symbol/Number         x          y          z
--------------------------------------------------------------------------------
    Fractional                               0.250000   0.250000   0.250000
    Fractional                               0.750000   0.250000   0.250000
--------------------------------------------------------------------------------

  Interstitials:

--------------------------------------------------------------------------------
    Specification type     Symbol/Number         x          y          z
--------------------------------------------------------------------------------
    Atom/Fractional         O                0.420000   0.250000   0.250000
--------------------------------------------------------------------------------


  Symmetry reduced region 1 (Relative to defect centre) :

--------------------------------------------------------------------------------
   No.   Atomic       x            y             z       Radius  Multiplicity   
         Label      (Angs)       (Angs)        (Angs)    (Angs)     
--------------------------------------------------------------------------------
     1  O     c      0.0000       0.0000       0.0000    0.0000     1    Defect
     2  Zr    c      0.4061 *     1.2689 *    -1.2689    0.0000     2          
     3  O     c     -0.8629 *    -0.0000 *     2.5378 *  0.0000     4          
     4  Zr    c     -2.1318 *    -1.2689 *    -1.2689    0.0000     2          
     5  O     c      1.6750 *     2.5378 *     0.0000 *  0.0000     4          
     6  O     c     -3.4007 *    -0.0000      -0.0000    0.0000     1          
     7  Zr    c      2.9439 *     1.2689 *     1.2689    0.0000     2          
     8  O     c     -0.8629 *     2.5378 *    -2.5378    0.0000     2          
     9  O     c     -0.8629 *     2.5378 *     2.5378    0.0000     2          
    10  O     c      1.6750 *     2.5378 *     2.5378    0.0000     2          
    11  O     c      1.6750 *    -2.5378 *     2.5378    0.0000     2          
    12  Zr    c      0.4061 *     3.8068 *     1.2689 *  0.0000     4          
    13  O     c      4.2128 *     0.0000       0.0000    0.0000     1          
    14  O     c     -3.4007 *    -2.5378 *     0.0000 *  0.0000     4          
    15  Zr    c     -2.1318 *    -3.8068 *     1.2689 *  0.0000     4          
    16  O     c      4.2128 *     2.5378 *    -0.0000 *  0.0000     4          
    17  O     c     -3.4007 *     2.5378 *     2.5378    0.0000     2          
    18  O     c     -3.4007 *    -2.5378 *     2.5378    0.0000     2          
    19  Zr    c      2.9439 *     3.8068 *    -1.2689 *  0.0000     4          
    20  Zr    c     -4.6696 *    -1.2689 *     1.2689    0.0000     2          
    21  O     c     -0.8629 *    -5.0757 *     0.0000 *  0.0000     4          
    22  O     c      1.6750 *    -0.0000 *     5.0757 *  0.0000     4          
    23  Zr    c      0.4061 *    -3.8068 *     3.8068    0.0000     2          
    24  O     c      4.2128 *     2.5378 *    -2.5378    0.0000     2          
    25  O     c      4.2128 *     2.5378 *     2.5378    0.0000     2          
    26  O     c     -0.8629 *     5.0757 *     2.5378 *  0.0000     4          
    27  O     c     -0.8629 *    -2.5378 *     5.0757 *  0.0000     4          
    28  Zr    c      5.4817 *     1.2689 *    -1.2689    0.0000     2          
    29  Zr    c     -2.1318 *     3.8068 *     3.8068    0.0000     2          
    30  O     c      1.6750 *    -5.0757 *     2.5378 *  0.0000     4          
    31  O     c      1.6750 *     5.0757 *     2.5378 *  0.0000     4          
    32  O     c     -5.9385 *     0.0000       0.0000    0.0000     1          
    33  O     c     -3.4007 *    -0.0000 *     5.0757 *  0.0000     4          
    34  Zr    c      2.9439 *     3.8068 *     3.8068    0.0000     2          
    35  Zr    c     -4.6696 *     3.8068 *     1.2689 *  0.0000     4          
    36  O     c     -5.9385 *    -0.0000 *     2.5378 *  0.0000     4          
    37  Zr    c      0.4061 *    -1.2689 *     6.3446 *  0.0000     4          
    38  O     c      4.2128 *     5.0757 *     0.0000 *  0.0000     4          
    39  O     c     -3.4007 *     2.5378 *     5.0757 *  0.0000     4          
    40  O     c     -3.4007 *     2.5378 *    -5.0757 *  0.0000     4          
    41  O     c      6.7507 *    -0.0000      -0.0000    0.0000     1          
    42  Zr    c      5.4817 *     1.2689 *     3.8068 *  0.0000     4          
    43  Zr    c     -2.1318 *     6.3446 *     1.2689 *  0.0000     4          
    44  O     c     -5.9385 *     2.5378 *     2.5378    0.0000     2          
    45  O     c     -5.9385 *    -2.5378 *     2.5378    0.0000     2          
    46  O     c      4.2128 *     5.0757 *     2.5378 *  0.0000     4          
    47  O     c      4.2128 *    -2.5378 *     5.0757 *  0.0000     4          
    48  Zr    c      2.9439 *     1.2689 *     6.3446 *  0.0000     4          
    49  Zr    c     -4.6696 *     3.8068 *    -3.8068    0.0000     2          
    50  O     c      6.7507 *     2.5378 *     0.0000 *  0.0000     4          
    51  O     c     -0.8629 *     5.0757 *     5.0757    0.0000     2          
    52  O     c     -0.8629 *    -5.0757 *     5.0757    0.0000     2          
    53  O     c      1.6750 *     5.0757 *     5.0757    0.0000     2          
    54  O     c      1.6750 *    -5.0757 *     5.0757    0.0000     2          
    55  Zr    c      0.4061 *     3.8068 *     6.3446 *  0.0000     4          
    56  Zr    c     -7.2075 *     1.2689 *     1.2689    0.0000     2          
    57  O     c      6.7507 *     2.5378 *     2.5378    0.0000     2          
    58  O     c      6.7507 *     2.5378 *    -2.5378    0.0000     2          
    59  O     c     -0.8629 *    -0.0000 *     7.6135 *  0.0000     4          
    60  Zr    c      5.4817 *     3.8068 *    -3.8068    0.0000     2          
    61  Zr    c     -2.1318 *    -6.3446 *     3.8068 *  0.0000     4          
    62  O     c      1.6750 *     0.0000 *     7.6135 *  0.0000     4          
    63  O     c     -5.9385 *     5.0757 *     0.0000 *  0.0000     4          
    64  O     c     -3.4007 *     5.0757 *     5.0757    0.0000     2          
    65  O     c     -3.4007 *     5.0757 *    -5.0757    0.0000     2          
    66  Zr    c      2.9439 *    -3.8068 *     6.3446 *  0.0000     4          
    67  Zr    c     -4.6696 *     1.2689 *    -6.3446 *  0.0000     4          
    68  O     c     -0.8629 *    -7.6135 *     2.5378 *  0.0000     4          
    69  O     c     -0.8629 *     2.5378 *     7.6135 *  0.0000     4          
    70  O     c      1.6750 *    -2.5378 *     7.6135 *  0.0000     4          
    71  O     c      1.6750 *     2.5378 *     7.6135 *  0.0000     4          
    72  O     c     -5.9385 *     2.5378 *     5.0757 *  0.0000     4          
    73  O     c     -5.9385 *     5.0757 *    -2.5378 *  0.0000     4          
    74  Zr    c      8.0196 *     1.2689 *     1.2689    0.0000     2          
    75  Zr    c     -7.2075 *    -3.8068 *     1.2689 *  0.0000     4          
    76  O     c      4.2128 *    -5.0757 *    -5.0757    0.0000     2          
    77  O     c      4.2128 *    -5.0757 *     5.0757    0.0000     2          
    78  O     c     -3.4007 *     0.0000 *    -7.6135 *  0.0000     4          
    79  O     c      6.7507 *     5.0757 *    -0.0000 *  0.0000     4          
    80  O     c     -8.4764 *    -0.0000      -0.0000    0.0000     1          
    81  Zr    c      5.4817 *     6.3446 *    -1.2689 *  0.0000     4          
    82  O     c      4.2128 *    -0.0000 *     7.6135 *  0.0000     4          
    83  O     c     -3.4007 *    -2.5378 *     7.6135 *  0.0000     4          
    84  O     c     -3.4007 *     2.5378 *     7.6135 *  0.0000     4          
    85  Zr    c     -4.6696 *     3.8068 *     6.3446 *  0.0000     4          
    86  O     c      6.7507 *    -2.5378 *     5.0757 *  0.0000     4          
    87  O     c      6.7507 *     2.5378 *     5.0757 *  0.0000     4          
    88  O     c     -8.4764 *    -2.5378 *     0.0000 *  0.0000     4          
    89  Zr    c      8.0196 *     3.8068 *    -1.2689 *  0.0000     4          
    90  Zr    c      0.4061 *    -6.3446 *     6.3446    0.0000     2          
    91  Zr    c      0.4061 *     8.8824 *     1.2689 *  0.0000     4          
    92  Zr    c     -7.2075 *    -3.8068 *    -3.8068    0.0000     2          
    93  O     c      4.2128 *    -2.5378 *     7.6135 *  0.0000     4          
    94  O     c      4.2128 *     7.6135 *     2.5378 *  0.0000     4          
    95  O     c     -0.8629 *     5.0757 *     7.6135 *  0.0000     4          
    96  O     c     -0.8629 *     7.6135 *    -5.0757 *  0.0000     4          
    97  O     c     -8.4764 *    -2.5378 *    -2.5378    0.0000     2          
    98  O     c     -8.4764 *    -2.5378 *     2.5378    0.0000     2          
    99  Zr    c      5.4817 *     6.3446 *     3.8068 *  0.0000     4          
   100  Zr    c     -2.1318 *     6.3446 *     6.3446    0.0000     2          
   101  Zr    c     -2.1318 *    -1.2689 *     8.8824 *  0.0000     4          
   102  O     c      9.2885 *     0.0000       0.0000    0.0000     1          
   103  O     c      1.6750 *    -7.6135 *     5.0757 *  0.0000     4          
   104  O     c      1.6750 *     7.6135 *     5.0757 *  0.0000     4          
   105  O     c     -5.9385 *     5.0757 *     5.0757    0.0000     2          
   106  O     c     -5.9385 *    -5.0757 *     5.0757    0.0000     2          
   107  Zr    c      2.9439 *     8.8824 *    -1.2689 *  0.0000     4          
   108  Zr    c      2.9439 *     6.3446 *     6.3446    0.0000     2          
   109  O     c      9.2885 *     2.5378 *    -0.0000 *  0.0000     4          
   110  O     c     -5.9385 *    -0.0000 *     7.6135 *  0.0000     4          
   111  Zr    c      8.0196 *     3.8068 *     3.8068    0.0000     2          
   112  Zr    c      0.4061 *     8.8824 *    -3.8068 *  0.0000     4          
   113  Zr    c     -7.2075 *    -6.3446 *    -1.2689 *  0.0000     4          
   114  O     c     -3.4007 *     5.0757 *     7.6135 *  0.0000     4          
   115  O     c     -3.4007 *    -7.6135 *     5.0757 *  0.0000     4          
   116  O     c      6.7507 *     5.0757 *     5.0757    0.0000     2          
   117  O     c      6.7507 *    -5.0757 *     5.0757    0.0000     2          
   118  O     c     -8.4764 *    -0.0000 *     5.0757 *  0.0000     4          
   119  Zr    c     -2.1318 *     3.8068 *     8.8824 *  0.0000     4          
   120  Zr    c     -9.7453 *    -1.2689 *     1.2689    0.0000     2          
   121  O     c      9.2885 *     2.5378 *     2.5378    0.0000     2          
   122  O     c      9.2885 *     2.5378 *    -2.5378    0.0000     2          
   123  O     c     -5.9385 *    -2.5378 *    -7.6135 *  0.0000     4          
   124  O     c     -5.9385 *     2.5378 *    -7.6135 *  0.0000     4          
   125  O     c      4.2128 *     7.6135 *     5.0757 *  0.0000     4          
   126  O     c      4.2128 *     7.6135 *    -5.0757 *  0.0000     4          
   127  Zr    c      2.9439 *     8.8824 *     3.8068 *  0.0000     4          
   128  Zr    c     -4.6696 *    -6.3446 *     6.3446    0.0000     2          
   129  Zr    c     -4.6696 *     1.2689 *     8.8824 *  0.0000     4          
   130  O     c      6.7507 *     7.6135 *     0.0000 *  0.0000     4          
   131  O     c     -0.8629 *    -0.0000 *    10.1514 *  0.0000     4          
   132  O     c     -8.4764 *    -5.0757 *    -2.5378 *  0.0000     4          
   133  O     c     -8.4764 *    -5.0757 *     2.5378 *  0.0000     4          
   134  O     c      1.6750 *    -0.0000 *    10.1514 *  0.0000     4          
   135  Zr    c      8.0196 *     1.2689 *     6.3446 *  0.0000     4          
   136  Zr    c     -7.2075 *    -6.3446 *     3.8068 *  0.0000     4          
   137  O     c      6.7507 *     7.6135 *    -2.5378 *  0.0000     4          
   138  O     c      6.7507 *     7.6135 *     2.5378 *  0.0000     4          
   139  O     c     -0.8629 *     2.5378 *    10.1514 *  0.0000     4          
   140  O     c     -0.8629 *    -2.5378 *    10.1514 *  0.0000     4          
   141  Zr    c      5.4817 *     6.3446 *    -6.3446    0.0000     2          
   142  Zr    c      5.4817 *     8.8824 *     1.2689 *  0.0000     4          
   143  Zr    c     -9.7453 *    -1.2689 *    -3.8068 *  0.0000     4          
   144  O     c      9.2885 *     0.0000 *    -5.0757 *  0.0000     4          
   145  O     c      1.6750 *     2.5378 *    10.1514 *  0.0000     4          
   146  O     c      1.6750 *   -10.1514 *     2.5378 *  0.0000     4          
   147  O     c     -3.4007 *    -0.0000 *    10.1514 *  0.0000     4          
   148  Zr    c     10.5574 *     1.2689 *    -1.2689    0.0000     2          
   149  Zr    c     -4.6696 *    -8.8824 *     3.8068 *  0.0000     4          
   150  O     c     -0.8629 *    -7.6135 *     7.6135    0.0000     2          
   151  O     c     -0.8629 *     7.6135 *     7.6135    0.0000     2          
   152  O     c      9.2885 *     5.0757 *     2.5378 *  0.0000     4          
   153  O     c      9.2885 *     5.0757 *    -2.5378 *  0.0000     4          
   154  O     c      1.6750 *     7.6135 *     7.6135    0.0000     2          
   155  O     c      1.6750 *    -7.6135 *     7.6135    0.0000     2          
   156  O     c     -5.9385 *    -5.0757 *     7.6135 *  0.0000     4          
   157  O     c     -5.9385 *     5.0757 *     7.6135 *  0.0000     4          
   158  Zr    c      8.0196 *     3.8068 *    -6.3446 *  0.0000     4          
   159  Zr    c      0.4061 *     8.8824 *     6.3446 *  0.0000     4          
   160  O     c      4.2128 *     0.0000 *    10.1514 *  0.0000     4          
   161  O     c     -3.4007 *   -10.1514 *     2.5378 *  0.0000     4          
   162  O     c     -3.4007 *     2.5378 *    10.1514 *  0.0000     4          
   163  O     c    -11.0142 *    -0.0000       0.0000    0.0000     1          
   164  O     c     -8.4764 *     5.0757 *     5.0757    0.0000     2          
   165  O     c     -8.4764 *    -5.0757 *     5.0757    0.0000     2          
   166  Zr    c      5.4817 *     8.8824 *    -3.8068 *  0.0000     4          
   167  Zr    c     -2.1318 *     6.3446 *    -8.8824 *  0.0000     4          
   168  Zr    c     -9.7453 *    -3.8068 *     3.8068    0.0000     2          
   169  O     c      4.2128 *    10.1514 *    -2.5378 *  0.0000     4          
   170  O     c      4.2128 *    10.1514 *     2.5378 *  0.0000     4          
   171  O     c     -3.4007 *     7.6135 *     7.6135    0.0000     2          
   172  O     c     -3.4007 *    -7.6135 *     7.6135    0.0000     2          
   173  Zr    c     10.5574 *     3.8068 *     1.2689 *  0.0000     4          
   174  O     c    -11.0142 *    -2.5378 *    -0.0000 *  0.0000     4          
   175  Zr    c      2.9439 *     8.8824 *    -6.3446 *  0.0000     4          
   176  O     c      6.7507 *     7.6135 *    -5.0757 *  0.0000     4          
   177  O     c      6.7507 *     7.6135 *     5.0757 *  0.0000     4          
   178  O     c     -0.8629 *     5.0757 *    10.1514 *  0.0000     4          
   179  O     c     -0.8629 *   -10.1514 *     5.0757 *  0.0000     4          
   180  O     c     -8.4764 *    -7.6135 *     0.0000 *  0.0000     4          
   181  O     c      1.6750 *     5.0757 *    10.1514 *  0.0000     4          
   182  O     c      1.6750 *    -5.0757 *    10.1514 *  0.0000     4          
   183  Zr    c      0.4061 *    -1.2689 *    11.4203 *  0.0000     4          
   184  Zr    c     -7.2075 *     6.3446 *     6.3446    0.0000     2          
   185  Zr    c     -7.2075 *    -8.8824 *     1.2689 *  0.0000     4          
   186  O     c      4.2128 *    -7.6135 *     7.6135    0.0000     2          
   187  O     c      4.2128 *     7.6135 *     7.6135    0.0000     2          
   188  O     c    -11.0142 *    -2.5378 *    -2.5378    0.0000     2          
   189  O     c    -11.0142 *    -2.5378 *     2.5378    0.0000     2          
   190  O     c     -8.4764 *    -2.5378 *     7.6135 *  0.0000     4          
   191  O     c     -8.4764 *     2.5378 *     7.6135 *  0.0000     4          
   192  Zr    c     -2.1318 *     1.2689 *    11.4203 *  0.0000     4          
   193  Zr    c     -9.7453 *     1.2689 *    -6.3446 *  0.0000     4          
   194  O     c      9.2885 *    -5.0757 *    -5.0757    0.0000     2          
   195  O     c      9.2885 *     5.0757 *    -5.0757    0.0000     2          
   196  O     c     -5.9385 *   -10.1514 *     0.0000 *  0.0000     4          
   197  O     c     11.8263 *    -0.0000      -0.0000    0.0000     1          
   198  O     c     -3.4007 *    -5.0757 *    10.1514 *  0.0000     4          
   199  O     c     -3.4007 *     5.0757 *    10.1514 *  0.0000     4          
   200  Zr    c     10.5574 *     3.8068 *    -3.8068    0.0000     2          
   201  Zr    c      2.9439 *     1.2689 *    11.4203 *  0.0000     4          
   202  Zr    c     -4.6696 *     8.8824 *     6.3446 *  0.0000     4          
   203  O     s      0.0000       0.0000       0.0000    0.0000     1    Defect
   204  Zr    s      0.4061 *     1.2689 *    -1.2689    0.0000     2          
   205  O     s     -0.8629 *    -0.0000 *     2.5378 *  0.0000     4          
   206  Zr    s     -2.1318 *    -1.2689 *    -1.2689    0.0000     2          
   207  O     s      1.6750 *     2.5378 *     0.0000 *  0.0000     4          
   208  O     s     -3.4007 *    -0.0000      -0.0000    0.0000     1          
   209  Zr    s      2.9439 *     1.2689 *     1.2689    0.0000     2          
   210  O     s     -0.8629 *     2.5378 *    -2.5378    0.0000     2          
   211  O     s     -0.8629 *     2.5378 *     2.5378    0.0000     2          
   212  O     s      1.6750 *     2.5378 *     2.5378    0.0000     2          
   213  O     s      1.6750 *    -2.5378 *     2.5378    0.0000     2          
   214  Zr    s      0.4061 *     3.8068 *     1.2689 *  0.0000     4          
   215  O     s      4.2128 *     0.0000       0.0000    0.0000     1          
   216  O     s     -3.4007 *    -2.5378 *     0.0000 *  0.0000     4          
   217  Zr    s     -2.1318 *    -3.8068 *     1.2689 *  0.0000     4          
   218  O     s      4.2128 *     2.5378 *    -0.0000 *  0.0000     4          
   219  O     s     -3.4007 *     2.5378 *     2.5378    0.0000     2          
   220  O     s     -3.4007 *    -2.5378 *     2.5378    0.0000     2          
   221  Zr    s      2.9439 *     3.8068 *    -1.2689 *  0.0000     4          
   222  Zr    s     -4.6696 *    -1.2689 *     1.2689    0.0000     2          
   223  O     s     -0.8629 *    -5.0757 *     0.0000 *  0.0000     4          
   224  O     s      1.6750 *    -0.0000 *     5.0757 *  0.0000     4          
   225  Zr    s      0.4061 *    -3.8068 *     3.8068    0.0000     2          
   226  O     s      4.2128 *     2.5378 *    -2.5378    0.0000     2          
   227  O     s      4.2128 *     2.5378 *     2.5378    0.0000     2          
   228  O     s     -0.8629 *     5.0757 *     2.5378 *  0.0000     4          
   229  O     s     -0.8629 *    -2.5378 *     5.0757 *  0.0000     4          
   230  Zr    s      5.4817 *     1.2689 *    -1.2689    0.0000     2          
   231  Zr    s     -2.1318 *     3.8068 *     3.8068    0.0000     2          
   232  O     s      1.6750 *    -5.0757 *     2.5378 *  0.0000     4          
   233  O     s      1.6750 *     5.0757 *     2.5378 *  0.0000     4          
   234  O     s     -5.9385 *     0.0000       0.0000    0.0000     1          
   235  O     s     -3.4007 *    -0.0000 *     5.0757 *  0.0000     4          
   236  Zr    s      2.9439 *     3.8068 *     3.8068    0.0000     2          
   237  Zr    s     -4.6696 *     3.8068 *     1.2689 *  0.0000     4          
   238  O     s     -5.9385 *    -0.0000 *     2.5378 *  0.0000     4          
   239  Zr    s      0.4061 *    -1.2689 *     6.3446 *  0.0000     4          
   240  O     s      4.2128 *     5.0757 *     0.0000 *  0.0000     4          
   241  O     s     -3.4007 *     2.5378 *     5.0757 *  0.0000     4          
   242  O     s     -3.4007 *     2.5378 *    -5.0757 *  0.0000     4          
   243  O     s      6.7507 *    -0.0000      -0.0000    0.0000     1          
   244  Zr    s      5.4817 *     1.2689 *     3.8068 *  0.0000     4          
   245  Zr    s     -2.1318 *     6.3446 *     1.2689 *  0.0000     4          
   246  O     s     -5.9385 *     2.5378 *     2.5378    0.0000     2          
   247  O     s     -5.9385 *    -2.5378 *     2.5378    0.0000     2          
   248  O     s      4.2128 *     5.0757 *     2.5378 *  0.0000     4          
   249  O     s      4.2128 *    -2.5378 *     5.0757 *  0.0000     4          
   250  Zr    s      2.9439 *     1.2689 *     6.3446 *  0.0000     4          
   251  Zr    s     -4.6696 *     3.8068 *    -3.8068    0.0000     2          
   252  O     s      6.7507 *     2.5378 *     0.0000 *  0.0000     4          
   253  O     s     -0.8629 *     5.0757 *     5.0757    0.0000     2          
   254  O     s     -0.8629 *    -5.0757 *     5.0757    0.0000     2          
   255  O     s      1.6750 *     5.0757 *     5.0757    0.0000     2          
   256  O     s      1.6750 *    -5.0757 *     5.0757    0.0000     2          
   257  Zr    s      0.4061 *     3.8068 *     6.3446 *  0.0000     4          
   258  Zr    s     -7.2075 *     1.2689 *     1.2689    0.0000     2          
   259  O     s      6.7507 *     2.5378 *     2.5378    0.0000     2          
   260  O     s      6.7507 *     2.5378 *    -2.5378    0.0000     2          
   261  O     s     -0.8629 *    -0.0000 *     7.6135 *  0.0000     4          
   262  Zr    s      5.4817 *     3.8068 *    -3.8068    0.0000     2          
   263  Zr    s     -2.1318 *    -6.3446 *     3.8068 *  0.0000     4          
   264  O     s      1.6750 *     0.0000 *     7.6135 *  0.0000     4          
   265  O     s     -5.9385 *     5.0757 *     0.0000 *  0.0000     4          
   266  O     s     -3.4007 *     5.0757 *     5.0757    0.0000     2          
   267  O     s     -3.4007 *     5.0757 *    -5.0757    0.0000     2          
   268  Zr    s      2.9439 *    -3.8068 *     6.3446 *  0.0000     4          
   269  Zr    s     -4.6696 *     1.2689 *    -6.3446 *  0.0000     4          
   270  O     s     -0.8629 *    -7.6135 *     2.5378 *  0.0000     4          
   271  O     s     -0.8629 *     2.5378 *     7.6135 *  0.0000     4          
   272  O     s      1.6750 *    -2.5378 *     7.6135 *  0.0000     4          
   273  O     s      1.6750 *     2.5378 *     7.6135 *  0.0000     4          
   274  O     s     -5.9385 *     2.5378 *     5.0757 *  0.0000     4          
   275  O     s     -5.9385 *     5.0757 *    -2.5378 *  0.0000     4          
   276  Zr    s      8.0196 *     1.2689 *     1.2689    0.0000     2          
   277  Zr    s     -7.2075 *    -3.8068 *     1.2689 *  0.0000     4          
   278  O     s      4.2128 *    -5.0757 *    -5.0757    0.0000     2          
   279  O     s      4.2128 *    -5.0757 *     5.0757    0.0000     2          
   280  O     s     -3.4007 *     0.0000 *    -7.6135 *  0.0000     4          
   281  O     s      6.7507 *     5.0757 *    -0.0000 *  0.0000     4          
   282  O     s     -8.4764 *    -0.0000      -0.0000    0.0000     1          
   283  Zr    s      5.4817 *     6.3446 *    -1.2689 *  0.0000     4          
   284  O     s      4.2128 *    -0.0000 *     7.6135 *  0.0000     4          
   285  O     s     -3.4007 *    -2.5378 *     7.6135 *  0.0000     4          
   286  O     s     -3.4007 *     2.5378 *     7.6135 *  0.0000     4          
   287  Zr    s     -4.6696 *     3.8068 *     6.3446 *  0.0000     4          
   288  O     s      6.7507 *    -2.5378 *     5.0757 *  0.0000     4          
   289  O     s      6.7507 *     2.5378 *     5.0757 *  0.0000     4          
   290  O     s     -8.4764 *    -2.5378 *     0.0000 *  0.0000     4          
   291  Zr    s      8.0196 *     3.8068 *    -1.2689 *  0.0000     4          
   292  Zr    s      0.4061 *    -6.3446 *     6.3446    0.0000     2          
   293  Zr    s      0.4061 *     8.8824 *     1.2689 *  0.0000     4          
   294  Zr    s     -7.2075 *    -3.8068 *    -3.8068    0.0000     2          
   295  O     s      4.2128 *    -2.5378 *     7.6135 *  0.0000     4          
   296  O     s      4.2128 *     7.6135 *     2.5378 *  0.0000     4          
   297  O     s     -0.8629 *     5.0757 *     7.6135 *  0.0000     4          
   298  O     s     -0.8629 *     7.6135 *    -5.0757 *  0.0000     4          
   299  O     s     -8.4764 *    -2.5378 *    -2.5378    0.0000     2          
   300  O     s     -8.4764 *    -2.5378 *     2.5378    0.0000     2          
   301  Zr    s      5.4817 *     6.3446 *     3.8068 *  0.0000     4          
   302  Zr    s     -2.1318 *     6.3446 *     6.3446    0.0000     2          
   303  Zr    s     -2.1318 *    -1.2689 *     8.8824 *  0.0000     4          
   304  O     s      9.2885 *     0.0000       0.0000    0.0000     1          
   305  O     s      1.6750 *    -7.6135 *     5.0757 *  0.0000     4          
   306  O     s      1.6750 *     7.6135 *     5.0757 *  0.0000     4          
   307  O     s     -5.9385 *     5.0757 *     5.0757    0.0000     2          
   308  O     s     -5.9385 *    -5.0757 *     5.0757    0.0000     2          
   309  Zr    s      2.9439 *     8.8824 *    -1.2689 *  0.0000     4          
   310  Zr    s      2.9439 *     6.3446 *     6.3446    0.0000     2          
   311  O     s      9.2885 *     2.5378 *    -0.0000 *  0.0000     4          
   312  O     s     -5.9385 *    -0.0000 *     7.6135 *  0.0000     4          
   313  Zr    s      8.0196 *     3.8068 *     3.8068    0.0000     2          
   314  Zr    s      0.4061 *     8.8824 *    -3.8068 *  0.0000     4          
   315  Zr    s     -7.2075 *    -6.3446 *    -1.2689 *  0.0000     4          
   316  O     s     -3.4007 *     5.0757 *     7.6135 *  0.0000     4          
   317  O     s     -3.4007 *    -7.6135 *     5.0757 *  0.0000     4          
   318  O     s      6.7507 *     5.0757 *     5.0757    0.0000     2          
   319  O     s      6.7507 *    -5.0757 *     5.0757    0.0000     2          
   320  O     s     -8.4764 *    -0.0000 *     5.0757 *  0.0000     4          
   321  Zr    s     -2.1318 *     3.8068 *     8.8824 *  0.0000     4          
   322  Zr    s     -9.7453 *    -1.2689 *     1.2689    0.0000     2          
   323  O     s      9.2885 *     2.5378 *     2.5378    0.0000     2          
   324  O     s      9.2885 *     2.5378 *    -2.5378    0.0000     2          
   325  O     s     -5.9385 *    -2.5378 *    -7.6135 *  0.0000     4          
   326  O     s     -5.9385 *     2.5378 *    -7.6135 *  0.0000     4          
   327  O     s      4.2128 *     7.6135 *     5.0757 *  0.0000     4          
   328  O     s      4.2128 *     7.6135 *    -5.0757 *  0.0000     4          
   329  Zr    s      2.9439 *     8.8824 *     3.8068 *  0.0000     4          
   330  Zr    s     -4.6696 *    -6.3446 *     6.3446    0.0000     2          
   331  Zr    s     -4.6696 *     1.2689 *     8.8824 *  0.0000     4          
   332  O     s      6.7507 *     7.6135 *     0.0000 *  0.0000     4          
   333  O     s     -0.8629 *    -0.0000 *    10.1514 *  0.0000     4          
   334  O     s     -8.4764 *    -5.0757 *    -2.5378 *  0.0000     4          
   335  O     s     -8.4764 *    -5.0757 *     2.5378 *  0.0000     4          
   336  O     s      1.6750 *    -0.0000 *    10.1514 *  0.0000     4          
   337  Zr    s      8.0196 *     1.2689 *     6.3446 *  0.0000     4          
   338  Zr    s     -7.2075 *    -6.3446 *     3.8068 *  0.0000     4          
   339  O     s      6.7507 *     7.6135 *    -2.5378 *  0.0000     4          
   340  O     s      6.7507 *     7.6135 *     2.5378 *  0.0000     4          
   341  O     s     -0.8629 *     2.5378 *    10.1514 *  0.0000     4          
   342  O     s     -0.8629 *    -2.5378 *    10.1514 *  0.0000     4          
   343  Zr    s      5.4817 *     6.3446 *    -6.3446    0.0000     2          
   344  Zr    s      5.4817 *     8.8824 *     1.2689 *  0.0000     4          
   345  Zr    s     -9.7453 *    -1.2689 *    -3.8068 *  0.0000     4          
   346  O     s      9.2885 *     0.0000 *    -5.0757 *  0.0000     4          
   347  O     s      1.6750 *     2.5378 *    10.1514 *  0.0000     4          
   348  O     s      1.6750 *   -10.1514 *     2.5378 *  0.0000     4          
   349  O     s     -3.4007 *    -0.0000 *    10.1514 *  0.0000     4          
   350  Zr    s     10.5574 *     1.2689 *    -1.2689    0.0000     2          
   351  Zr    s     -4.6696 *    -8.8824 *     3.8068 *  0.0000     4          
   352  O     s     -0.8629 *    -7.6135 *     7.6135    0.0000     2          
   353  O     s     -0.8629 *     7.6135 *     7.6135    0.0000     2          
   354  O     s      9.2885 *     5.0757 *     2.5378 *  0.0000     4          
   355  O     s      9.2885 *     5.0757 *    -2.5378 *  0.0000     4          
   356  O     s      1.6750 *     7.6135 *     7.6135    0.0000     2          
   357  O     s      1.6750 *    -7.6135 *     7.6135    0.0000     2          
   358  O     s     -5.9385 *    -5.0757 *     7.6135 *  0.0000     4          
   359  O     s     -5.9385 *     5.0757 *     7.6135 *  0.0000     4          
   360  Zr    s      8.0196 *     3.8068 *    -6.3446 *  0.0000     4          
   361  Zr    s      0.4061 *     8.8824 *     6.3446 *  0.0000     4          
   362  O     s      4.2128 *     0.0000 *    10.1514 *  0.0000     4          
   363  O     s     -3.4007 *   -10.1514 *     2.5378 *  0.0000     4          
   364  O     s     -3.4007 *     2.5378 *    10.1514 *  0.0000     4          
   365  O     s    -11.0142 *    -0.0000       0.0000    0.0000     1          
   366  O     s     -8.4764 *     5.0757 *     5.0757    0.0000     2          
   367  O     s     -8.4764 *    -5.0757 *     5.0757    0.0000     2          
   368  Zr    s      5.4817 *     8.8824 *    -3.8068 *  0.0000     4          
   369  Zr    s     -2.1318 *     6.3446 *    -8.8824 *  0.0000     4          
   370  Zr    s     -9.7453 *    -3.8068 *     3.8068    0.0000     2          
   371  O     s      4.2128 *    10.1514 *    -2.5378 *  0.0000     4          
   372  O     s      4.2128 *    10.1514 *     2.5378 *  0.0000     4          
   373  O     s     -3.4007 *     7.6135 *     7.6135    0.0000     2          
   374  O     s     -3.4007 *    -7.6135 *     7.6135    0.0000     2          
   375  Zr    s     10.5574 *     3.8068 *     1.2689 *  0.0000     4          
   376  O     s    -11.0142 *    -2.5378 *    -0.0000 *  0.0000     4          
   377  Zr    s      2.9439 *     8.8824 *    -6.3446 *  0.0000     4          
   378  O     s      6.7507 *     7.6135 *    -5.0757 *  0.0000     4          
   379  O     s      6.7507 *     7.6135 *     5.0757 *  0.0000     4          
   380  O     s     -0.8629 *     5.0757 *    10.1514 *  0.0000     4          
   381  O     s     -0.8629 *   -10.1514 *     5.0757 *  0.0000     4          
   382  O     s     -8.4764 *    -7.6135 *     0.0000 *  0.0000     4          
   383  O     s      1.6750 *     5.0757 *    10.1514 *  0.0000     4          
   384  O     s      1.6750 *    -5.0757 *    10.1514 *  0.0000     4          
   385  Zr    s      0.4061 *    -1.2689 *    11.4203 *  0.0000     4          
   386  Zr    s     -7.2075 *     6.3446 *     6.3446    0.0000     2          
   387  Zr    s     -7.2075 *    -8.8824 *     1.2689 *  0.0000     4          
   388  O     s      4.2128 *    -7.6135 *     7.6135    0.0000     2          
   389  O     s      4.2128 *     7.6135 *     7.6135    0.0000     2          
   390  O     s    -11.0142 *    -2.5378 *    -2.5378    0.0000     2          
   391  O     s    -11.0142 *    -2.5378 *     2.5378    0.0000     2          
   392  O     s     -8.4764 *    -2.5378 *     7.6135 *  0.0000     4          
   393  O     s     -8.4764 *     2.5378 *     7.6135 *  0.0000     4          
   394  Zr    s     -2.1318 *     1.2689 *    11.4203 *  0.0000     4          
   395  Zr    s     -9.7453 *     1.2689 *    -6.3446 *  0.0000     4          
   396  O     s      9.2885 *    -5.0757 *    -5.0757    0.0000     2          
   397  O     s      9.2885 *     5.0757 *    -5.0757    0.0000     2          
   398  O     s     -5.9385 *   -10.1514 *     0.0000 *  0.0000     4          
   399  O     s     11.8263 *    -0.0000      -0.0000    0.0000     1          
   400  O     s     -3.4007 *    -5.0757 *    10.1514 *  0.0000     4          
   401  O     s     -3.4007 *     5.0757 *    10.1514 *  0.0000     4          
   402  Zr    s     10.5574 *     3.8068 *    -3.8068    0.0000     2          
   403  Zr    s      2.9439 *     1.2689 *    11.4203 *  0.0000     4          
   404  Zr    s     -4.6696 *     8.8824 *     6.3446 *  0.0000     4          
--------------------------------------------------------------------------------


  Constraints on symmetry reduced coordinates :

--------------------------------------------------------------------------------
  Constraint no.      Unconstrained     Constrained    Coefficient    
                         Variable         Variable
--------------------------------------------------------------------------------
           1                 2 y             2 z        -1.00000
           2                 4 y             4 z         1.00000
           3                 7 y             7 z         1.00000
           4                 8 y             8 z        -1.00000
           5                 9 y             9 z         1.00000
           6                10 y            10 z         1.00000
           7                11 y            11 z        -1.00000
           8                17 y            17 z         1.00000
           9                18 y            18 z        -1.00000
          10                20 y            20 z        -1.00000
          11                23 y            23 z        -1.00000
          12                24 y            24 z        -1.00000
          13                25 y            25 z         1.00000
          14                28 y            28 z        -1.00000
          15                29 y            29 z         1.00000
          16                34 y            34 z         1.00000
          17                44 y            44 z         1.00000
          18                45 y            45 z        -1.00000
          19                49 y            49 z        -1.00000
          20                51 y            51 z         1.00000
          21                52 y            52 z        -1.00000
          22                53 y            53 z         1.00000
          23                54 y            54 z        -1.00000
          24                56 y            56 z         1.00000
          25                57 y            57 z         1.00000
          26                58 y            58 z        -1.00000
          27                60 y            60 z        -1.00000
          28                64 y            64 z         1.00000
          29                65 y            65 z        -1.00000
          30                74 y            74 z         1.00000
          31                76 y            76 z         1.00000
          32                77 y            77 z        -1.00000
          33                90 y            90 z        -1.00000
          34                92 y            92 z         1.00000
          35                97 y            97 z         1.00000
          36                98 y            98 z        -1.00000
          37               100 y           100 z         1.00000
          38               105 y           105 z         1.00000
          39               106 y           106 z        -1.00000
          40               108 y           108 z         1.00000
          41               111 y           111 z         1.00000
          42               116 y           116 z         1.00000
          43               117 y           117 z        -1.00000
          44               120 y           120 z        -1.00000
          45               121 y           121 z         1.00000
          46               122 y           122 z        -1.00000
          47               128 y           128 z        -1.00000
          48               141 y           141 z        -1.00000
          49               148 y           148 z        -1.00000
          50               150 y           150 z        -1.00000
          51               151 y           151 z         1.00000
          52               154 y           154 z         1.00000
          53               155 y           155 z        -1.00000
          54               164 y           164 z         1.00000
          55               165 y           165 z        -1.00000
          56               168 y           168 z        -1.00000
          57               171 y           171 z         1.00000
          58               172 y           172 z        -1.00000
          59               184 y           184 z         1.00000
          60               186 y           186 z        -1.00000
          61               187 y           187 z         1.00000
          62               188 y           188 z         1.00000
          63               189 y           189 z        -1.00000
          64               194 y           194 z         1.00000
          65               195 y           195 z        -1.00000
          66               200 y           200 z        -1.00000
          67               204 y           204 z        -1.00000
          68               206 y           206 z         1.00000
          69               209 y           209 z         1.00000
          70               210 y           210 z        -1.00000
          71               211 y           211 z         1.00000
          72               212 y           212 z         1.00000
          73               213 y           213 z        -1.00000
          74               219 y           219 z         1.00000
          75               220 y           220 z        -1.00000
          76               222 y           222 z        -1.00000
          77               225 y           225 z        -1.00000
          78               226 y           226 z        -1.00000
          79               227 y           227 z         1.00000
          80               230 y           230 z        -1.00000
          81               231 y           231 z         1.00000
          82               236 y           236 z         1.00000
          83               246 y           246 z         1.00000
          84               247 y           247 z        -1.00000
          85               251 y           251 z        -1.00000
          86               253 y           253 z         1.00000
          87               254 y           254 z        -1.00000
          88               255 y           255 z         1.00000
          89               256 y           256 z        -1.00000
          90               258 y           258 z         1.00000
          91               259 y           259 z         1.00000
          92               260 y           260 z        -1.00000
          93               262 y           262 z        -1.00000
          94               266 y           266 z         1.00000
          95               267 y           267 z        -1.00000
          96               276 y           276 z         1.00000
          97               278 y           278 z         1.00000
          98               279 y           279 z        -1.00000
          99               292 y           292 z        -1.00000
         100               294 y           294 z         1.00000
         101               299 y           299 z         1.00000
         102               300 y           300 z        -1.00000
         103               302 y           302 z         1.00000
         104               307 y           307 z         1.00000
         105               308 y           308 z        -1.00000
         106               310 y           310 z         1.00000
         107               313 y           313 z         1.00000
         108               318 y           318 z         1.00000
         109               319 y           319 z        -1.00000
         110               322 y           322 z        -1.00000
         111               323 y           323 z         1.00000
         112               324 y           324 z        -1.00000
         113               330 y           330 z        -1.00000
         114               343 y           343 z        -1.00000
         115               350 y           350 z        -1.00000
         116               352 y           352 z        -1.00000
         117               353 y           353 z         1.00000
         118               356 y           356 z         1.00000
         119               357 y           357 z        -1.00000
         120               366 y           366 z         1.00000
         121               367 y           367 z        -1.00000
         122               370 y           370 z        -1.00000
         123               373 y           373 z         1.00000
         124               374 y           374 z        -1.00000
         125               386 y           386 z         1.00000
         126               388 y           388 z        -1.00000
         127               389 y           389 z         1.00000
         128               390 y           390 z         1.00000
         129               391 y           391 z        -1.00000
         130               396 y           396 z         1.00000
         131               397 y           397 z        -1.00000
         132               402 y           402 z        -1.00000
--------------------------------------------------------------------------------


  Components of defect energy : 

--------------------------------------------------------------------------------
  Region 1 - region 1                   =     21.60072914 eV
  Region 1 - region 2a (unrelaxed)      =      9.73126811 eV
  Region 1 - 2a (relaxed - correction)  =     -2.36571410 eV
  Region 1 (Total)                      =     28.96628314 eV
  Region 2a                             =      1.18288388 eV
  Region 2b                             =     -1.15605288 eV
--------------------------------------------------------------------------------
  Total defect energy                   =     28.99311415 eV
--------------------------------------------------------------------------------

  Largest displacement in region 2 =   0.0055 Angstroms


  Number of variables =     1042

  Maximum number of calculations  =        1000
  Maximum Hessian update interval =          10
  Maximum step size               =   1.0000000
  Maximum parameter tolerance     =   0.0000100
  Maximum function  tolerance     =   0.0000100
  Maximum gradient  tolerance     =   0.0010000

  Symmetry adapted optimisation

  Symmetry to be used for second derivatives

  Newton-Raphson optimiser to be used

  BFGS hessian update to be used

  Lower half triangular hessian to be used

  Start of defect optimisation :

  Cycle:      0 Defect Energy:  28.993114  Gnorm:     0.085266  CPU:    4.730
  ** Hessian calculated **
  Cycle:      1 Defect Energy:  21.118242  Gnorm:     0.033045  CPU:   14.261
  Cycle:      2 Defect Energy:  16.973481  Gnorm:     0.016959  CPU:   22.698
  Cycle:      3 Defect Energy:  16.465355  Gnorm:     0.013228  CPU:   28.360
  Cycle:      4 Defect Energy:  15.861137  Gnorm:     0.008411  CPU:   36.776
  Cycle:      5 Defect Energy:  15.496026  Gnorm:     0.007878  CPU:   43.818
  Cycle:      6 Defect Energy:  15.355444  Gnorm:     0.007258  CPU:   50.866
  Cycle:      7 Defect Energy:  15.218960  Gnorm:     0.004874  CPU:   57.894
  Cycle:      8 Defect Energy:  15.108971  Gnorm:     0.003712  CPU:   64.941
  Cycle:      9 Defect Energy:  15.077988  Gnorm:     0.003479  CPU:   66.459
  Cycle:     10 Defect Energy:  15.031387  Gnorm:     0.003255  CPU:   67.979
  ** Hessian calculated **
  Cycle:     11 Defect Energy:  14.968302  Gnorm:     0.002980  CPU:   74.924
  Cycle:     12 Defect Energy:  14.885061  Gnorm:     0.002574  CPU:   76.440
  Cycle:     13 Defect Energy:  14.785781  Gnorm:     0.001989  CPU:   77.962
  Cycle:     14 Defect Energy:  14.716527  Gnorm:     0.001457  CPU:   79.492
  Cycle:     15 Defect Energy:  14.683111  Gnorm:     0.001097  CPU:   81.010
  Cycle:     16 Defect Energy:  14.666399  Gnorm:     0.000853  CPU:   82.526
  Cycle:     17 Defect Energy:  14.657694  Gnorm:     0.000693  CPU:   84.040
  Cycle:     18 Defect Energy:  14.652779  Gnorm:     0.000587  CPU:   85.556
  Cycle:     19 Defect Energy:  14.649946  Gnorm:     0.000514  CPU:   87.074
  Cycle:     20 Defect Energy:  14.648079  Gnorm:     0.000458  CPU:   88.603
  ** Hessian calculated **
  Cycle:     21 Defect Energy:  14.645782  Gnorm:     0.000383  CPU:   95.541
  Cycle:     22 Defect Energy:  14.644570  Gnorm:     0.000345  CPU:   97.061
  Cycle:     23 Defect Energy:  14.643930  Gnorm:     0.000274  CPU:   98.599
  Cycle:     24 Defect Energy:  14.643676  Gnorm:     0.000204  CPU:  100.116
  Cycle:     25 Defect Energy:  14.643499  Gnorm:     0.000149  CPU:  101.630
  Cycle:     26 Defect Energy:  14.643435  Gnorm:     0.000107  CPU:  103.144
  Cycle:     27 Defect Energy:  14.643407  Gnorm:     0.000076  CPU:  104.658
  Cycle:     28 Defect Energy:  14.643396  Gnorm:     0.000054  CPU:  106.173
  Cycle:     29 Defect Energy:  14.643392  Gnorm:     0.000038  CPU:  107.692
  Cycle:     30 Defect Energy:  14.643392  Gnorm:     0.000027  CPU:  109.220
  ** Hessian calculated **


  **** Optimisation achieved ****


  Final defect energy  =       14.64339215
  Final defect Gnorm   =        0.00001281

  Components of defect energy : 

--------------------------------------------------------------------------------
  Region 1 - region 1                   =     14.38210374 eV
  Region 1 - region 2a (unrelaxed)      =      2.46019478 eV
  Region 1 - 2a (relaxed - correction)  =     -2.08699724 eV
  Region 1 (Total)                      =     14.75530128 eV
  Region 2a                             =      1.04343057 eV
  Region 2b                             =     -1.15533971 eV
--------------------------------------------------------------------------------
  Total defect energy                   =     14.64339215 eV
--------------------------------------------------------------------------------

  Largest displacement in region 2 =   0.0055 Angstroms

  Final coordinates of region 1 :

--------------------------------------------------------------------------------
   No.  Atomic        x           y           z          Radius      Charge
        Label       (Angs)      (Angs)      (Angs)       (Angs)       (e) 
--------------------------------------------------------------------------------
     1  O     c     2.131787    1.268921    1.268921    0.000000    0.077000
     2  Zr    c     2.490696    2.581949   -0.044107    0.000000    2.650000
     3  Zr    c     2.490696   -0.044107    2.581949    0.000000    2.650000
     4  O     c     1.173227    1.216337    3.759650    0.000000    0.077000
     5  O     c     1.173227    3.759650    1.216337    0.000000    0.077000
     6  O     c     1.173227   -1.221808    1.321505    0.000000    0.077000
     7  O     c     1.173227    1.321505   -1.221808    0.000000    0.077000
     8  Zr    c    -0.042342   -0.040491   -0.040491    0.000000    2.650000
     9  Zr    c    -0.042342    2.578333    2.578333    0.000000    2.650000
    10  O     c     3.780295    3.677670    1.281979    0.000000    0.077000
    11  O     c     3.780295    1.281979    3.677670    0.000000    0.077000
    12  O     c     3.780295    1.255863   -1.139828    0.000000    0.077000
    13  O     c     3.780295   -1.139828    1.255863    0.000000    0.077000
    14  O     c    -0.744410    1.268921    1.268921    0.000000    0.077000
    15  Zr    c     5.098953    2.577989    2.577989    0.000000    2.650000
    16  Zr    c     5.098953   -0.040147   -0.040147    0.000000    2.650000
    17  O     c     1.299664    3.850180   -1.312338    0.000000    0.077000
    18  O     c     1.299664   -1.312338    3.850180    0.000000    0.077000
    19  O     c     1.306184    3.787248    3.787248    0.000000    0.077000
    20  O     c     1.306184   -1.249406   -1.249406    0.000000    0.077000
    21  O     c     3.825161    3.847595    3.847595    0.000000    0.077000
    22  O     c     3.825161   -1.309753   -1.309753    0.000000    0.077000
    23  O     c     3.828851   -1.291462    3.829303    0.000000    0.077000
    24  O     c     3.828851    3.829303   -1.291462    0.000000    0.077000
    25  Zr    c     2.532224    5.096035    2.562771    0.000000    2.650000
    26  Zr    c     2.532224    2.562771    5.096035    0.000000    2.650000
    27  Zr    c     2.532224   -0.024929   -2.558193    0.000000    2.650000
    28  Zr    c     2.532224   -2.558193   -0.024929    0.000000    2.650000
    29  O     c     5.329338    1.268921    1.268921    0.000000    0.077000
    30  O     c    -1.378165   -1.243988    1.223296    0.000000    0.077000
    31  O     c    -1.378165    1.223296   -1.243988    0.000000    0.077000
    32  O     c    -1.378165    1.314546    3.781830    0.000000    0.077000
    33  O     c    -1.378165    3.781830    1.314546    0.000000    0.077000
    34  Zr    c    -0.014292   -2.556795    2.551306    0.000000    2.650000
    35  Zr    c    -0.014292    2.551306   -2.556795    0.000000    2.650000
    36  Zr    c    -0.014292   -0.013464    5.094636    0.000000    2.650000
    37  Zr    c    -0.014292    5.094636   -0.013464    0.000000    2.650000
    38  O     c     6.405335    3.739781    1.306133    0.000000    0.077000
    39  O     c     6.405335    1.306133    3.739781    0.000000    0.077000
    40  O     c     6.405335    1.231708   -1.201939    0.000000    0.077000
    41  O     c     6.405335   -1.201939    1.231708    0.000000    0.077000
    42  O     c    -1.217366    3.832627    3.832627    0.000000    0.077000
    43  O     c    -1.217366   -1.294785   -1.294785    0.000000    0.077000
    44  O     c    -1.232582   -1.245907    3.783749    0.000000    0.077000
    45  O     c    -1.232582    3.783749   -1.245907    0.000000    0.077000
    46  Zr    c     5.078660    5.097626   -0.028943    0.000000    2.650000
    47  Zr    c     5.078660   -0.028943    5.097626    0.000000    2.650000
    48  Zr    c     5.078660    2.566785   -2.559785    0.000000    2.650000
    49  Zr    c     5.078660   -2.559785    2.566785    0.000000    2.650000
    50  Zr    c    -2.559005   -0.027733    2.565574    0.000000    2.650000
    51  Zr    c    -2.559005    2.565574   -0.027733    0.000000    2.650000
    52  O     c     1.295735   -3.775465    1.259500    0.000000    0.077000
    53  O     c     1.295735    1.259500   -3.775465    0.000000    0.077000
    54  O     c     1.295735    1.278342    6.313307    0.000000    0.077000
    55  O     c     1.295735    6.313307    1.278342    0.000000    0.077000
    56  O     c     3.824349    1.267803    6.253134    0.000000    0.077000
    57  O     c     3.824349    6.253134    1.267803    0.000000    0.077000
    58  O     c     3.824349   -3.715292    1.270039    0.000000    0.077000
    59  O     c     3.824349    1.270039   -3.715292    0.000000    0.077000
    60  Zr    c     2.530959   -2.561253    5.099095    0.000000    2.650000
    61  Zr    c     2.530959    5.099095   -2.561253    0.000000    2.650000
    62  O     c     6.349480    3.804041   -1.266199    0.000000    0.077000
    63  O     c     6.349480   -1.266199    3.804041    0.000000    0.077000
    64  O     c     6.356265    3.844346    3.844346    0.000000    0.077000
    65  O     c     6.356265   -1.306504   -1.306504    0.000000    0.077000
    66  O     c     1.261350    6.322411    3.806397    0.000000    0.077000
    67  O     c     1.261350    3.806397    6.322411    0.000000    0.077000
    68  O     c     1.261350   -3.784569   -1.268555    0.000000    0.077000
    69  O     c     1.261350   -1.268555   -3.784569    0.000000    0.077000
    70  O     c     1.256320   -1.256762    6.371283    0.000000    0.077000
    71  O     c     1.256320    6.371283   -1.256762    0.000000    0.077000
    72  O     c     1.256320   -3.833441    3.794603    0.000000    0.077000
    73  O     c     1.256320    3.794603   -3.833441    0.000000    0.077000
    74  Zr    c     7.660662    2.586187   -0.048345    0.000000    2.650000
    75  Zr    c     7.660662   -0.048345    2.586187    0.000000    2.650000
    76  Zr    c    -0.013268    5.095314    5.095314    0.000000    2.650000
    77  Zr    c    -0.013268   -2.557472   -2.557472    0.000000    2.650000
    78  O     c     3.802442   -3.814794    3.795703    0.000000    0.077000
    79  O     c     3.802442    3.795703   -3.814794    0.000000    0.077000
    80  O     c     3.802442   -1.257861    6.352635    0.000000    0.077000
    81  O     c     3.802442    6.352635   -1.257861    0.000000    0.077000
    82  O     c     3.789704    6.366929    3.792324    0.000000    0.077000
    83  O     c     3.789704    3.792324    6.366929    0.000000    0.077000
    84  O     c     3.789704   -1.254483   -3.829087    0.000000    0.077000
    85  O     c     3.789704   -3.829087   -1.254483    0.000000    0.077000
    86  O     c    -3.493644    1.268921    1.268921    0.000000    0.077000
    87  O     c    -1.241737    1.259696    6.328380    0.000000    0.077000
    88  O     c    -1.241737    6.328380    1.259696    0.000000    0.077000
    89  O     c    -1.241737   -3.790538    1.278145    0.000000    0.077000
[...]
    324 y          3.806763      3.793222    -0.013541    Cartesian   -0.36
    324 z         -1.268921     -1.255380     0.013541    Cartesian   -1.07
    325 x         -3.806763     -3.797853     0.008910    Cartesian   -0.23
    325 y         -1.268921     -1.270385    -0.001464    Cartesian    0.12
    325 z         -6.344605     -6.341960     0.002645    Cartesian   -0.04
    326 x         -3.806763     -3.799981     0.006782    Cartesian   -0.18
    326 y          3.806763      3.805033    -0.001729    Cartesian   -0.05
    326 z         -6.344605     -6.348016    -0.003411    Cartesian    0.05
    327 x          6.344605      6.344047    -0.000557    Cartesian   -0.01
    327 y          8.882446      8.877935    -0.004512    Cartesian   -0.05
    327 z          6.344605      6.340995    -0.003610    Cartesian   -0.06
    328 x          6.344605      6.342282    -0.002322    Cartesian   -0.04
    328 y          8.882446      8.883593     0.001147    Cartesian    0.01
    328 z         -3.806763     -3.805120     0.001643    Cartesian   -0.04
    329 x          5.075684      5.074445    -0.001239    Cartesian   -0.02
    329 y         10.151367     10.156302     0.004934    Cartesian    0.05
    329 z          5.075684      5.074088    -0.001595    Cartesian   -0.03
    330 x         -2.537842     -2.540197    -0.002356    Cartesian    0.09
    330 y         -5.075684     -5.079981    -0.004297    Cartesian    0.08
    330 z          7.613525      7.617823     0.004297    Cartesian    0.06
    331 x         -2.537842     -2.538900    -0.001058    Cartesian    0.04
    331 y          2.537842      2.537786    -0.000056    Cartesian   -0.00
    331 z         10.151367     10.154565     0.003198    Cartesian    0.03
    332 x          8.882446      8.881257    -0.001189    Cartesian   -0.01
    332 y          8.882446      8.872127    -0.010319    Cartesian   -0.12
    332 z          1.268921      1.266060    -0.002861    Cartesian   -0.23
    333 x          1.268921      1.273240     0.004319    Cartesian    0.34
    333 y          1.268921      1.269477     0.000556    Cartesian    0.04
    333 z         11.420288     11.412057    -0.008231    Cartesian   -0.07
    334 x         -6.344605     -6.349529    -0.004925    Cartesian    0.08
    334 y         -3.806763     -3.806476     0.000287    Cartesian   -0.01
    334 z         -1.268921     -1.272522    -0.003601    Cartesian    0.28
    335 x         -6.344605     -6.353475    -0.008871    Cartesian    0.14
    335 y         -3.806763     -3.803414     0.003349    Cartesian   -0.09
    335 z          3.806763      3.808679     0.001917    Cartesian    0.05
    336 x          3.806763      3.809728     0.002965    Cartesian    0.08
    336 y          1.268921      1.268329    -0.000592    Cartesian   -0.05
    336 z         11.420288     11.394906    -0.025382    Cartesian   -0.22
    337 x         10.151367     10.156526     0.005159    Cartesian    0.05
    337 y          2.537842      2.540559     0.002717    Cartesian    0.11
    337 z          7.613525      7.619470     0.005945    Cartesian    0.08
    338 x         -5.075684     -5.081442    -0.005759    Cartesian    0.11
    338 y         -5.075684     -5.079719    -0.004035    Cartesian    0.08
    338 z          5.075684      5.075031    -0.000653    Cartesian   -0.01
    339 x          8.882446      8.882889     0.000443    Cartesian    0.00
    339 y          8.882446      8.884843     0.002397    Cartesian    0.03
    339 z         -1.268921     -1.267300     0.001621    Cartesian   -0.13
    340 x          8.882446      8.887093     0.004646    Cartesian    0.05
    340 y          8.882446      8.874058    -0.008388    Cartesian   -0.09
    340 z          3.806763      3.804809    -0.001953    Cartesian   -0.05
    341 x          1.268921      1.272714     0.003793    Cartesian    0.30
    341 y          3.806763      3.805552    -0.001210    Cartesian   -0.03
    341 z         11.420288     11.411134    -0.009154    Cartesian   -0.08
    342 x          1.268921      1.269021     0.000100    Cartesian    0.01
    342 y         -1.268921     -1.267829     0.001092    Cartesian   -0.09
    342 z         11.420288     11.426710     0.006422    Cartesian    0.06
    343 x          7.613525      7.612075    -0.001450    Cartesian   -0.02
    343 y          7.613525      7.621428     0.007902    Cartesian    0.10
    343 z         -5.075684     -5.083586    -0.007902    Cartesian    0.16
    344 x          7.613525      7.612360    -0.001165    Cartesian   -0.02
    344 y         10.151367     10.156713     0.005346    Cartesian    0.05
    344 z          2.537842      2.538660     0.000818    Cartesian    0.03
    345 x         -7.613525     -7.620988    -0.007462    Cartesian    0.10
    345 y         -0.000000      0.002618     0.002618    Cartesian *******
    345 z         -2.537842     -2.537568     0.000274    Cartesian   -0.01
    346 x         11.420288     11.417328    -0.002960    Cartesian   -0.03
    346 y          1.268921      1.276645     0.007725    Cartesian    0.61
    346 z         -3.806763     -3.805079     0.001683    Cartesian   -0.04
    347 x          3.806763      3.805470    -0.001293    Cartesian   -0.03
    347 y          3.806763      3.804884    -0.001879    Cartesian   -0.05
    347 z         11.420288     11.426400     0.006112    Cartesian    0.05
    348 x          3.806763      3.808565     0.001803    Cartesian    0.05
    348 y         -8.882446     -8.883473    -0.001026    Cartesian    0.01
    348 z          3.806763      3.804815    -0.001948    Cartesian   -0.05
    349 x         -1.268921     -1.265712     0.003209    Cartesian   -0.25
    349 y          1.268921      1.267507    -0.001413    Cartesian   -0.11
    349 z         11.420288     11.416511    -0.003777    Cartesian   -0.03
    350 x         12.689209     12.679620    -0.009589    Cartesian   -0.08
    350 y          2.537842      2.555947     0.018105    Cartesian    0.71
    350 z          0.000000     -0.018105    -0.018105    Cartesian *******
    351 x         -2.537842     -2.541942    -0.004101    Cartesian    0.16
    351 y         -7.613525     -7.617944    -0.004418    Cartesian    0.06
    351 z          5.075684      5.077522     0.001838    Cartesian    0.04
    352 x          1.268921      1.274928     0.006007    Cartesian    0.47
    352 y         -6.344605     -6.342726     0.001878    Cartesian   -0.03
    352 z          8.882446      8.880568    -0.001878    Cartesian   -0.02
    353 x          1.268921      1.268628    -0.000293    Cartesian   -0.02
    353 y          8.882446      8.880820    -0.001626    Cartesian   -0.02
    353 z          8.882446      8.880820    -0.001626    Cartesian   -0.02
    354 x         11.420288     11.412871    -0.007418    Cartesian   -0.06
    354 y          6.344605      6.349007     0.004403    Cartesian    0.07
    354 z          3.806763      3.806883     0.000120    Cartesian    0.00
    355 x         11.420288     11.418958    -0.001331    Cartesian   -0.01
    355 y          6.344605      6.338502    -0.006103    Cartesian   -0.10
    355 z         -1.268921     -1.268257     0.000664    Cartesian   -0.05
    356 x          3.806763      3.810285     0.003522    Cartesian    0.09
    356 y          8.882446      8.880186    -0.002260    Cartesian   -0.03
    356 z          8.882446      8.880186    -0.002260    Cartesian   -0.03
    357 x          3.806763      3.805498    -0.001265    Cartesian   -0.03
    357 y         -6.344605     -6.343508     0.001096    Cartesian   -0.02
    357 z          8.882446      8.881350    -0.001096    Cartesian   -0.01
    358 x         -3.806763     -3.805464     0.001298    Cartesian   -0.03
    358 y         -3.806763     -3.805897     0.000865    Cartesian   -0.02
    358 z          8.882446      8.879885    -0.002561    Cartesian   -0.03
    359 x         -3.806763     -3.807259    -0.000496    Cartesian    0.01
    359 y          6.344605      6.342142    -0.002463    Cartesian   -0.04
    359 z          8.882446      8.882754     0.000308    Cartesian    0.00
    360 x         10.151367     10.154809     0.003442    Cartesian    0.03
    360 y          5.075684      5.079246     0.003562    Cartesian    0.07
    360 z         -5.075684     -5.084646    -0.008963    Cartesian    0.18
    361 x          2.537842      2.536060    -0.001782    Cartesian   -0.07
    361 y         10.151367     10.158005     0.006638    Cartesian    0.07
    361 z          7.613525      7.616834     0.003308    Cartesian    0.04
    362 x          6.344605      6.347101     0.002496    Cartesian    0.04
    362 y          1.268921      1.265974    -0.002947    Cartesian   -0.23
    362 z         11.420288     11.406703    -0.013586    Cartesian   -0.12
    363 x         -1.268921     -1.267474     0.001447    Cartesian   -0.11
    363 y         -8.882446     -8.873908     0.008539    Cartesian   -0.10
    363 z          3.806763      3.804351    -0.002412    Cartesian   -0.06
    364 x         -1.268921     -1.267452     0.001469    Cartesian   -0.12
    364 y          3.806763      3.806381    -0.000382    Cartesian   -0.01
    364 z         11.420288     11.423852     0.003564    Cartesian    0.03
    365 x         -8.882446     -8.809227     0.073219    Cartesian   -0.82
    365 y          1.268921      1.268921     0.000000    Cartesian    0.00
    365 z          1.268921      1.268921     0.000000    Cartesian    0.00
    366 x         -6.344605     -6.335100     0.009505    Cartesian   -0.15
    366 y          6.344605      6.341963    -0.002641    Cartesian   -0.04
    366 z          6.344605      6.341963    -0.002641    Cartesian   -0.04
    367 x         -6.344605     -6.341275     0.003329    Cartesian   -0.05
    367 y         -3.806763     -3.806494     0.000269    Cartesian   -0.01
    367 z          6.344605      6.344336    -0.000269    Cartesian   -0.00
    368 x          7.613525      7.616917     0.003392    Cartesian    0.04
    368 y         10.151367     10.158560     0.007192    Cartesian    0.07
    368 z         -2.537842     -2.539467    -0.001625    Cartesian    0.06
    369 x          0.000000     -0.002373    -0.002373    Cartesian    0.00
    369 y          7.613525      7.617167     0.003642    Cartesian    0.05
    369 z         -7.613525     -7.619734    -0.006208    Cartesian    0.08
    370 x         -7.613525     -7.618384    -0.004859    Cartesian    0.06
    370 y         -2.537842     -2.544029    -0.006188    Cartesian    0.24
    370 z          5.075684      5.081871     0.006188    Cartesian    0.12
    371 x          6.344605      6.341945    -0.002659    Cartesian   -0.04
    371 y         11.420288     11.410241    -0.010047    Cartesian   -0.09
    371 z         -1.268921     -1.267686     0.001235    Cartesian   -0.10
    372 x          6.344605      6.343864    -0.000741    Cartesian   -0.01
    372 y         11.420288     11.420244    -0.000044    Cartesian   -0.00
    372 z          3.806763      3.802512    -0.004251    Cartesian   -0.11
    373 x         -1.268921     -1.264548     0.004372    Cartesian   -0.34
    373 y          8.882446      8.880845    -0.001602    Cartesian   -0.02
    373 z          8.882446      8.880845    -0.001602    Cartesian   -0.02
    374 x         -1.268921     -1.267226     0.001695    Cartesian   -0.13
    374 y         -6.344605     -6.342146     0.002459    Cartesian   -0.04
    374 z          8.882446      8.879987    -0.002459    Cartesian   -0.03
    375 x         12.689209     12.701960     0.012751    Cartesian    0.10
    375 y          5.075684      5.077617     0.001933    Cartesian    0.04
    375 z          2.537842      2.535144    -0.002697    Cartesian   -0.11
    376 x         -8.882446     -8.908178    -0.025732    Cartesian    0.29
    376 y         -1.268921     -1.263630     0.005291    Cartesian   -0.42
    376 z          1.268921      1.272475     0.003554    Cartesian    0.28
    377 x          5.075684      5.076374     0.000691    Cartesian    0.01
    377 y         10.151367     10.159890     0.008523    Cartesian    0.08
    377 z         -5.075684     -5.079880    -0.004196    Cartesian    0.08
    378 x          8.882446      8.882813     0.000367    Cartesian    0.00
    378 y          8.882446      8.877479    -0.004967    Cartesian   -0.06
    378 z         -3.806763     -3.805161     0.001602    Cartesian   -0.04
    379 x          8.882446      8.874956    -0.007490    Cartesian   -0.08
    379 y          8.882446      8.876050    -0.006396    Cartesian   -0.07
    379 z          6.344605      6.338100    -0.006504    Cartesian   -0.10
    380 x          1.268921      1.269585     0.000664    Cartesian    0.05
    380 y          6.344605      6.344163    -0.000441    Cartesian   -0.01
    380 z         11.420288     11.417374    -0.002914    Cartesian   -0.03
    381 x          1.268921      1.271367     0.002446    Cartesian    0.19
    381 y         -8.882446     -8.875045     0.007402    Cartesian   -0.08
    381 z          6.344605      6.342251    -0.002353    Cartesian   -0.04
    382 x         -6.344605     -6.345604    -0.001000    Cartesian    0.02
    382 y         -6.344605     -6.343089     0.001516    Cartesian   -0.02
    382 z          1.268921      1.267568    -0.001352    Cartesian   -0.11
    383 x          3.806763      3.805813    -0.000949    Cartesian   -0.02
    383 y          6.344605      6.341463    -0.003142    Cartesian   -0.05
    383 z         11.420288     11.410607    -0.009681    Cartesian   -0.08
    384 x          3.806763      3.807406     0.000643    Cartesian    0.02
    384 y         -3.806763     -3.805606     0.001157    Cartesian   -0.03
    384 z         11.420288     11.412962    -0.007326    Cartesian   -0.06
    385 x          2.537842      2.535729    -0.002113    Cartesian   -0.08
    385 y         -0.000000     -0.003918    -0.003918    Cartesian *******
    385 z         12.689209     12.697128     0.007919    Cartesian    0.06
    386 x         -5.075684     -5.080722    -0.005039    Cartesian    0.10
    386 y          7.613525      7.619967     0.006442    Cartesian    0.08
    386 z          7.613525      7.619967     0.006442    Cartesian    0.08
    387 x         -5.075684     -5.080864    -0.005181    Cartesian    0.10
    387 y         -7.613525     -7.620040    -0.006515    Cartesian    0.09
    387 z          2.537842      2.538184     0.000342    Cartesian    0.01
    388 x          6.344605      6.347412     0.002808    Cartesian    0.04
    388 y         -6.344605     -6.340986     0.003618    Cartesian   -0.06
    388 z          8.882446      8.878828    -0.003618    Cartesian   -0.04
    389 x          6.344605      6.339698    -0.004907    Cartesian   -0.08
    389 y          8.882446      8.873960    -0.008486    Cartesian   -0.10
    389 z          8.882446      8.873960    -0.008486    Cartesian   -0.10
    390 x         -8.882446     -8.859489     0.022957    Cartesian   -0.26
    390 y         -1.268921     -1.267649     0.001272    Cartesian   -0.10
    390 z         -1.268921     -1.267649     0.001272    Cartesian   -0.10
    391 x         -8.882446     -8.856197     0.026249    Cartesian   -0.30
    391 y         -1.268921     -1.269048    -0.000127    Cartesian    0.01
    391 z          3.806763      3.806889     0.000127    Cartesian    0.00
    392 x         -6.344605     -6.340525     0.004079    Cartesian   -0.06
    392 y         -1.268921     -1.269092    -0.000171    Cartesian    0.01
    392 z          8.882446      8.879196    -0.003250    Cartesian   -0.04
    393 x         -6.344605     -6.332910     0.011695    Cartesian   -0.18
    393 y          3.806763      3.802136    -0.004627    Cartesian   -0.12
    393 z          8.882446      8.876100    -0.006347    Cartesian   -0.07
    394 x          0.000000     -0.003297    -0.003297    Cartesian    0.00
    394 y          2.537842      2.539727     0.001885    Cartesian    0.07
    394 z         12.689209     12.698541     0.009332    Cartesian    0.07
    395 x         -7.613525     -7.623155    -0.009629    Cartesian    0.13
    395 y          2.537842      2.539825     0.001984    Cartesian    0.08
    395 z         -5.075684     -5.081175    -0.005491    Cartesian    0.11
    396 x         11.420288     11.413042    -0.007246    Cartesian   -0.06
    396 y         -3.806763     -3.798483     0.008279    Cartesian   -0.22
    396 z         -3.806763     -3.798483     0.008279    Cartesian   -0.22
    397 x         11.420288     11.425462     0.005174    Cartesian    0.05
    397 y          6.344605      6.343091    -0.001514    Cartesian   -0.02
    397 z         -3.806763     -3.805249     0.001514    Cartesian   -0.04
    398 x         -3.806763     -3.802178     0.004585    Cartesian   -0.12
    398 y         -8.882446     -8.873198     0.009248    Cartesian   -0.10
    398 z          1.268921      1.268446    -0.000475    Cartesian   -0.04
    399 x         13.958130     13.866988    -0.091142    Cartesian   -0.65
    399 y          1.268921      1.268921     0.000000    Cartesian    0.00
    399 z          1.268921      1.268921     0.000000    Cartesian    0.00
    400 x         -1.268921     -1.265751     0.003170    Cartesian   -0.25
    400 y         -3.806763     -3.804538     0.002225    Cartesian   -0.06
    400 z         11.420288     11.414074    -0.006214    Cartesian   -0.05
    401 x         -1.268921     -1.266145     0.002776    Cartesian   -0.22
    401 y          6.344605      6.341440    -0.003165    Cartesian   -0.05
    401 z         11.420288     11.410442    -0.009847    Cartesian   -0.09
    402 x         12.689209     12.699665     0.010456    Cartesian    0.08
    402 y          5.075684      5.086757     0.011074    Cartesian    0.22
    402 z         -2.537842     -2.548915    -0.011074    Cartesian    0.44
    403 x          5.075684      5.077083     0.001400    Cartesian    0.03
    403 y          2.537842      2.541961     0.004119    Cartesian    0.16
    403 z         12.689209     12.699022     0.009813    Cartesian    0.08
    404 x         -2.537842     -2.542713    -0.004871    Cartesian    0.19
    404 y         10.151367     10.158995     0.007628    Cartesian    0.08
    404 z          7.613525      7.618548     0.005022    Cartesian    0.07
--------------------------------------------------------------------------------


  Time to end of optimisation  =      116.1549 seconds


  Peak dynamic memory used =     385.55 MB 


  Timing analysis for GULP :

--------------------------------------------------------------------------------
  Task / Subroutine                                          Time (Seconds)
--------------------------------------------------------------------------------
  Calculation of reciprocal space energy and derivatives          0.0002
  Calculation of reciprocal space energy using symmetry           0.0002
  Calculation of real space energy and derivatives                0.0020
  Calculation of real space energy using symmetry                 0.0069
  Calculation for region 1 energy and derivatives (2-b)          29.4143
  Calculation for region 2a energy                               71.1593
  Calculation for region 2b energy                                0.0102
  Calculation and manipulation of Hessian matrix                 14.0942
  Calculation of matrix inversion                                 1.0322
  Symmetry generation of equivalent positions                     0.0015
--------------------------------------------------------------------------------
  Total CPU time                                                116.1549
--------------------------------------------------------------------------------


  Dump file written as ZrO2.grs


  Job Finished at 12:20.47 14th October    2020                               

