********************************************************************************
*                       GENERAL UTILITY LATTICE PROGRAM                        *
*                                 Julian Gale                                  *
*                       Curtin Institute for Computation                       *
*                    School of Molecular and Life Sciences                     *
*                    Curtin University, Western Australia                      *
********************************************************************************
* Version = 5.2.0 * Last modified =  10th September 2020                       *
********************************************************************************
* Zirconia doped with calcium                                                  *
*  optimise     - perform optimisation run                                     *
*  conp         - constant pressure calculation                                *
*  property     - calculate properties for final geometry                      *
*  defect       - perform defect calculation after bulk run                    *
*  distance     - calculate distances                                          *
*  compare      - compare initial and final structures                         *
********************************************************************************
* Zirconia doped with calcium                                                  *
********************************************************************************


  Job Started  at 11:52.21 14th October    2020                               

  Number of CPUs =     1


  Total number of configurations input =      1

********************************************************************************
*  Input for Configuration =   1 : ZrO2                                        *
********************************************************************************

  Formula = ZrO2                                                        

  Number of irreducible atoms/shells =       4


  Total number atoms/shells =       6

  Dimensionality = 3               :  Bulk   


  Symmetry :

  Crystal family                   :  Cubic       
  Crystal class  (Groth - 1921)    :  Cubic Hexakisoctahedral              

  Space group (centrosymmetric)    :  F M 3 M         

  Patterson group                  :  F m -3 m 

  Cartesian lattice vectors (Angstroms) :

        0.000000    2.535000    2.535000
        2.535000    0.000000    2.535000
        2.535000    2.535000    0.000000

  Primitive cell parameters :            Full cell parameters :

  a =   3.5850    alpha =  60.0000       a =   5.0700    alpha =  90.0000
  b =   3.5850    beta  =  60.0000       b =   5.0700    beta  =  90.0000
  c =   3.5850    gamma =  60.0000       c =   5.0700    gamma =  90.0000

  Initial volumes (Angstroms**3):

  Primitive cell =          32.580961    Full cell =         130.323843

  Temperature of configuration =   0.00     K 

  Pressure of configuration =         0.000 GPa 

  Fractional coordinates of asymmetric unit :

--------------------------------------------------------------------------------
   No.  Atomic       x           y          z         Charge      Occupancy
        Label      (Frac)      (Frac)     (Frac)        (e)         (Frac)  
--------------------------------------------------------------------------------
      1 Zr    c    0.000000    0.000000    0.000000     2.65000    1.000000    
      2 O     c    0.250000    0.250000    0.250000     0.07700    1.000000    
      3 Zr    s    0.000000    0.000000    0.000000     1.35000    1.000000    
      4 O     s    0.250000    0.250000    0.250000    -2.07700    1.000000    
--------------------------------------------------------------------------------


  Constraints : 

--------------------------------------------------------------------------------
  Constraint no.      Unconstrained     Constrained    Coefficient    Offset
                         Variable         Variable
--------------------------------------------------------------------------------
           1              Strain 1        Strain 2       1.00000      0.0000
           2              Strain 1        Strain 3       1.00000      0.0000
--------------------------------------------------------------------------------


  Distance calculation :


  Cutoff for distances  =      4.000000 Angstroms

--------------------------------------------------------------------------------
  Asymmetric unit site  Full lattice sites    No.  Distance      No.  Distance
      No.   At.No.            At.No.                (Angs)             (Angs) 
--------------------------------------------------------------------------------
       1   Zr    core        Zr    core        12    3.5850
                             Zr    shell       12    3.5850
                             O     core         8    2.1954
                             O     shell        8    2.1954
--------------------------------------------------------------------------------
       2   O     core        Zr    core         4    2.1954
                             Zr    shell        4    2.1954
                             O     core         6    2.5350       12    3.5850
                             O     shell        6    2.5350       12    3.5850
--------------------------------------------------------------------------------
       3   Zr    shell       Zr    core        12    3.5850
                             Zr    shell       12    3.5850
                             O     core         8    2.1954
                             O     shell        8    2.1954
--------------------------------------------------------------------------------
       4   O     shell       Zr    core         4    2.1954
                             Zr    shell        4    2.1954
                             O     core         6    2.5350       12    3.5850
                             O     shell        6    2.5350       12    3.5850
--------------------------------------------------------------------------------



********************************************************************************
*  General input information                                                   *
********************************************************************************

  Species output for all configurations : 

--------------------------------------------------------------------------------
  Species    Type    Atomic    Atomic    Charge       Radii (Angs)     Library
                     Number     Mass       (e)     Cova   Ionic  VDW   Symbol
--------------------------------------------------------------------------------
    Zr       Core       40      91.22   2.650000   1.560  0.000  2.330          
    Zr       Shell      40       0.00   1.350000   1.560  0.000  2.330          
    O        Core        8      16.00   0.077000   0.730  0.000  1.360          
    O        Shell       8       0.00  -2.077000   0.730  0.000  1.360          
--------------------------------------------------------------------------------


  Lattice summation method               =    Ewald          (3-D)
                                         =    Parry          (2-D)
                                         =    Saunders et al (1-D)
  Accuracy factor for lattice sums       =   12.000


  Analytic derivatives to be used

  Time limit = Infinity

  Maximum range for interatomic potentials =    100000.000000 Angstroms

  General interatomic potentials :

--------------------------------------------------------------------------------
Atom  Types   Potential      Parameter       Value         Units   Cutoffs(Ang)
  1     2                                                            Min /  Max 
--------------------------------------------------------------------------------
O    s Zr   s Buckingham    Buckingham A     985.86900    eV        0.000 12.000
                            Buckingham rho  0.37600000    Ang       
                            Buckingham C     0.0000000    eV*Ang^6  
--------------------------------------------------------------------------------
O    s O    s Buckingham    Buckingham A     22764.300    eV        0.000 12.000
                            Buckingham rho  0.14900000    Ang       
                            Buckingham C     27.890000    eV*Ang^6  
--------------------------------------------------------------------------------
Zr   c Zr   s Spring (c-s)  Spring k 2       169.61700    eV*Ang^-2 0.000  0.800
                            Spring k 4       0.0000000    eV*Ang^-4 
--------------------------------------------------------------------------------
O    c O    s Spring (c-s)  Spring k 2       27.290000    eV*Ang^-2 0.000  0.800
                            Spring k 4       0.0000000    eV*Ang^-4 
--------------------------------------------------------------------------------

********************************************************************************
*  Output for configuration   1 : ZrO2                                         *
********************************************************************************


  Components of energy : 

--------------------------------------------------------------------------------
  Interatomic potentials     =          22.43756329 eV    
  Monopole - monopole (real) =         -15.67991073 eV    
  Monopole - monopole (recip)=        -116.52038266 eV    
  Monopole - monopole (total)=        -132.20029339 eV    
--------------------------------------------------------------------------------
  Total lattice energy : 
    Primitive unit cell      =        -109.76273010 eV    
    Non-primitive unit cell  =        -439.05092039 eV    
--------------------------------------------------------------------------------
  Total lattice energy (in kJmol-1): 
    Primitive unit cell      =          -10590.4256 kJ/(mole unit cells)
    Non-primitive unit cell  =          -42361.7023 kJ/(mole unit cells)
--------------------------------------------------------------------------------


  Number of variables =        1

  Maximum number of calculations  =          1000
  Maximum Hessian update interval =            10
  Maximum step size               =   1.000000000
  Maximum parameter tolerance     =   0.000010000
  Maximum function  tolerance     =   0.000010000
  Maximum gradient  tolerance     =   0.001000000
  Maximum gradient  component     =   0.010000000

  Symmetry constrained optimisation

  Symmetry used for second derivatives

  Cell parameters to be optimised using strains

  Newton-Raphson optimiser to be used

  BFGS hessian update to be used

  Lower half triangular hessian to be used

  Start of bulk optimisation :

  Cycle:      0 Energy:      -109.762730  Gnorm:      0.588311  CPU:    0.006
  ** Hessian calculated **
  Cycle:      1 Energy:      -109.763059  Gnorm:      0.000316  CPU:    0.009


  **** Optimisation achieved ****


  Final energy =    -109.76305939 eV
  Final Gnorm  =       0.00000099

  Components of energy : 

--------------------------------------------------------------------------------
  Interatomic potentials     =          22.28919976 eV    
  Monopole - monopole (real) =         -15.66235280 eV    
  Monopole - monopole (recip)=        -116.38990634 eV    
  Monopole - monopole (total)=        -132.05225914 eV    
--------------------------------------------------------------------------------
  Total lattice energy : 
    Primitive unit cell      =        -109.76305939 eV    
    Non-primitive unit cell  =        -439.05223754 eV    
--------------------------------------------------------------------------------
  Total lattice energy (in kJmol-1): 
    Primitive unit cell      =          -10590.4573 kJ/(mole unit cells)
    Non-primitive unit cell  =          -42361.8294 kJ/(mole unit cells)
--------------------------------------------------------------------------------

  Final asymmetric unit coordinates :

--------------------------------------------------------------------------------
   No.  Atomic        x           y           z         Radius
        Label       (Frac)      (Frac)      (Frac)       (Angs) 
--------------------------------------------------------------------------------
     1  Zr    c     0.000000    0.000000    0.000000    0.000000
     2  O     c     0.250000    0.250000    0.250000    0.000000
     3  Zr    s     0.000000    0.000000    0.000000    0.000000
     4  O     s     0.250000    0.250000    0.250000    0.000000
--------------------------------------------------------------------------------

  Final Cartesian lattice vectors (Angstroms) :

        0.000000    2.537842    2.537842
        2.537842    0.000000    2.537842
        2.537842    2.537842    0.000000


  Final cell parameters and derivatives :

--------------------------------------------------------------------------------
       a            3.589050 Angstrom     dE/de1(xx)    -0.000001 eV/strain
       b            3.589050 Angstrom     dE/de2(yy)     0.000000 eV/strain
       c            3.589050 Angstrom     dE/de3(zz)     0.000000 eV/strain
       alpha       60.000000 Degrees      dE/de4(yz)     0.000000 eV/strain
       beta        60.000000 Degrees      dE/de5(xz)     0.000000 eV/strain
       gamma       60.000000 Degrees      dE/de6(xy)     0.000000 eV/strain
--------------------------------------------------------------------------------

  Primitive cell volume =            32.690656 Angs**3

  Density of cell =      6.259124 g/cm**3

  Non-primitive lattice parameters :

  a    =     5.075684  b   =     5.075684  c    =     5.075684
  alpha=    90.000000  beta=    90.000000  gamma=    90.000000

  Non-primitive cell volume =           130.762624 Angs**3


  Final internal derivatives :

--------------------------------------------------------------------------------
   No.  Atomic          a             b             c           Radius
        Label          (eV)          (eV)          (eV)        (eV/Angs)
--------------------------------------------------------------------------------
      1 Zr    c       0.000000      0.000000      0.000000      0.000000
      2 O     c       0.000000      0.000000      0.000000      0.000000
      3 Zr    s       0.000000      0.000000      0.000000      0.000000
      4 O     s       0.000000      0.000000      0.000000      0.000000
--------------------------------------------------------------------------------
  Maximum abs         0.000000      0.000000      0.000000      0.000000
--------------------------------------------------------------------------------

  Comparison of initial and final structures : 

--------------------------------------------------------------------------------
  Parameter   Initial value   Final value   Difference    Units      Percent
--------------------------------------------------------------------------------
    Volume       130.323843    130.762624     0.438781    Angs**3      0.34
    a              5.070000      5.075684     0.005684    Angstroms    0.11
    b              5.070000      5.075684     0.005684    Angstroms    0.11
    c              5.070000      5.075684     0.005684    Angstroms    0.11
    alpha         90.000000     90.000000     0.000000    Degrees      0.00
    beta          90.000000     90.000000     0.000000    Degrees      0.00
    gamma         90.000000     90.000000     0.000000    Degrees      0.00
      1 x          0.000000      0.000000     0.000000    Fractional   0.00
      1 y          0.000000      0.000000     0.000000    Fractional   0.00
      1 z          0.000000      0.000000     0.000000    Fractional   0.00
      2 x          0.250000      0.250000     0.000000    Fractional   0.00
      2 y          0.250000      0.250000     0.000000    Fractional   0.00
      2 z          0.250000      0.250000     0.000000    Fractional   0.00
      3 x          0.000000      0.000000     0.000000    Fractional   0.00
      3 y          0.000000      0.000000     0.000000    Fractional   0.00
      3 z          0.000000      0.000000     0.000000    Fractional   0.00
      4 x          0.250000      0.250000     0.000000    Fractional   0.00
      4 y          0.250000      0.250000     0.000000    Fractional   0.00
      4 z          0.250000      0.250000     0.000000    Fractional   0.00
--------------------------------------------------------------------------------


  Distance calculation :


  Cutoff for distances  =      4.000000 Angstroms

--------------------------------------------------------------------------------
  Asymmetric unit site  Full lattice sites    No.  Distance      No.  Distance
      No.   At.No.            At.No.                (Angs)             (Angs) 
--------------------------------------------------------------------------------
       1   Zr    core        Zr    core        12    3.5891
                             Zr    shell       12    3.5891
                             O     core         8    2.1978
                             O     shell        8    2.1978
--------------------------------------------------------------------------------
       2   O     core        Zr    core         4    2.1978
                             Zr    shell        4    2.1978
                             O     core         6    2.5378       12    3.5891
                             O     shell        6    2.5378       12    3.5891
--------------------------------------------------------------------------------
       3   Zr    shell       Zr    core        12    3.5891
                             Zr    shell       12    3.5891
                             O     core         8    2.1978
                             O     shell        8    2.1978
--------------------------------------------------------------------------------
       4   O     shell       Zr    core         4    2.1978
                             Zr    shell        4    2.1978
                             O     core         6    2.5378       12    3.5891
                             O     shell        6    2.5378       12    3.5891
--------------------------------------------------------------------------------



  Born effective charge tensors : 

-------------------------------------------------------------------------------
  Atom             x           y             z
-------------------------------------------------------------------------------
    1 Zr    x       3.6770      0.0000      0.0000
            y       0.0000      3.6770      0.0000
            z       0.0000      0.0000      3.6770
-------------------------------------------------------------------------------
    2 O     x      -1.8385      0.0000      0.0000
            y       0.0000     -1.8385     -0.0000
            z       0.0000     -0.0000     -1.8385
-------------------------------------------------------------------------------




  Elastic Constant Matrix: (Units=GPa)

-------------------------------------------------------------------------------
  Indices      1         2         3         4         5         6    
-------------------------------------------------------------------------------
       1    616.2933  119.6612  119.6612   -0.0000   -0.0000   -0.0000
       2    119.6612  616.2933  119.6612   -0.0000   -0.0000   -0.0000
       3    119.6612  119.6612  616.2933   -0.0000   -0.0000   -0.0000
       4     -0.0000   -0.0000   -0.0000  100.8598    0.0000   -0.0000
       5     -0.0000   -0.0000   -0.0000    0.0000  100.8598    0.0000
       6     -0.0000   -0.0000   -0.0000   -0.0000    0.0000  100.8598
-------------------------------------------------------------------------------


  Elastic Compliance Matrix: (Units=1/GPa)

-------------------------------------------------------------------------------
  Indices      1         2         3         4         5         6    
-------------------------------------------------------------------------------
       1    0.001732 -0.000282 -0.000282  0.000000  0.000000  0.000000
       2   -0.000282  0.001732 -0.000282 -0.000000  0.000000  0.000000
       3   -0.000282 -0.000282  0.001732  0.000000  0.000000  0.000000
       4    0.000000 -0.000000  0.000000  0.009915 -0.000000  0.000000
       5    0.000000  0.000000  0.000000 -0.000000  0.009915 -0.000000
       6    0.000000  0.000000  0.000000  0.000000 -0.000000  0.009915
-------------------------------------------------------------------------------

  Mechanical properties :

-------------------------------------------------------------------------------
  Convention :                    Reuss         Voigt         Hill
-------------------------------------------------------------------------------
  Bulk  Modulus (GPa)     =     285.20524     285.20524     285.20524
  Shear Modulus (GPa)     =     132.28031     159.84228     146.06129
-------------------------------------------------------------------------------
  Velocity S-wave (km/s)  =       4.59717       5.05346       4.83071
  Velocity P-wave (km/s)  =       8.58749       8.92280       8.75675
-------------------------------------------------------------------------------
  Compressibility (1/GPa) =    0.00350625
-------------------------------------------------------------------------------
  Stress axis :                     x             y             z
-------------------------------------------------------------------------------
  Youngs Moduli (GPa)     =     577.38110     577.38110     577.38110
-------------------------------------------------------------------------------
  Poissons Ratio (x)      =                     0.16259       0.16259
  Poissons Ratio (y)      =       0.16259                     0.16259
  Poissons Ratio (z)      =       0.16259       0.16259
-------------------------------------------------------------------------------


  Piezoelectric Strain Matrix: (Units=C/m**2)

-------------------------------------------------------------------------------
  Indices      1         2         3         4         5         6    
-------------------------------------------------------------------------------
       x    -0.00000   0.00000   0.00000   0.00000   0.00000   0.00000
       y    -0.00000  -0.00000  -0.00000   0.00000   0.00000   0.00000
       z    -0.00000  -0.00000  -0.00000   0.00000   0.00000   0.00000
-------------------------------------------------------------------------------


  Piezoelectric Stress Matrix: (Units=10**-11 C/N)

-------------------------------------------------------------------------------
  Indices      1         2         3         4         5         6    
-------------------------------------------------------------------------------
       x    -0.00000   0.00000   0.00000   0.00000   0.00000   0.00000
       y    -0.00000  -0.00000  -0.00000   0.00000   0.00000   0.00000
       z     0.00000   0.00000  -0.00000   0.00000   0.00000   0.00000
-------------------------------------------------------------------------------


  Static dielectric constant tensor : 

-------------------------------------------------------------------------------
              x         y         z
-------------------------------------------------------------------------------
       x    26.88485   0.00000   0.00000
       y     0.00000  26.88485   0.00000
       z     0.00000   0.00000  26.88485
--------------------------------------------------------------------------------

  High frequency dielectric constant tensor : 

-------------------------------------------------------------------------------
              x         y         z
-------------------------------------------------------------------------------
       x     2.63099   0.00000   0.00000
       y     0.00000   2.63099   0.00000
       z     0.00000   0.00000   2.63099
-------------------------------------------------------------------------------

  Static refractive indices : 

-------------------------------------------------------------------------------
    1 =    5.18506      2 =    5.18506      3 =    5.18506
-------------------------------------------------------------------------------

  High frequency refractive indices : 

-------------------------------------------------------------------------------
    1 =    1.62203      2 =    1.62203      3 =    1.62203
-------------------------------------------------------------------------------


  Time to end of optimisation =       0.0143 seconds

********************************************************************************
*  Defect calculation for configuration   1 :                                  *
********************************************************************************

  Total number of defects =      3

  Total charge on defect  =   2.00

  Defect centre is at   0.2700   0.2500   0.2500  Frac

  Region 1 radius =  12.0000      Number of ions =   1352

  Number of symmetry inequivalent region 1 ions  =    416

  Region 2 radius =  24.0000      Number of ions =   9300

  Number of symmetry inequivalent region 2a ions =   2554

  Region 2a mode = 4 : screened electrostatics due to region 1 
                       neglect correction to region 1 forces from 2a
                       region 2a displacements based on defects only

  Region 2a ions will only interact with defects in region 1

  Vacancies:

--------------------------------------------------------------------------------
    Specification type     Symbol/Number         x          y          z
--------------------------------------------------------------------------------
    Fractional                               0.250000   0.250000   0.250000
    Fractional                               0.750000   0.250000   0.250000
--------------------------------------------------------------------------------

  Interstitials:

--------------------------------------------------------------------------------
    Specification type     Symbol/Number         x          y          z
--------------------------------------------------------------------------------
    Atom/Fractional         O                0.270000   0.250000   0.250000
--------------------------------------------------------------------------------


  Symmetry reduced region 1 (Relative to defect centre) :

--------------------------------------------------------------------------------
   No.   Atomic       x            y             z       Radius  Multiplicity   
         Label      (Angs)       (Angs)        (Angs)    (Angs)     
--------------------------------------------------------------------------------
     1  O     c      0.0000       0.0000       0.0000    0.0000     1    Defect
     2  Zr    c      1.1674 *     1.2689 *    -1.2689    0.0000     2          
     3  Zr    c     -1.3704 *     1.2689 *     1.2689    0.0000     2          
     4  O     c     -0.1015 *     2.5378 *    -0.0000 *  0.0000     4          
     5  O     c     -2.6394 *    -0.0000      -0.0000    0.0000     1          
     6  O     c      2.4363 *     2.5378 *     0.0000 *  0.0000     4          
     7  O     c     -0.1015 *    -2.5378 *     2.5378    0.0000     2          
     8  O     c     -0.1015 *     2.5378 *     2.5378    0.0000     2          
     9  O     c     -2.6394 *     0.0000 *     2.5378 *  0.0000     4          
    10  Zr    c      3.7052 *     1.2689 *     1.2689    0.0000     2          
    11  Zr    c      1.1674 *     1.2689 *     3.8068 *  0.0000     4          
    12  Zr    c     -1.3704 *    -3.8068 *     1.2689 *  0.0000     4          
    13  Zr    c     -3.9083 *    -1.2689 *     1.2689    0.0000     2          
    14  O     c      2.4363 *     2.5378 *     2.5378    0.0000     2          
    15  O     c      2.4363 *     2.5378 *    -2.5378    0.0000     2          
    16  O     c     -2.6394 *     2.5378 *     2.5378    0.0000     2          
    17  O     c     -2.6394 *    -2.5378 *     2.5378    0.0000     2          
    18  O     c      4.9742 *     0.0000       0.0000    0.0000     1          
    19  O     c     -0.1015 *    -5.0757 *     0.0000 *  0.0000     4          
    20  O     c     -5.1772 *     0.0000       0.0000    0.0000     1          
    21  Zr    c      3.7052 *    -1.2689 *     3.8068 *  0.0000     4          
    22  Zr    c      1.1674 *    -3.8068 *     3.8068    0.0000     2          
    23  Zr    c     -1.3704 *     3.8068 *     3.8068    0.0000     2          
    24  O     c      4.9742 *     2.5378 *    -0.0000 *  0.0000     4          
    25  Zr    c     -3.9083 *     3.8068 *     1.2689 *  0.0000     4          
    26  O     c      2.4363 *     5.0757 *    -0.0000 *  0.0000     4          
    27  O     c     -0.1015 *    -2.5378 *     5.0757 *  0.0000     4          
    28  O     c     -0.1015 *     5.0757 *     2.5378 *  0.0000     4          
    29  O     c     -2.6394 *    -0.0000 *     5.0757 *  0.0000     4          
    30  O     c     -5.1772 *    -0.0000 *     2.5378 *  0.0000     4          
    31  O     c      4.9742 *    -2.5378 *     2.5378    0.0000     2          
    32  O     c      4.9742 *     2.5378 *     2.5378    0.0000     2          
    33  O     c      2.4363 *    -5.0757 *     2.5378 *  0.0000     4          
    34  O     c      2.4363 *     5.0757 *     2.5378 *  0.0000     4          
    35  O     c     -2.6394 *     2.5378 *     5.0757 *  0.0000     4          
    36  O     c     -2.6394 *    -5.0757 *     2.5378 *  0.0000     4          
    37  O     c     -5.1772 *     2.5378 *     2.5378    0.0000     2          
    38  O     c     -5.1772 *    -2.5378 *     2.5378    0.0000     2          
    39  Zr    c      6.2431 *     1.2689 *    -1.2689    0.0000     2          
    40  Zr    c      3.7052 *     3.8068 *     3.8068    0.0000     2          
    41  Zr    c      1.1674 *    -1.2689 *     6.3446 *  0.0000     4          
    42  Zr    c     -1.3704 *     1.2689 *     6.3446 *  0.0000     4          
    43  Zr    c     -3.9083 *     3.8068 *    -3.8068    0.0000     2          
    44  Zr    c     -6.4461 *     1.2689 *     1.2689    0.0000     2          
    45  O     c      4.9742 *     0.0000 *     5.0757 *  0.0000     4          
    46  O     c     -0.1015 *     5.0757 *     5.0757    0.0000     2          
    47  O     c     -0.1015 *    -5.0757 *     5.0757    0.0000     2          
    48  O     c     -5.1772 *     5.0757 *     0.0000 *  0.0000     4          
    49  Zr    c      6.2431 *    -3.8068 *    -1.2689 *  0.0000     4          
    50  Zr    c      3.7052 *     1.2689 *     6.3446 *  0.0000     4          
    51  Zr    c      1.1674 *     3.8068 *     6.3446 *  0.0000     4          
    52  O     c      7.5120 *    -0.0000      -0.0000    0.0000     1          
    53  Zr    c     -1.3704 *     3.8068 *    -6.3446 *  0.0000     4          
    54  O     c      4.9742 *     5.0757 *     2.5378 *  0.0000     4          
    55  O     c      4.9742 *    -2.5378 *     5.0757 *  0.0000     4          
    56  Zr    c     -3.9083 *     1.2689 *    -6.3446 *  0.0000     4          
    57  O     c      2.4363 *     5.0757 *     5.0757    0.0000     2          
    58  O     c      2.4363 *    -5.0757 *     5.0757    0.0000     2          
    59  Zr    c     -6.4461 *     1.2689 *    -3.8068 *  0.0000     4          
    60  O     c     -0.1015 *    -0.0000 *     7.6135 *  0.0000     4          
    61  O     c     -2.6394 *     5.0757 *     5.0757    0.0000     2          
    62  O     c     -2.6394 *    -5.0757 *     5.0757    0.0000     2          
    63  O     c     -5.1772 *     5.0757 *     2.5378 *  0.0000     4          
    64  O     c     -5.1772 *    -2.5378 *     5.0757 *  0.0000     4          
    65  O     c     -7.7150 *    -0.0000      -0.0000    0.0000     1          
    66  O     c      7.5120 *     2.5378 *     0.0000 *  0.0000     4          
    67  O     c      2.4363 *     0.0000 *     7.6135 *  0.0000     4          
    68  O     c     -0.1015 *    -7.6135 *     2.5378 *  0.0000     4          
    69  O     c     -0.1015 *     2.5378 *     7.6135 *  0.0000     4          
    70  O     c     -2.6394 *    -7.6135 *     0.0000 *  0.0000     4          
    71  O     c     -7.7150 *    -2.5378 *     0.0000 *  0.0000     4          
    72  Zr    c      6.2431 *     3.8068 *    -3.8068    0.0000     2          
    73  Zr    c      3.7052 *    -3.8068 *     6.3446 *  0.0000     4          
    74  O     c      7.5120 *     2.5378 *    -2.5378    0.0000     2          
    75  O     c      7.5120 *     2.5378 *     2.5378    0.0000     2          
    76  Zr    c     -3.9083 *     3.8068 *     6.3446 *  0.0000     4          
    77  O     c      2.4363 *     7.6135 *    -2.5378 *  0.0000     4          
    78  O     c      2.4363 *     2.5378 *     7.6135 *  0.0000     4          
    79  Zr    c     -6.4461 *     3.8068 *     3.8068    0.0000     2          
    80  O     c     -2.6394 *    -2.5378 *     7.6135 *  0.0000     4          
    81  O     c     -2.6394 *     2.5378 *     7.6135 *  0.0000     4          
    82  O     c     -7.7150 *     2.5378 *    -2.5378    0.0000     2          
    83  O     c     -7.7150 *     2.5378 *     2.5378    0.0000     2          
    84  O     c      4.9742 *    -5.0757 *     5.0757    0.0000     2          
    85  O     c      4.9742 *    -5.0757 *    -5.0757    0.0000     2          
    86  O     c     -5.1772 *     5.0757 *     5.0757    0.0000     2          
    87  O     c     -5.1772 *    -5.0757 *     5.0757    0.0000     2          
    88  Zr    c      8.7809 *     1.2689 *     1.2689    0.0000     2          
    89  Zr    c      6.2431 *     6.3446 *    -1.2689 *  0.0000     4          
    90  Zr    c      1.1674 *    -6.3446 *     6.3446    0.0000     2          
    91  Zr    c      1.1674 *     1.2689 *     8.8824 *  0.0000     4          
    92  O     c      7.5120 *     5.0757 *    -0.0000 *  0.0000     4          
    93  Zr    c     -1.3704 *     8.8824 *    -1.2689 *  0.0000     4          
    94  Zr    c     -1.3704 *     6.3446 *     6.3446    0.0000     2          
    95  O     c      4.9742 *     7.6135 *    -0.0000 *  0.0000     4          
    96  Zr    c     -6.4461 *    -6.3446 *    -1.2689 *  0.0000     4          
    97  O     c     -0.1015 *     7.6135 *     5.0757 *  0.0000     4          
    98  O     c     -0.1015 *    -5.0757 *     7.6135 *  0.0000     4          
    99  Zr    c     -8.9840 *    -1.2689 *     1.2689    0.0000     2          
   100  O     c     -5.1772 *    -0.0000 *     7.6135 *  0.0000     4          
   101  O     c     -7.7150 *    -0.0000 *     5.0757 *  0.0000     4          
   102  O     c      7.5120 *    -2.5378 *    -5.0757 *  0.0000     4          
   103  O     c      7.5120 *     5.0757 *    -2.5378 *  0.0000     4          
   104  O     c      4.9742 *    -2.5378 *     7.6135 *  0.0000     4          
   105  O     c      4.9742 *     2.5378 *     7.6135 *  0.0000     4          
   106  O     c      2.4363 *    -7.6135 *     5.0757 *  0.0000     4          
   107  O     c      2.4363 *     5.0757 *     7.6135 *  0.0000     4          
   108  O     c     -2.6394 *     5.0757 *     7.6135 *  0.0000     4          
   109  O     c     -2.6394 *     5.0757 *    -7.6135 *  0.0000     4          
   110  O     c     -5.1772 *     2.5378 *     7.6135 *  0.0000     4          
   111  O     c     -5.1772 *    -7.6135 *     2.5378 *  0.0000     4          
   112  O     c     -7.7150 *    -5.0757 *    -2.5378 *  0.0000     4          
   113  O     c     -7.7150 *    -5.0757 *     2.5378 *  0.0000     4          
   114  Zr    c      8.7809 *     3.8068 *    -1.2689 *  0.0000     4          
   115  Zr    c      6.2431 *     6.3446 *     3.8068 *  0.0000     4          
   116  Zr    c      3.7052 *    -1.2689 *     8.8824 *  0.0000     4          
   117  Zr    c      3.7052 *     6.3446 *     6.3446    0.0000     2          
   118  Zr    c      1.1674 *     8.8824 *    -3.8068 *  0.0000     4          
   119  Zr    c     -1.3704 *     3.8068 *     8.8824 *  0.0000     4          
   120  Zr    c     -3.9083 *     6.3446 *    -6.3446    0.0000     2          
   121  Zr    c     -3.9083 *     1.2689 *     8.8824 *  0.0000     4          
   122  Zr    c     -6.4461 *     3.8068 *    -6.3446 *  0.0000     4          
   123  Zr    c     -8.9840 *    -1.2689 *    -3.8068 *  0.0000     4          
   124  O     c     10.0499 *     0.0000       0.0000    0.0000     1          
   125  O     c     -0.1015 *    -0.0000 *    10.1514 *  0.0000     4          
   126  O     c    -10.2529 *    -0.0000       0.0000    0.0000     1          
   127  Zr    c      8.7809 *     3.8068 *     3.8068    0.0000     2          
   128  Zr    c      3.7052 *     8.8824 *     3.8068 *  0.0000     4          
   129  O     c     10.0499 *     2.5378 *    -0.0000 *  0.0000     4          
   130  O     c      7.5120 *     5.0757 *     5.0757    0.0000     2          
   131  O     c      7.5120 *     5.0757 *    -5.0757    0.0000     2          
   132  O     c      4.9742 *     7.6135 *     5.0757 *  0.0000     4          
   133  O     c      4.9742 *    -5.0757 *     7.6135 *  0.0000     4          
   134  Zr    c     -3.9083 *    -8.8824 *     3.8068 *  0.0000     4          
   135  O     c      2.4363 *    -0.0000 *    10.1514 *  0.0000     4          
   136  O     c     -0.1015 *    -2.5378 *    10.1514 *  0.0000     4          
   137  O     c     -0.1015 *     2.5378 *    10.1514 *  0.0000     4          
   138  Zr    c     -8.9840 *    -3.8068 *     3.8068    0.0000     2          
   139  O     c     -2.6394 *    -0.0000 *    10.1514 *  0.0000     4          
   140  O     c     -5.1772 *     5.0757 *     7.6135 *  0.0000     4          
   141  O     c     -5.1772 *     5.0757 *    -7.6135 *  0.0000     4          
   142  O     c     -7.7150 *     5.0757 *     5.0757    0.0000     2          
   143  O     c     -7.7150 *    -5.0757 *     5.0757    0.0000     2          
   144  O     c    -10.2529 *    -2.5378 *    -0.0000 *  0.0000     4          
   145  O     c     10.0499 *     2.5378 *     2.5378    0.0000     2          
   146  O     c     10.0499 *     2.5378 *    -2.5378    0.0000     2          
   147  O     c      7.5120 *     7.6135 *     0.0000 *  0.0000     4          
   148  O     c      2.4363 *     2.5378 *    10.1514 *  0.0000     4          
   149  O     c      2.4363 *    -2.5378 *    10.1514 *  0.0000     4          
   150  O     c     -0.1015 *    -7.6135 *     7.6135    0.0000     2          
   151  O     c     -0.1015 *     7.6135 *     7.6135    0.0000     2          
   152  O     c     -2.6394 *   -10.1514 *     2.5378 *  0.0000     4          
   153  O     c     -2.6394 *     2.5378 *    10.1514 *  0.0000     4          
   154  O     c     -7.7150 *    -7.6135 *     0.0000 *  0.0000     4          
   155  O     c    -10.2529 *    -2.5378 *    -2.5378    0.0000     2          
   156  O     c    -10.2529 *    -2.5378 *     2.5378    0.0000     2          
   157  Zr    c      8.7809 *     6.3446 *     1.2689 *  0.0000     4          
   158  Zr    c      6.2431 *     1.2689 *     8.8824 *  0.0000     4          
   159  Zr    c      6.2431 *    -6.3446 *     6.3446    0.0000     2          
   160  Zr    c      1.1674 *     8.8824 *     6.3446 *  0.0000     4          
   161  O     c      7.5120 *     7.6135 *     2.5378 *  0.0000     4          
   162  O     c      7.5120 *     7.6135 *    -2.5378 *  0.0000     4          
   163  Zr    c     -1.3704 *    -8.8824 *     6.3446 *  0.0000     4          
   164  O     c      2.4363 *     7.6135 *     7.6135    0.0000     2          
   165  O     c      2.4363 *    -7.6135 *     7.6135    0.0000     2          
   166  Zr    c     -6.4461 *     6.3446 *     6.3446    0.0000     2          
   167  Zr    c     -6.4461 *    -8.8824 *     1.2689 *  0.0000     4          
   168  Zr    c     -8.9840 *     1.2689 *    -6.3446 *  0.0000     4          
   169  O     c     -2.6394 *     7.6135 *     7.6135    0.0000     2          
   170  O     c     -2.6394 *    -7.6135 *     7.6135    0.0000     2          
   171  O     c     -7.7150 *    -2.5378 *     7.6135 *  0.0000     4          
   172  O     c     -7.7150 *     2.5378 *     7.6135 *  0.0000     4          
   173  O     c     10.0499 *     5.0757 *     0.0000 *  0.0000     4          
   174  O     c      4.9742 *     0.0000 *    10.1514 *  0.0000     4          
   175  O     c     -0.1015 *   -10.1514 *     5.0757 *  0.0000     4          
   176  O     c     -0.1015 *     5.0757 *    10.1514 *  0.0000     4          
   177  O     c     -5.1772 *   -10.1514 *     0.0000 *  0.0000     4          
   178  O     c    -10.2529 *    -5.0757 *     0.0000 *  0.0000     4          
   179  Zr    c     11.3188 *     1.2689 *    -1.2689    0.0000     2          
   180  Zr    c      8.7809 *     6.3446 *    -3.8068 *  0.0000     4          
   181  Zr    c      6.2431 *    -3.8068 *     8.8824 *  0.0000     4          
   182  Zr    c      3.7052 *    -6.3446 *     8.8824 *  0.0000     4          
   183  O     c     10.0499 *     5.0757 *     2.5378 *  0.0000     4          
   184  O     c     10.0499 *    -2.5378 *     5.0757 *  0.0000     4          
   185  Zr    c      1.1674 *    -1.2689 *    11.4203 *  0.0000     4          
   186  Zr    c     -1.3704 *     1.2689 *    11.4203 *  0.0000     4          
   187  O     c      4.9742 *    -2.5378 *    10.1514 *  0.0000     4          
   188  O     c      4.9742 *    10.1514 *     2.5378 *  0.0000     4          
   189  Zr    c     -3.9083 *     6.3446 *     8.8824 *  0.0000     4          
   190  O     c      2.4363 *    -5.0757 *    10.1514 *  0.0000     4          
   191  O     c      2.4363 *    10.1514 *     5.0757 *  0.0000     4          
   192  Zr    c     -6.4461 *     3.8068 *     8.8824 *  0.0000     4          
   193  Zr    c     -8.9840 *    -3.8068 *    -6.3446 *  0.0000     4          
   194  O     c     -2.6394 *    -5.0757 *    10.1514 *  0.0000     4          
   195  O     c     -2.6394 *     5.0757 *    10.1514 *  0.0000     4          
   196  Zr    c    -11.5218 *    -1.2689 *    -1.2689    0.0000     2          
   197  O     c     -5.1772 *    -2.5378 *    10.1514 *  0.0000     4          
   198  O     c     -5.1772 *     2.5378 *    10.1514 *  0.0000     4          
   199  O     c    -10.2529 *    -5.0757 *     2.5378 *  0.0000     4          
   200  O     c    -10.2529 *     2.5378 *     5.0757 *  0.0000     4          
   201  O     c      7.5120 *    -5.0757 *     7.6135 *  0.0000     4          
   202  O     c      7.5120 *     7.6135 *     5.0757 *  0.0000     4          
   203  O     c      4.9742 *    -7.6135 *     7.6135    0.0000     2          
   204  O     c      4.9742 *     7.6135 *     7.6135    0.0000     2          
   205  O     c     -5.1772 *    -7.6135 *     7.6135    0.0000     2          
   206  O     c     -5.1772 *     7.6135 *     7.6135    0.0000     2          
   207  O     c     -7.7150 *    -7.6135 *    -5.0757 *  0.0000     4          
   208  O     c     -7.7150 *    -7.6135 *     5.0757 *  0.0000     4          
   209  O     s      0.0000       0.0000       0.0000    0.0000     1    Defect
   210  Zr    s      1.1674 *     1.2689 *    -1.2689    0.0000     2          
   211  Zr    s     -1.3704 *     1.2689 *     1.2689    0.0000     2          
   212  O     s     -0.1015 *     2.5378 *    -0.0000 *  0.0000     4          
   213  O     s     -2.6394 *    -0.0000      -0.0000    0.0000     1          
   214  O     s      2.4363 *     2.5378 *     0.0000 *  0.0000     4          
   215  O     s     -0.1015 *    -2.5378 *     2.5378    0.0000     2          
   216  O     s     -0.1015 *     2.5378 *     2.5378    0.0000     2          
   217  O     s     -2.6394 *     0.0000 *     2.5378 *  0.0000     4          
   218  Zr    s      3.7052 *     1.2689 *     1.2689    0.0000     2          
   219  Zr    s      1.1674 *     1.2689 *     3.8068 *  0.0000     4          
   220  Zr    s     -1.3704 *    -3.8068 *     1.2689 *  0.0000     4          
   221  Zr    s     -3.9083 *    -1.2689 *     1.2689    0.0000     2          
   222  O     s      2.4363 *     2.5378 *     2.5378    0.0000     2          
   223  O     s      2.4363 *     2.5378 *    -2.5378    0.0000     2          
   224  O     s     -2.6394 *     2.5378 *     2.5378    0.0000     2          
   225  O     s     -2.6394 *    -2.5378 *     2.5378    0.0000     2          
   226  O     s      4.9742 *     0.0000       0.0000    0.0000     1          
   227  O     s     -0.1015 *    -5.0757 *     0.0000 *  0.0000     4          
   228  O     s     -5.1772 *     0.0000       0.0000    0.0000     1          
   229  Zr    s      3.7052 *    -1.2689 *     3.8068 *  0.0000     4          
   230  Zr    s      1.1674 *    -3.8068 *     3.8068    0.0000     2          
   231  Zr    s     -1.3704 *     3.8068 *     3.8068    0.0000     2          
   232  O     s      4.9742 *     2.5378 *    -0.0000 *  0.0000     4          
   233  Zr    s     -3.9083 *     3.8068 *     1.2689 *  0.0000     4          
   234  O     s      2.4363 *     5.0757 *    -0.0000 *  0.0000     4          
   235  O     s     -0.1015 *    -2.5378 *     5.0757 *  0.0000     4          
   236  O     s     -0.1015 *     5.0757 *     2.5378 *  0.0000     4          
   237  O     s     -2.6394 *    -0.0000 *     5.0757 *  0.0000     4          
   238  O     s     -5.1772 *    -0.0000 *     2.5378 *  0.0000     4          
   239  O     s      4.9742 *    -2.5378 *     2.5378    0.0000     2          
   240  O     s      4.9742 *     2.5378 *     2.5378    0.0000     2          
   241  O     s      2.4363 *    -5.0757 *     2.5378 *  0.0000     4          
   242  O     s      2.4363 *     5.0757 *     2.5378 *  0.0000     4          
   243  O     s     -2.6394 *     2.5378 *     5.0757 *  0.0000     4          
   244  O     s     -2.6394 *    -5.0757 *     2.5378 *  0.0000     4          
   245  O     s     -5.1772 *     2.5378 *     2.5378    0.0000     2          
   246  O     s     -5.1772 *    -2.5378 *     2.5378    0.0000     2          
   247  Zr    s      6.2431 *     1.2689 *    -1.2689    0.0000     2          
   248  Zr    s      3.7052 *     3.8068 *     3.8068    0.0000     2          
   249  Zr    s      1.1674 *    -1.2689 *     6.3446 *  0.0000     4          
   250  Zr    s     -1.3704 *     1.2689 *     6.3446 *  0.0000     4          
   251  Zr    s     -3.9083 *     3.8068 *    -3.8068    0.0000     2          
   252  Zr    s     -6.4461 *     1.2689 *     1.2689    0.0000     2          
   253  O     s      4.9742 *     0.0000 *     5.0757 *  0.0000     4          
   254  O     s     -0.1015 *     5.0757 *     5.0757    0.0000     2          
   255  O     s     -0.1015 *    -5.0757 *     5.0757    0.0000     2          
   256  O     s     -5.1772 *     5.0757 *     0.0000 *  0.0000     4          
   257  Zr    s      6.2431 *    -3.8068 *    -1.2689 *  0.0000     4          
   258  Zr    s      3.7052 *     1.2689 *     6.3446 *  0.0000     4          
   259  Zr    s      1.1674 *     3.8068 *     6.3446 *  0.0000     4          
   260  O     s      7.5120 *    -0.0000      -0.0000    0.0000     1          
   261  Zr    s     -1.3704 *     3.8068 *    -6.3446 *  0.0000     4          
   262  O     s      4.9742 *     5.0757 *     2.5378 *  0.0000     4          
   263  O     s      4.9742 *    -2.5378 *     5.0757 *  0.0000     4          
   264  Zr    s     -3.9083 *     1.2689 *    -6.3446 *  0.0000     4          
   265  O     s      2.4363 *     5.0757 *     5.0757    0.0000     2          
   266  O     s      2.4363 *    -5.0757 *     5.0757    0.0000     2          
   267  Zr    s     -6.4461 *     1.2689 *    -3.8068 *  0.0000     4          
   268  O     s     -0.1015 *    -0.0000 *     7.6135 *  0.0000     4          
   269  O     s     -2.6394 *     5.0757 *     5.0757    0.0000     2          
   270  O     s     -2.6394 *    -5.0757 *     5.0757    0.0000     2          
   271  O     s     -5.1772 *     5.0757 *     2.5378 *  0.0000     4          
   272  O     s     -5.1772 *    -2.5378 *     5.0757 *  0.0000     4          
   273  O     s     -7.7150 *    -0.0000      -0.0000    0.0000     1          
   274  O     s      7.5120 *     2.5378 *     0.0000 *  0.0000     4          
   275  O     s      2.4363 *     0.0000 *     7.6135 *  0.0000     4          
   276  O     s     -0.1015 *    -7.6135 *     2.5378 *  0.0000     4          
   277  O     s     -0.1015 *     2.5378 *     7.6135 *  0.0000     4          
   278  O     s     -2.6394 *    -7.6135 *     0.0000 *  0.0000     4          
   279  O     s     -7.7150 *    -2.5378 *     0.0000 *  0.0000     4          
   280  Zr    s      6.2431 *     3.8068 *    -3.8068    0.0000     2          
   281  Zr    s      3.7052 *    -3.8068 *     6.3446 *  0.0000     4          
   282  O     s      7.5120 *     2.5378 *    -2.5378    0.0000     2          
   283  O     s      7.5120 *     2.5378 *     2.5378    0.0000     2          
   284  Zr    s     -3.9083 *     3.8068 *     6.3446 *  0.0000     4          
   285  O     s      2.4363 *     7.6135 *    -2.5378 *  0.0000     4          
   286  O     s      2.4363 *     2.5378 *     7.6135 *  0.0000     4          
   287  Zr    s     -6.4461 *     3.8068 *     3.8068    0.0000     2          
   288  O     s     -2.6394 *    -2.5378 *     7.6135 *  0.0000     4          
   289  O     s     -2.6394 *     2.5378 *     7.6135 *  0.0000     4          
   290  O     s     -7.7150 *     2.5378 *    -2.5378    0.0000     2          
   291  O     s     -7.7150 *     2.5378 *     2.5378    0.0000     2          
   292  O     s      4.9742 *    -5.0757 *     5.0757    0.0000     2          
   293  O     s      4.9742 *    -5.0757 *    -5.0757    0.0000     2          
   294  O     s     -5.1772 *     5.0757 *     5.0757    0.0000     2          
   295  O     s     -5.1772 *    -5.0757 *     5.0757    0.0000     2          
   296  Zr    s      8.7809 *     1.2689 *     1.2689    0.0000     2          
   297  Zr    s      6.2431 *     6.3446 *    -1.2689 *  0.0000     4          
   298  Zr    s      1.1674 *    -6.3446 *     6.3446    0.0000     2          
   299  Zr    s      1.1674 *     1.2689 *     8.8824 *  0.0000     4          
   300  O     s      7.5120 *     5.0757 *    -0.0000 *  0.0000     4          
   301  Zr    s     -1.3704 *     8.8824 *    -1.2689 *  0.0000     4          
   302  Zr    s     -1.3704 *     6.3446 *     6.3446    0.0000     2          
   303  O     s      4.9742 *     7.6135 *    -0.0000 *  0.0000     4          
   304  Zr    s     -6.4461 *    -6.3446 *    -1.2689 *  0.0000     4          
   305  O     s     -0.1015 *     7.6135 *     5.0757 *  0.0000     4          
   306  O     s     -0.1015 *    -5.0757 *     7.6135 *  0.0000     4          
   307  Zr    s     -8.9840 *    -1.2689 *     1.2689    0.0000     2          
   308  O     s     -5.1772 *    -0.0000 *     7.6135 *  0.0000     4          
   309  O     s     -7.7150 *    -0.0000 *     5.0757 *  0.0000     4          
   310  O     s      7.5120 *    -2.5378 *    -5.0757 *  0.0000     4          
   311  O     s      7.5120 *     5.0757 *    -2.5378 *  0.0000     4          
   312  O     s      4.9742 *    -2.5378 *     7.6135 *  0.0000     4          
   313  O     s      4.9742 *     2.5378 *     7.6135 *  0.0000     4          
   314  O     s      2.4363 *    -7.6135 *     5.0757 *  0.0000     4          
   315  O     s      2.4363 *     5.0757 *     7.6135 *  0.0000     4          
   316  O     s     -2.6394 *     5.0757 *     7.6135 *  0.0000     4          
   317  O     s     -2.6394 *     5.0757 *    -7.6135 *  0.0000     4          
   318  O     s     -5.1772 *     2.5378 *     7.6135 *  0.0000     4          
   319  O     s     -5.1772 *    -7.6135 *     2.5378 *  0.0000     4          
   320  O     s     -7.7150 *    -5.0757 *    -2.5378 *  0.0000     4          
   321  O     s     -7.7150 *    -5.0757 *     2.5378 *  0.0000     4          
   322  Zr    s      8.7809 *     3.8068 *    -1.2689 *  0.0000     4          
   323  Zr    s      6.2431 *     6.3446 *     3.8068 *  0.0000     4          
   324  Zr    s      3.7052 *    -1.2689 *     8.8824 *  0.0000     4          
   325  Zr    s      3.7052 *     6.3446 *     6.3446    0.0000     2          
   326  Zr    s      1.1674 *     8.8824 *    -3.8068 *  0.0000     4          
   327  Zr    s     -1.3704 *     3.8068 *     8.8824 *  0.0000     4          
   328  Zr    s     -3.9083 *     6.3446 *    -6.3446    0.0000     2          
   329  Zr    s     -3.9083 *     1.2689 *     8.8824 *  0.0000     4          
   330  Zr    s     -6.4461 *     3.8068 *    -6.3446 *  0.0000     4          
   331  Zr    s     -8.9840 *    -1.2689 *    -3.8068 *  0.0000     4          
   332  O     s     10.0499 *     0.0000       0.0000    0.0000     1          
   333  O     s     -0.1015 *    -0.0000 *    10.1514 *  0.0000     4          
   334  O     s    -10.2529 *    -0.0000       0.0000    0.0000     1          
   335  Zr    s      8.7809 *     3.8068 *     3.8068    0.0000     2          
   336  Zr    s      3.7052 *     8.8824 *     3.8068 *  0.0000     4          
   337  O     s     10.0499 *     2.5378 *    -0.0000 *  0.0000     4          
   338  O     s      7.5120 *     5.0757 *     5.0757    0.0000     2          
   339  O     s      7.5120 *     5.0757 *    -5.0757    0.0000     2          
   340  O     s      4.9742 *     7.6135 *     5.0757 *  0.0000     4          
   341  O     s      4.9742 *    -5.0757 *     7.6135 *  0.0000     4          
   342  Zr    s     -3.9083 *    -8.8824 *     3.8068 *  0.0000     4          
   343  O     s      2.4363 *    -0.0000 *    10.1514 *  0.0000     4          
   344  O     s     -0.1015 *    -2.5378 *    10.1514 *  0.0000     4          
   345  O     s     -0.1015 *     2.5378 *    10.1514 *  0.0000     4          
   346  Zr    s     -8.9840 *    -3.8068 *     3.8068    0.0000     2          
   347  O     s     -2.6394 *    -0.0000 *    10.1514 *  0.0000     4          
   348  O     s     -5.1772 *     5.0757 *     7.6135 *  0.0000     4          
   349  O     s     -5.1772 *     5.0757 *    -7.6135 *  0.0000     4          
   350  O     s     -7.7150 *     5.0757 *     5.0757    0.0000     2          
   351  O     s     -7.7150 *    -5.0757 *     5.0757    0.0000     2          
   352  O     s    -10.2529 *    -2.5378 *    -0.0000 *  0.0000     4          
   353  O     s     10.0499 *     2.5378 *     2.5378    0.0000     2          
   354  O     s     10.0499 *     2.5378 *    -2.5378    0.0000     2          
   355  O     s      7.5120 *     7.6135 *     0.0000 *  0.0000     4          
   356  O     s      2.4363 *     2.5378 *    10.1514 *  0.0000     4          
   357  O     s      2.4363 *    -2.5378 *    10.1514 *  0.0000     4          
   358  O     s     -0.1015 *    -7.6135 *     7.6135    0.0000     2          
   359  O     s     -0.1015 *     7.6135 *     7.6135    0.0000     2          
   360  O     s     -2.6394 *   -10.1514 *     2.5378 *  0.0000     4          
   361  O     s     -2.6394 *     2.5378 *    10.1514 *  0.0000     4          
   362  O     s     -7.7150 *    -7.6135 *     0.0000 *  0.0000     4          
   363  O     s    -10.2529 *    -2.5378 *    -2.5378    0.0000     2          
   364  O     s    -10.2529 *    -2.5378 *     2.5378    0.0000     2          
   365  Zr    s      8.7809 *     6.3446 *     1.2689 *  0.0000     4          
   366  Zr    s      6.2431 *     1.2689 *     8.8824 *  0.0000     4          
   367  Zr    s      6.2431 *    -6.3446 *     6.3446    0.0000     2          
   368  Zr    s      1.1674 *     8.8824 *     6.3446 *  0.0000     4          
   369  O     s      7.5120 *     7.6135 *     2.5378 *  0.0000     4          
   370  O     s      7.5120 *     7.6135 *    -2.5378 *  0.0000     4          
   371  Zr    s     -1.3704 *    -8.8824 *     6.3446 *  0.0000     4          
   372  O     s      2.4363 *     7.6135 *     7.6135    0.0000     2          
   373  O     s      2.4363 *    -7.6135 *     7.6135    0.0000     2          
   374  Zr    s     -6.4461 *     6.3446 *     6.3446    0.0000     2          
   375  Zr    s     -6.4461 *    -8.8824 *     1.2689 *  0.0000     4          
   376  Zr    s     -8.9840 *     1.2689 *    -6.3446 *  0.0000     4          
   377  O     s     -2.6394 *     7.6135 *     7.6135    0.0000     2          
   378  O     s     -2.6394 *    -7.6135 *     7.6135    0.0000     2          
   379  O     s     -7.7150 *    -2.5378 *     7.6135 *  0.0000     4          
   380  O     s     -7.7150 *     2.5378 *     7.6135 *  0.0000     4          
   381  O     s     10.0499 *     5.0757 *     0.0000 *  0.0000     4          
   382  O     s      4.9742 *     0.0000 *    10.1514 *  0.0000     4          
   383  O     s     -0.1015 *   -10.1514 *     5.0757 *  0.0000     4          
   384  O     s     -0.1015 *     5.0757 *    10.1514 *  0.0000     4          
   385  O     s     -5.1772 *   -10.1514 *     0.0000 *  0.0000     4          
   386  O     s    -10.2529 *    -5.0757 *     0.0000 *  0.0000     4          
   387  Zr    s     11.3188 *     1.2689 *    -1.2689    0.0000     2          
   388  Zr    s      8.7809 *     6.3446 *    -3.8068 *  0.0000     4          
   389  Zr    s      6.2431 *    -3.8068 *     8.8824 *  0.0000     4          
   390  Zr    s      3.7052 *    -6.3446 *     8.8824 *  0.0000     4          
   391  O     s     10.0499 *     5.0757 *     2.5378 *  0.0000     4          
   392  O     s     10.0499 *    -2.5378 *     5.0757 *  0.0000     4          
   393  Zr    s      1.1674 *    -1.2689 *    11.4203 *  0.0000     4          
   394  Zr    s     -1.3704 *     1.2689 *    11.4203 *  0.0000     4          
   395  O     s      4.9742 *    -2.5378 *    10.1514 *  0.0000     4          
   396  O     s      4.9742 *    10.1514 *     2.5378 *  0.0000     4          
   397  Zr    s     -3.9083 *     6.3446 *     8.8824 *  0.0000     4          
   398  O     s      2.4363 *    -5.0757 *    10.1514 *  0.0000     4          
   399  O     s      2.4363 *    10.1514 *     5.0757 *  0.0000     4          
   400  Zr    s     -6.4461 *     3.8068 *     8.8824 *  0.0000     4          
   401  Zr    s     -8.9840 *    -3.8068 *    -6.3446 *  0.0000     4          
   402  O     s     -2.6394 *    -5.0757 *    10.1514 *  0.0000     4          
   403  O     s     -2.6394 *     5.0757 *    10.1514 *  0.0000     4          
   404  Zr    s    -11.5218 *    -1.2689 *    -1.2689    0.0000     2          
   405  O     s     -5.1772 *    -2.5378 *    10.1514 *  0.0000     4          
   406  O     s     -5.1772 *     2.5378 *    10.1514 *  0.0000     4          
   407  O     s    -10.2529 *    -5.0757 *     2.5378 *  0.0000     4          
   408  O     s    -10.2529 *     2.5378 *     5.0757 *  0.0000     4          
   409  O     s      7.5120 *    -5.0757 *     7.6135 *  0.0000     4          
   410  O     s      7.5120 *     7.6135 *     5.0757 *  0.0000     4          
   411  O     s      4.9742 *    -7.6135 *     7.6135    0.0000     2          
   412  O     s      4.9742 *     7.6135 *     7.6135    0.0000     2          
   413  O     s     -5.1772 *    -7.6135 *     7.6135    0.0000     2          
   414  O     s     -5.1772 *     7.6135 *     7.6135    0.0000     2          
   415  O     s     -7.7150 *    -7.6135 *    -5.0757 *  0.0000     4          
   416  O     s     -7.7150 *    -7.6135 *     5.0757 *  0.0000     4          
--------------------------------------------------------------------------------


  Constraints on symmetry reduced coordinates :

--------------------------------------------------------------------------------
  Constraint no.      Unconstrained     Constrained    Coefficient    
                         Variable         Variable
--------------------------------------------------------------------------------
           1                 2 y             2 z        -1.00000
           2                 3 y             3 z         1.00000
           3                 7 y             7 z        -1.00000
           4                 8 y             8 z         1.00000
           5                10 y            10 z         1.00000
           6                13 y            13 z        -1.00000
           7                14 y            14 z         1.00000
           8                15 y            15 z        -1.00000
           9                16 y            16 z         1.00000
          10                17 y            17 z        -1.00000
          11                22 y            22 z        -1.00000
          12                23 y            23 z         1.00000
          13                31 y            31 z        -1.00000
          14                32 y            32 z         1.00000
          15                37 y            37 z         1.00000
          16                38 y            38 z        -1.00000
          17                39 y            39 z        -1.00000
          18                40 y            40 z         1.00000
          19                43 y            43 z        -1.00000
          20                44 y            44 z         1.00000
          21                46 y            46 z         1.00000
          22                47 y            47 z        -1.00000
          23                57 y            57 z         1.00000
          24                58 y            58 z        -1.00000
          25                61 y            61 z         1.00000
          26                62 y            62 z        -1.00000
          27                72 y            72 z        -1.00000
          28                74 y            74 z        -1.00000
          29                75 y            75 z         1.00000
          30                79 y            79 z         1.00000
          31                82 y            82 z        -1.00000
          32                83 y            83 z         1.00000
          33                84 y            84 z        -1.00000
          34                85 y            85 z         1.00000
          35                86 y            86 z         1.00000
          36                87 y            87 z        -1.00000
          37                88 y            88 z         1.00000
          38                90 y            90 z        -1.00000
          39                94 y            94 z         1.00000
          40                99 y            99 z        -1.00000
          41               117 y           117 z         1.00000
          42               120 y           120 z        -1.00000
          43               127 y           127 z         1.00000
          44               130 y           130 z         1.00000
          45               131 y           131 z        -1.00000
          46               138 y           138 z        -1.00000
          47               142 y           142 z         1.00000
          48               143 y           143 z        -1.00000
          49               145 y           145 z         1.00000
          50               146 y           146 z        -1.00000
          51               150 y           150 z        -1.00000
          52               151 y           151 z         1.00000
          53               155 y           155 z         1.00000
          54               156 y           156 z        -1.00000
          55               159 y           159 z        -1.00000
          56               164 y           164 z         1.00000
          57               165 y           165 z        -1.00000
          58               166 y           166 z         1.00000
          59               169 y           169 z         1.00000
          60               170 y           170 z        -1.00000
          61               179 y           179 z        -1.00000
          62               196 y           196 z         1.00000
          63               203 y           203 z        -1.00000
          64               204 y           204 z         1.00000
          65               205 y           205 z        -1.00000
          66               206 y           206 z         1.00000
          67               210 y           210 z        -1.00000
          68               211 y           211 z         1.00000
          69               215 y           215 z        -1.00000
          70               216 y           216 z         1.00000
          71               218 y           218 z         1.00000
          72               221 y           221 z        -1.00000
          73               222 y           222 z         1.00000
          74               223 y           223 z        -1.00000
          75               224 y           224 z         1.00000
          76               225 y           225 z        -1.00000
          77               230 y           230 z        -1.00000
          78               231 y           231 z         1.00000
          79               239 y           239 z        -1.00000
          80               240 y           240 z         1.00000
          81               245 y           245 z         1.00000
          82               246 y           246 z        -1.00000
          83               247 y           247 z        -1.00000
          84               248 y           248 z         1.00000
          85               251 y           251 z        -1.00000
          86               252 y           252 z         1.00000
          87               254 y           254 z         1.00000
          88               255 y           255 z        -1.00000
          89               265 y           265 z         1.00000
          90               266 y           266 z        -1.00000
          91               269 y           269 z         1.00000
          92               270 y           270 z        -1.00000
          93               280 y           280 z        -1.00000
          94               282 y           282 z        -1.00000
          95               283 y           283 z         1.00000
          96               287 y           287 z         1.00000
          97               290 y           290 z        -1.00000
          98               291 y           291 z         1.00000
          99               292 y           292 z        -1.00000
         100               293 y           293 z         1.00000
         101               294 y           294 z         1.00000
         102               295 y           295 z        -1.00000
         103               296 y           296 z         1.00000
         104               298 y           298 z        -1.00000
         105               302 y           302 z         1.00000
         106               307 y           307 z        -1.00000
         107               325 y           325 z         1.00000
         108               328 y           328 z        -1.00000
         109               335 y           335 z         1.00000
         110               338 y           338 z         1.00000
         111               339 y           339 z        -1.00000
         112               346 y           346 z        -1.00000
         113               350 y           350 z         1.00000
         114               351 y           351 z        -1.00000
         115               353 y           353 z         1.00000
         116               354 y           354 z        -1.00000
         117               358 y           358 z        -1.00000
         118               359 y           359 z         1.00000
         119               363 y           363 z         1.00000
         120               364 y           364 z        -1.00000
         121               367 y           367 z        -1.00000
         122               372 y           372 z         1.00000
         123               373 y           373 z        -1.00000
         124               374 y           374 z         1.00000
         125               377 y           377 z         1.00000
         126               378 y           378 z        -1.00000
         127               387 y           387 z        -1.00000
         128               404 y           404 z         1.00000
         129               411 y           411 z        -1.00000
         130               412 y           412 z         1.00000
         131               413 y           413 z        -1.00000
         132               414 y           414 z         1.00000
--------------------------------------------------------------------------------


  Components of defect energy : 

--------------------------------------------------------------------------------
  Region 1 - region 1                   =   -107.12435185 eV
  Region 1 - region 2a (unrelaxed)      =    141.77822151 eV
  Region 1 - 2a (relaxed - correction)  =     -2.40968285 eV
  Region 1 (Total)                      =     32.24418682 eV
  Region 2a                             =      1.20485770 eV
  Region 2b                             =     -1.16186036 eV
--------------------------------------------------------------------------------
  Total defect energy                   =     32.28718416 eV
--------------------------------------------------------------------------------

  Largest displacement in region 2 =   0.0066 Angstroms


  Number of variables =     1082

  Maximum number of calculations  =        1000
  Maximum Hessian update interval =          10
  Maximum step size               =   1.0000000
  Maximum parameter tolerance     =   0.0000100
  Maximum function  tolerance     =   0.0000100
  Maximum gradient  tolerance     =   0.0010000

  Symmetry adapted optimisation

  Symmetry to be used for second derivatives

  Newton-Raphson optimiser to be used

  BFGS hessian update to be used

  Lower half triangular hessian to be used

  Start of defect optimisation :

  Cycle:      0 Defect Energy:  32.287184  Gnorm:     0.087997  CPU:    4.848
  ** Hessian calculated **
  Cycle:      1 Defect Energy:  22.910553  Gnorm:     0.035476  CPU:   14.978
  Cycle:      2 Defect Energy:  17.606566  Gnorm:     0.019230  CPU:   23.751
  Cycle:      3 Defect Energy:  16.863495  Gnorm:     0.014927  CPU:   29.828
  Cycle:      4 Defect Energy:  16.127938  Gnorm:     0.008464  CPU:   37.194
  Cycle:      5 Defect Energy:  15.658203  Gnorm:     0.008112  CPU:   44.558
  Cycle:      6 Defect Energy:  15.512211  Gnorm:     0.006256  CPU:   50.486
  Cycle:      7 Defect Energy:  15.364788  Gnorm:     0.004507  CPU:   58.195
  Cycle:      8 Defect Energy:  15.239018  Gnorm:     0.003835  CPU:   66.479
  Cycle:      9 Defect Energy:  15.145423  Gnorm:     0.004089  CPU:   75.364
  Cycle:     10 Defect Energy:  15.060048  Gnorm:     0.004158  CPU:   83.567
  ** Hessian calculated **
  Cycle:     11 Defect Energy:  14.862124  Gnorm:     0.002479  CPU:   98.236
  Cycle:     12 Defect Energy:  14.818823  Gnorm:     0.001892  CPU:   99.785
  Cycle:     13 Defect Energy:  14.790200  Gnorm:     0.001326  CPU:  101.340
  Cycle:     14 Defect Energy:  14.776612  Gnorm:     0.000932  CPU:  102.895
  Cycle:     15 Defect Energy:  14.770102  Gnorm:     0.000653  CPU:  104.452
  Cycle:     16 Defect Energy:  14.767027  Gnorm:     0.000458  CPU:  106.004
  Cycle:     17 Defect Energy:  14.765590  Gnorm:     0.000321  CPU:  107.570
  Cycle:     18 Defect Energy:  14.764932  Gnorm:     0.000225  CPU:  109.123
  Cycle:     19 Defect Energy:  14.764642  Gnorm:     0.000157  CPU:  110.673
  Cycle:     20 Defect Energy:  14.764521  Gnorm:     0.000110  CPU:  112.225
  ** Hessian calculated **
  Cycle:     21 Defect Energy:  14.764477  Gnorm:     0.000077  CPU:  119.634
  Cycle:     22 Defect Energy:  14.764467  Gnorm:     0.000054  CPU:  121.189


  **** Optimisation achieved ****


  Final defect energy  =       14.76446865
  Final defect Gnorm   =        0.00003784

  Components of defect energy : 

--------------------------------------------------------------------------------
  Region 1 - region 1                   =   -108.55107172 eV
  Region 1 - region 2a (unrelaxed)      =    125.51054237 eV
  Region 1 - 2a (relaxed - correction)  =     -2.08051895 eV
  Region 1 (Total)                      =     14.87895169 eV
  Region 2a                             =      1.04024068 eV
  Region 2b                             =     -1.15472372 eV
--------------------------------------------------------------------------------
  Total defect energy                   =     14.76446865 eV
--------------------------------------------------------------------------------

  Largest displacement in region 2 =   0.0066 Angstroms

  Final coordinates of region 1 :

--------------------------------------------------------------------------------
   No.  Atomic        x           y           z          Radius      Charge
        Label       (Angs)      (Angs)      (Angs)       (Angs)       (e) 
--------------------------------------------------------------------------------
     1  O     c     1.370435    1.268921    1.268921    0.000000    0.077000
     2  Zr    c     2.478914    2.607538   -0.069696    0.000000    2.650000
     3  Zr    c     2.478914   -0.069696    2.607538    0.000000    2.650000
     4  Zr    c    -0.028837    2.548380    2.548380    0.000000    2.650000
     5  Zr    c    -0.028837   -0.010538   -0.010538    0.000000    2.650000
     6  O     c     1.256044    3.872660    1.230649    0.000000    0.077000
     7  O     c     1.256044    1.230649    3.872660    0.000000    0.077000
     8  O     c     1.256044    1.307192   -1.334818    0.000000    0.077000
     9  O     c     1.256044   -1.334818    1.307192    0.000000    0.077000
    10  O     c    -1.186873    1.268921    1.268921    0.000000    0.077000
    11  O     c     3.783673    3.322449    1.274709    0.000000    0.077000
    12  O     c     3.783673    1.274709    3.322449    0.000000    0.077000
    13  O     c     3.783673    1.263133   -0.784607    0.000000    0.077000
    14  O     c     3.783673   -0.784607    1.263133    0.000000    0.077000
    15  O     c     1.245993   -1.286859    3.824701    0.000000    0.077000
    16  O     c     1.245993    3.824701   -1.286859    0.000000    0.077000
    17  O     c     1.287150    3.772326    3.772326    0.000000    0.077000
    18  O     c     1.287150   -1.234485   -1.234485    0.000000    0.077000
    19  O     c    -1.276099    1.277813    3.794701    0.000000    0.077000
    20  O     c    -1.276099    3.794701    1.277813    0.000000    0.077000
    21  O     c    -1.276099   -1.256859    1.260029    0.000000    0.077000
    22  O     c    -1.276099    1.260029   -1.256859    0.000000    0.077000
    23  Zr    c     5.108463    2.585648    2.585648    0.000000    2.650000
    24  Zr    c     5.108463   -0.047806   -0.047806    0.000000    2.650000
    25  Zr    c     2.495728    2.560226    5.095802    0.000000    2.650000
    26  Zr    c     2.495728   -2.557961   -0.022385    0.000000    2.650000
    27  Zr    c     2.495728    5.095802    2.560226    0.000000    2.650000
    28  Zr    c     2.495728   -0.022385   -2.557961    0.000000    2.650000
    29  Zr    c    -0.029941   -2.558811    2.546387    0.000000    2.650000
    30  Zr    c    -0.029941    2.546387   -2.558811    0.000000    2.650000
    31  Zr    c    -0.029941   -0.008545    5.096653    0.000000    2.650000
    32  Zr    c    -0.029941    5.096653   -0.008545    0.000000    2.650000
    33  Zr    c    -2.546940   -0.005374    2.543216    0.000000    2.650000
    34  Zr    c    -2.546940    2.543216   -0.005374    0.000000    2.650000
    35  O     c     3.846337    3.845455    3.845455    0.000000    0.077000
    36  O     c     3.846337   -1.307613   -1.307613    0.000000    0.077000
    37  O     c     3.763728    3.836878   -1.299036    0.000000    0.077000
    38  O     c     3.763728   -1.299036    3.836878    0.000000    0.077000
    39  O     c    -1.246809    3.807418    3.807418    0.000000    0.077000
    40  O     c    -1.246809   -1.269577   -1.269577    0.000000    0.077000
    41  O     c    -1.281336   -1.265364    3.803206    0.000000    0.077000
    42  O     c    -1.281336    3.803206   -1.265364    0.000000    0.077000
    43  O     c     6.064231    1.268921    1.268921    0.000000    0.077000
    44  O     c     1.287553   -3.867425    1.246054    0.000000    0.077000
    45  O     c     1.287553    1.246054   -3.867425    0.000000    0.077000
    46  O     c     1.287553    1.291788    6.405267    0.000000    0.077000
    47  O     c     1.287553    6.405267    1.291788    0.000000    0.077000
    48  O     c    -3.756416    1.268921    1.268921    0.000000    0.077000
    49  Zr    c     5.109338   -0.030914    5.106007    0.000000    2.650000
    50  Zr    c     5.109338   -2.568165    2.568756    0.000000    2.650000
    51  Zr    c     5.109338    5.106007   -0.030914    0.000000    2.650000
    52  Zr    c     5.109338    2.568756   -2.568165    0.000000    2.650000
    53  Zr    c     2.522062   -2.562108    5.099949    0.000000    2.650000
    54  Zr    c     2.522062    5.099949   -2.562108    0.000000    2.650000
    55  Zr    c    -0.024448    5.090239    5.090239    0.000000    2.650000
    56  Zr    c    -0.024448   -2.552398   -2.552398    0.000000    2.650000
    57  O     c     6.352926    3.861909    1.290268    0.000000    0.077000
    58  O     c     6.352926    1.290268    3.861909    0.000000    0.077000
    59  O     c     6.352926    1.247574   -1.324068    0.000000    0.077000
    60  O     c     6.352926   -1.324068    1.247574    0.000000    0.077000
    61  Zr    c    -2.551549    5.081764    2.540037    0.000000    2.650000
    62  Zr    c    -2.551549   -0.002195   -2.543922    0.000000    2.650000
    63  Zr    c    -2.551549    2.540037    5.081764    0.000000    2.650000
    64  Zr    c    -2.551549   -2.543922   -0.002195    0.000000    2.650000
    65  O     c     3.808478    6.025148    1.267520    0.000000    0.077000
    66  O     c     3.808478    1.267520    6.025148    0.000000    0.077000
    67  O     c     3.808478    1.270322   -3.487306    0.000000    0.077000
    68  O     c     3.808478   -3.487306    1.270322    0.000000    0.077000
    69  O     c     1.283014   -1.260563    6.352136    0.000000    0.077000
    70  O     c     1.283014    6.352136   -1.260563    0.000000    0.077000
    71  O     c     1.283014   -3.814295    3.798405    0.000000    0.077000
    72  O     c     1.283014    3.798405   -3.814295    0.000000    0.077000
    73  O     c     1.261309    6.300050    3.811900    0.000000    0.077000
    74  O     c     1.261309    3.811900    6.300050    0.000000    0.077000
    75  O     c     1.261309   -1.274058   -3.762209    0.000000    0.077000
    76  O     c     1.261309   -3.762209   -1.274058    0.000000    0.077000
    77  O     c    -1.255228    1.261565    6.334200    0.000000    0.077000
    78  O     c    -1.255228    6.334200    1.261565    0.000000    0.077000
    79  O     c    -1.255228   -3.796358    1.276277    0.000000    0.077000
    80  O     c    -1.255228    1.276277   -3.796358    0.000000    0.077000
    81  O     c    -3.813544    1.266595    3.808306    0.000000    0.077000
    82  O     c    -3.813544    3.808306    1.266595    0.000000    0.077000
    83  O     c    -3.813544   -1.270464    1.271247    0.000000    0.077000
    84  O     c    -3.813544    1.271247   -1.270464    0.000000    0.077000
    85  O     c     6.328045   -1.248802    3.786644    0.000000    0.077000
[...]
    336 y         10.151367     10.155687     0.004320    Cartesian    0.04
    336 z          5.075684      5.074723    -0.000960    Cartesian   -0.02
    337 x         11.420288     11.425504     0.005216    Cartesian    0.05
    337 y          3.806763      3.806208    -0.000555    Cartesian   -0.01
    337 z          1.268921      1.270786     0.001865    Cartesian    0.15
    338 x          8.882446      8.887670     0.005223    Cartesian    0.06
    338 y          6.344605      6.343153    -0.001452    Cartesian   -0.02
    338 z          6.344605      6.343153    -0.001452    Cartesian   -0.02
    339 x          8.882446      8.879440    -0.003007    Cartesian   -0.03
    339 y          6.344605      6.339452    -0.005153    Cartesian   -0.08
    339 z         -3.806763     -3.801610     0.005153    Cartesian   -0.14
    340 x          6.344605      6.344867     0.000263    Cartesian    0.00
    340 y          8.882446      8.878589    -0.003858    Cartesian   -0.04
    340 z          6.344605      6.341223    -0.003382    Cartesian   -0.05
    341 x          6.344605      6.346990     0.002386    Cartesian    0.04
    341 y         -3.806763     -3.803044     0.003719    Cartesian   -0.10
    341 z          8.882446      8.887650     0.005204    Cartesian    0.06
    342 x         -2.537842     -2.541756    -0.003914    Cartesian    0.15
    342 y         -7.613525     -7.617566    -0.004041    Cartesian    0.05
    342 z          5.075684      5.076308     0.000624    Cartesian    0.01
    343 x          3.806763      3.811260     0.004497    Cartesian    0.12
    343 y          1.268921      1.272661     0.003740    Cartesian    0.29
    343 z         11.420288     11.341187    -0.079101    Cartesian   -0.69
    344 x          1.268921      1.274467     0.005546    Cartesian    0.44
    344 y         -1.268921     -1.266666     0.002255    Cartesian   -0.18
    344 z         11.420288     11.422233     0.001945    Cartesian    0.02
    345 x          1.268921      1.274783     0.005862    Cartesian    0.46
    345 y          3.806763      3.805093    -0.001670    Cartesian   -0.04
    345 z         11.420288     11.398474    -0.021814    Cartesian   -0.19
    346 x         -7.613525     -7.616418    -0.002893    Cartesian    0.04
    346 y         -2.537842     -2.538673    -0.000831    Cartesian    0.03
    346 z          5.075684      5.076515     0.000831    Cartesian    0.02
    347 x         -1.268921     -1.266356     0.002565    Cartesian   -0.20
    347 y          1.268921      1.267508    -0.001413    Cartesian   -0.11
    347 z         11.420288     11.416132    -0.004156    Cartesian   -0.04
    348 x         -3.806763     -3.805893     0.000870    Cartesian   -0.02
    348 y          6.344605      6.342818    -0.001787    Cartesian   -0.03
    348 z          8.882446      8.883207     0.000761    Cartesian    0.01
    349 x         -3.806763     -3.799776     0.006986    Cartesian   -0.18
    349 y          6.344605      6.342113    -0.002492    Cartesian   -0.04
    349 z         -6.344605     -6.345651    -0.001046    Cartesian    0.02
    350 x         -6.344605     -6.342499     0.002105    Cartesian   -0.03
    350 y          6.344605      6.344239    -0.000365    Cartesian   -0.01
    350 z          6.344605      6.344239    -0.000365    Cartesian   -0.01
    351 x         -6.344605     -6.345280    -0.000675    Cartesian    0.01
    351 y         -3.806763     -3.804086     0.002677    Cartesian   -0.07
    351 z          6.344605      6.341927    -0.002677    Cartesian   -0.04
    352 x         -8.882446     -8.883801    -0.001354    Cartesian    0.02
    352 y         -1.268921     -1.269410    -0.000489    Cartesian    0.04
    352 z          1.268921      1.269910     0.000989    Cartesian    0.08
    353 x         11.420288     11.416417    -0.003872    Cartesian   -0.03
    353 y          3.806763      3.802989    -0.003773    Cartesian   -0.10
    353 z          3.806763      3.802989    -0.003773    Cartesian   -0.10
    354 x         11.420288     11.416389    -0.003900    Cartesian   -0.03
    354 y          3.806763      3.804333    -0.002429    Cartesian   -0.06
    354 z         -1.268921     -1.266492     0.002429    Cartesian   -0.19
    355 x          8.882446      8.884018     0.001571    Cartesian    0.02
    355 y          8.882446      8.873063    -0.009383    Cartesian   -0.11
    355 z          1.268921      1.265444    -0.003477    Cartesian   -0.27
    356 x          3.806763      3.804258    -0.002504    Cartesian   -0.07
    356 y          3.806763      3.802924    -0.003839    Cartesian   -0.10
    356 z         11.420288     11.436999     0.016711    Cartesian    0.15
    357 x          3.806763      3.811746     0.004984    Cartesian    0.13
    357 y         -1.268921     -1.264984     0.003937    Cartesian   -0.31
    357 z         11.420288     11.435684     0.015396    Cartesian    0.13
    358 x          1.268921      1.275394     0.006473    Cartesian    0.51
    358 y         -6.344605     -6.342277     0.002327    Cartesian   -0.04
    358 z          8.882446      8.880119    -0.002327    Cartesian   -0.03
    359 x          1.268921      1.270897     0.001976    Cartesian    0.16
    359 y          8.882446      8.880388    -0.002059    Cartesian   -0.02
    359 z          8.882446      8.880388    -0.002059    Cartesian   -0.02
    360 x         -1.268921     -1.263311     0.005610    Cartesian   -0.44
    360 y         -8.882446     -8.881850     0.000596    Cartesian   -0.01
    360 z          3.806763      3.805139    -0.001623    Cartesian   -0.04
    361 x         -1.268921     -1.267603     0.001318    Cartesian   -0.10
    361 y          3.806763      3.809501     0.002739    Cartesian    0.07
    361 z         11.420288     11.422120     0.001832    Cartesian    0.02
    362 x         -6.344605     -6.342274     0.002331    Cartesian   -0.04
    362 y         -6.344605     -6.343924     0.000680    Cartesian   -0.01
    362 z          1.268921      1.267416    -0.001505    Cartesian   -0.12
    363 x         -8.882446     -8.877027     0.005420    Cartesian   -0.06
    363 y         -1.268921     -1.268884     0.000037    Cartesian   -0.00
    363 z         -1.268921     -1.268884     0.000037    Cartesian   -0.00
    364 x         -8.882446     -8.878513     0.003934    Cartesian   -0.04
    364 y         -1.268921     -1.267473     0.001448    Cartesian   -0.11
    364 z          3.806763      3.805315    -0.001448    Cartesian   -0.04
    365 x         10.151367     10.156332     0.004965    Cartesian    0.05
    365 y          7.613525      7.622327     0.008801    Cartesian    0.12
    365 z          2.537842      2.539781     0.001939    Cartesian    0.08
    366 x          7.613525      7.611985    -0.001540    Cartesian   -0.02
    366 y          2.537842      2.536380    -0.001462    Cartesian   -0.06
    366 z         10.151367     10.159779     0.008411    Cartesian    0.08
    367 x          7.613525      7.613590     0.000064    Cartesian    0.00
    367 y         -5.075684     -5.081770    -0.006086    Cartesian    0.12
    367 z          7.613525      7.619612     0.006086    Cartesian    0.08
    368 x          2.537842      2.535125    -0.002717    Cartesian   -0.11
    368 y         10.151367     10.156367     0.005000    Cartesian    0.05
    368 z          7.613525      7.616834     0.003309    Cartesian    0.04
    369 x          8.882446      8.885469     0.003023    Cartesian    0.03
    369 y          8.882446      8.877385    -0.005061    Cartesian   -0.06
    369 z          3.806763      3.806315    -0.000447    Cartesian   -0.01
    370 x          8.882446      8.879730    -0.002716    Cartesian   -0.03
    370 y          8.882446      8.883149     0.000703    Cartesian    0.01
    370 z         -1.268921     -1.267106     0.001815    Cartesian   -0.14
    371 x         -0.000000     -0.002526    -0.002526    Cartesian *******
    371 y         -7.613525     -7.619809    -0.006283    Cartesian    0.08
    371 z          7.613525      7.617675     0.004150    Cartesian    0.05
    372 x          3.806763      3.809765     0.003002    Cartesian    0.08
    372 y          8.882446      8.879297    -0.003149    Cartesian   -0.04
    372 z          8.882446      8.879297    -0.003149    Cartesian   -0.04
    373 x          3.806763      3.805072    -0.001691    Cartesian   -0.04
    373 y         -6.344605     -6.344018     0.000587    Cartesian   -0.01
    373 z          8.882446      8.881859    -0.000587    Cartesian   -0.01
    374 x         -5.075684     -5.080823    -0.005139    Cartesian    0.10
    374 y          7.613525      7.615259     0.001734    Cartesian    0.02
    374 z          7.613525      7.615259     0.001734    Cartesian    0.02
    375 x         -5.075684     -5.081539    -0.005855    Cartesian    0.12
    375 y         -7.613525     -7.617812    -0.004286    Cartesian    0.06
    375 z          2.537842      2.537478    -0.000364    Cartesian   -0.01
    376 x         -7.613525     -7.618454    -0.004929    Cartesian    0.06
    376 y          2.537842      2.538109     0.000267    Cartesian    0.01
    376 z         -5.075684     -5.078669    -0.002986    Cartesian    0.06
    377 x         -1.268921     -1.263639     0.005282    Cartesian   -0.42
    377 y          8.882446      8.880656    -0.001790    Cartesian   -0.02
    377 z          8.882446      8.880656    -0.001790    Cartesian   -0.02
    378 x         -1.268921     -1.265343     0.003578    Cartesian   -0.28
    378 y         -6.344605     -6.344524     0.000081    Cartesian   -0.00
    378 z          8.882446      8.882366    -0.000081    Cartesian   -0.00
    379 x         -6.344605     -6.343208     0.001396    Cartesian   -0.02
    379 y         -1.268921     -1.267822     0.001099    Cartesian   -0.09
    379 z          8.882446      8.882058    -0.000388    Cartesian   -0.00
    380 x         -6.344605     -6.341046     0.003559    Cartesian   -0.06
    380 y          3.806763      3.804341    -0.002422    Cartesian   -0.06
    380 z          8.882446      8.881571    -0.000875    Cartesian   -0.01
    381 x         11.420288     11.410546    -0.009743    Cartesian   -0.09
    381 y          6.344605      6.343174    -0.001430    Cartesian   -0.02
    381 z          1.268921      1.267954    -0.000967    Cartesian   -0.08
    382 x          6.344605      6.340133    -0.004472    Cartesian   -0.07
    382 y          1.268921      1.264059    -0.004862    Cartesian   -0.38
    382 z         11.420288     11.434612     0.014324    Cartesian    0.13
    383 x          1.268921      1.271159     0.002238    Cartesian    0.18
    383 y         -8.882446     -8.878216     0.004231    Cartesian   -0.05
    383 z          6.344605      6.341029    -0.003575    Cartesian   -0.06
    384 x          1.268921      1.268387    -0.000534    Cartesian   -0.04
    384 y          6.344605      6.343650    -0.000954    Cartesian   -0.02
    384 z         11.420288     11.419328    -0.000960    Cartesian   -0.01
    385 x         -3.806763     -3.803596     0.003167    Cartesian   -0.08
    385 y         -8.882446     -8.878370     0.004077    Cartesian   -0.05
    385 z          1.268921      1.267298    -0.001622    Cartesian   -0.13
    386 x         -8.882446     -8.874359     0.008087    Cartesian   -0.09
    386 y         -3.806763     -3.805890     0.000872    Cartesian   -0.02
    386 z          1.268921      1.268428    -0.000492    Cartesian   -0.04
    387 x         12.689209     12.694342     0.005133    Cartesian    0.04
    387 y          2.537842      2.543711     0.005869    Cartesian    0.23
    387 z          0.000000     -0.005869    -0.005869    Cartesian *******
    388 x         10.151367     10.159157     0.007790    Cartesian    0.08
    388 y          7.613525      7.620688     0.007163    Cartesian    0.09
    388 z         -2.537842     -2.540644    -0.002802    Cartesian    0.11
    389 x          7.613525      7.619527     0.006001    Cartesian    0.08
    389 y         -2.537842     -2.544191    -0.006349    Cartesian    0.25
    389 z         10.151367     10.157380     0.006013    Cartesian    0.06
    390 x          5.075684      5.077179     0.001495    Cartesian    0.03
    390 y         -5.075684     -5.080367    -0.004683    Cartesian    0.09
    390 z         10.151367     10.158639     0.007272    Cartesian    0.07
    391 x         11.420288     11.410566    -0.009722    Cartesian   -0.09
    391 y          6.344605      6.342538    -0.002067    Cartesian   -0.03
    391 z          3.806763      3.807158     0.000395    Cartesian    0.01
    392 x         11.420288     11.416566    -0.003722    Cartesian   -0.03
    392 y         -1.268921     -1.265521     0.003400    Cartesian   -0.27
    392 z          6.344605      6.339584    -0.005021    Cartesian   -0.08
    393 x          2.537842      2.531011    -0.006831    Cartesian   -0.27
    393 y         -0.000000     -0.007698    -0.007698    Cartesian *******
    393 z         12.689209     12.696341     0.007132    Cartesian    0.06
    394 x         -0.000000     -0.001578    -0.001578    Cartesian *******
    394 y          2.537842      2.536433    -0.001409    Cartesian   -0.06
    394 z         12.689209     12.700060     0.010851    Cartesian    0.09
    395 x          6.344605      6.343090    -0.001514    Cartesian   -0.02
    395 y         -1.268921     -1.268763     0.000158    Cartesian   -0.01
    395 z         11.420288     11.398073    -0.022215    Cartesian   -0.19
    396 x          6.344605      6.343448    -0.001157    Cartesian   -0.02
    396 y         11.420288     11.405613    -0.014675    Cartesian   -0.13
    396 z          3.806763      3.802810    -0.003953    Cartesian   -0.10
    397 x         -2.537842     -2.542891    -0.005049    Cartesian    0.20
    397 y          7.613525      7.618769     0.005243    Cartesian    0.07
    397 z         10.151367     10.156606     0.005239    Cartesian    0.05
    398 x          3.806763      3.806854     0.000091    Cartesian    0.00
    398 y         -3.806763     -3.805175     0.001588    Cartesian   -0.04
    398 z         11.420288     11.409074    -0.011214    Cartesian   -0.10
    399 x          3.806763      3.805612    -0.001150    Cartesian   -0.03
    399 y         11.420288     11.406144    -0.014145    Cartesian   -0.12
    399 z          6.344605      6.340974    -0.003631    Cartesian   -0.06
    400 x         -5.075684     -5.082042    -0.006359    Cartesian    0.13
    400 y          5.075684      5.078889     0.003205    Cartesian    0.06
    400 z         10.151367     10.156875     0.005507    Cartesian    0.05
    401 x         -7.613525     -7.620763    -0.007238    Cartesian    0.10
    401 y         -2.537842     -2.539418    -0.001577    Cartesian    0.06
    401 z         -5.075684     -5.078905    -0.003222    Cartesian    0.06
    402 x         -1.268921     -1.266270     0.002651    Cartesian   -0.21
    402 y         -3.806763     -3.805980     0.000783    Cartesian   -0.02
    402 z         11.420288     11.412739    -0.007549    Cartesian   -0.07
    403 x         -1.268921     -1.265679     0.003242    Cartesian   -0.26
    403 y          6.344605      6.341058    -0.003546    Cartesian   -0.06
    403 z         11.420288     11.410451    -0.009838    Cartesian   -0.09
    404 x        -10.151367    -10.160583    -0.009216    Cartesian    0.09
    404 y         -0.000000     -0.001558    -0.001558    Cartesian *******
    404 z         -0.000000     -0.001558    -0.001558    Cartesian *******
    405 x         -3.806763     -3.801797     0.004966    Cartesian   -0.13
    405 y         -1.268921     -1.268701     0.000220    Cartesian   -0.02
    405 z         11.420288     11.412747    -0.007541    Cartesian   -0.07
    406 x         -3.806763     -3.802930     0.003833    Cartesian   -0.10
    406 y          3.806763      3.803727    -0.003036    Cartesian   -0.08
    406 z         11.420288     11.412378    -0.007910    Cartesian   -0.07
    407 x         -8.882446     -8.873654     0.008792    Cartesian   -0.10
    407 y         -3.806763     -3.804597     0.002166    Cartesian   -0.06
    407 z          3.806763      3.804859    -0.001904    Cartesian   -0.05
    408 x         -8.882446     -8.877333     0.005113    Cartesian   -0.06
    408 y          3.806763      3.805477    -0.001286    Cartesian   -0.03
    408 z          6.344605      6.342277    -0.002327    Cartesian   -0.04
    409 x          8.882446      8.882975     0.000529    Cartesian    0.01
    409 y         -3.806763     -3.804783     0.001979    Cartesian   -0.05
    409 z          8.882446      8.880406    -0.002040    Cartesian   -0.02
    410 x          8.882446      8.873486    -0.008960    Cartesian   -0.10
    410 y          8.882446      8.873870    -0.008576    Cartesian   -0.10
    410 z          6.344605      6.338044    -0.006560    Cartesian   -0.10
    411 x          6.344605      6.345525     0.000921    Cartesian    0.01
    411 y         -6.344605     -6.340721     0.003884    Cartesian   -0.06
    411 z          8.882446      8.878563    -0.003884    Cartesian   -0.04
    412 x          6.344605      6.339404    -0.005200    Cartesian   -0.08
    412 y          8.882446      8.873467    -0.008979    Cartesian   -0.10
    412 z          8.882446      8.873467    -0.008979    Cartesian   -0.10
    413 x         -3.806763     -3.800727     0.006036    Cartesian   -0.16
    413 y         -6.344605     -6.336294     0.008310    Cartesian   -0.13
    413 z          8.882446      8.874136    -0.008310    Cartesian   -0.09
    414 x         -3.806763     -3.802560     0.004202    Cartesian   -0.11
    414 y          8.882446      8.881487    -0.000959    Cartesian   -0.01
    414 z          8.882446      8.881487    -0.000959    Cartesian   -0.01
    415 x         -6.344605     -6.341679     0.002925    Cartesian   -0.05
    415 y         -6.344605     -6.343472     0.001132    Cartesian   -0.02
    415 z         -3.806763     -3.805274     0.001488    Cartesian   -0.04
    416 x         -6.344605     -6.334963     0.009642    Cartesian   -0.15
    416 y         -6.344605     -6.336804     0.007800    Cartesian   -0.12
    416 z          6.344605      6.339395    -0.005209    Cartesian   -0.08
--------------------------------------------------------------------------------


  Time to end of optimisation  =      122.7546 seconds


  Peak dynamic memory used =     416.90 MB 


  Timing analysis for GULP :

--------------------------------------------------------------------------------
  Task / Subroutine                                          Time (Seconds)
--------------------------------------------------------------------------------
  Calculation of reciprocal space energy and derivatives          0.0002
  Calculation of reciprocal space energy using symmetry           0.0002
  Calculation of real space energy and derivatives                0.0019
  Calculation of real space energy using symmetry                 0.0069
  Calculation for region 1 energy and derivatives (2-b)          31.4736
  Calculation for region 2a energy                               78.2726
  Calculation for region 2b energy                                0.0108
  Calculation and manipulation of Hessian matrix                 11.7136
  Calculation of matrix inversion                                 0.8685
  Symmetry generation of equivalent positions                     0.0015
--------------------------------------------------------------------------------
  Total CPU time                                                122.7547
--------------------------------------------------------------------------------


  Dump file written as ZrO2.grs


  Job Finished at 11:54.24 14th October    2020                               

