********************************************************************************
*                       GENERAL UTILITY LATTICE PROGRAM                        *
*                                 Julian Gale                                  *
*                       Curtin Institute for Computation                       *
*                    School of Molecular and Life Sciences                     *
*                    Curtin University, Western Australia                      *
********************************************************************************
* Version = 5.2.0 * Last modified =  10th September 2020                       *
********************************************************************************
* Zirconia doped with calcium                                                  *
*  optimise     - perform optimisation run                                     *
*  conp         - constant pressure calculation                                *
*  property     - calculate properties for final geometry                      *
*  defect       - perform defect calculation after bulk run                    *
*  distance     - calculate distances                                          *
*  compare      - compare initial and final structures                         *
********************************************************************************
* Zirconia doped with calcium                                                  *
********************************************************************************


  Job Started  at 12:28.44 14th October    2020                               

  Number of CPUs =     1


  Total number of configurations input =      1

********************************************************************************
*  Input for Configuration =   1 : ZrO2                                        *
********************************************************************************

  Formula = ZrO2                                                        

  Number of irreducible atoms/shells =       4


  Total number atoms/shells =       6

  Dimensionality = 3               :  Bulk   


  Symmetry :

  Crystal family                   :  Cubic       
  Crystal class  (Groth - 1921)    :  Cubic Hexakisoctahedral              

  Space group (centrosymmetric)    :  F M 3 M         

  Patterson group                  :  F m -3 m 

  Cartesian lattice vectors (Angstroms) :

        0.000000    2.535000    2.535000
        2.535000    0.000000    2.535000
        2.535000    2.535000    0.000000

  Primitive cell parameters :            Full cell parameters :

  a =   3.5850    alpha =  60.0000       a =   5.0700    alpha =  90.0000
  b =   3.5850    beta  =  60.0000       b =   5.0700    beta  =  90.0000
  c =   3.5850    gamma =  60.0000       c =   5.0700    gamma =  90.0000

  Initial volumes (Angstroms**3):

  Primitive cell =          32.580961    Full cell =         130.323843

  Temperature of configuration =   0.00     K 

  Pressure of configuration =         0.000 GPa 

  Fractional coordinates of asymmetric unit :

--------------------------------------------------------------------------------
   No.  Atomic       x           y          z         Charge      Occupancy
        Label      (Frac)      (Frac)     (Frac)        (e)         (Frac)  
--------------------------------------------------------------------------------
      1 Zr    c    0.000000    0.000000    0.000000     2.65000    1.000000    
      2 O     c    0.250000    0.250000    0.250000     0.07700    1.000000    
      3 Zr    s    0.000000    0.000000    0.000000     1.35000    1.000000    
      4 O     s    0.250000    0.250000    0.250000    -2.07700    1.000000    
--------------------------------------------------------------------------------


  Constraints : 

--------------------------------------------------------------------------------
  Constraint no.      Unconstrained     Constrained    Coefficient    Offset
                         Variable         Variable
--------------------------------------------------------------------------------
           1              Strain 1        Strain 2       1.00000      0.0000
           2              Strain 1        Strain 3       1.00000      0.0000
--------------------------------------------------------------------------------


  Distance calculation :


  Cutoff for distances  =      4.000000 Angstroms

--------------------------------------------------------------------------------
  Asymmetric unit site  Full lattice sites    No.  Distance      No.  Distance
      No.   At.No.            At.No.                (Angs)             (Angs) 
--------------------------------------------------------------------------------
       1   Zr    core        Zr    core        12    3.5850
                             Zr    shell       12    3.5850
                             O     core         8    2.1954
                             O     shell        8    2.1954
--------------------------------------------------------------------------------
       2   O     core        Zr    core         4    2.1954
                             Zr    shell        4    2.1954
                             O     core         6    2.5350       12    3.5850
                             O     shell        6    2.5350       12    3.5850
--------------------------------------------------------------------------------
       3   Zr    shell       Zr    core        12    3.5850
                             Zr    shell       12    3.5850
                             O     core         8    2.1954
                             O     shell        8    2.1954
--------------------------------------------------------------------------------
       4   O     shell       Zr    core         4    2.1954
                             Zr    shell        4    2.1954
                             O     core         6    2.5350       12    3.5850
                             O     shell        6    2.5350       12    3.5850
--------------------------------------------------------------------------------



********************************************************************************
*  General input information                                                   *
********************************************************************************

  Species output for all configurations : 

--------------------------------------------------------------------------------
  Species    Type    Atomic    Atomic    Charge       Radii (Angs)     Library
                     Number     Mass       (e)     Cova   Ionic  VDW   Symbol
--------------------------------------------------------------------------------
    Zr       Core       40      91.22   2.650000   1.560  0.000  2.330          
    Zr       Shell      40       0.00   1.350000   1.560  0.000  2.330          
    O        Core        8      16.00   0.077000   0.730  0.000  1.360          
    O        Shell       8       0.00  -2.077000   0.730  0.000  1.360          
--------------------------------------------------------------------------------


  Lattice summation method               =    Ewald          (3-D)
                                         =    Parry          (2-D)
                                         =    Saunders et al (1-D)
  Accuracy factor for lattice sums       =   12.000


  Analytic derivatives to be used

  Time limit = Infinity

  Maximum range for interatomic potentials =    100000.000000 Angstroms

  General interatomic potentials :

--------------------------------------------------------------------------------
Atom  Types   Potential      Parameter       Value         Units   Cutoffs(Ang)
  1     2                                                            Min /  Max 
--------------------------------------------------------------------------------
O    s Zr   s Buckingham    Buckingham A     985.86900    eV        0.000 12.000
                            Buckingham rho  0.37600000    Ang       
                            Buckingham C     0.0000000    eV*Ang^6  
--------------------------------------------------------------------------------
O    s O    s Buckingham    Buckingham A     22764.300    eV        0.000 12.000
                            Buckingham rho  0.14900000    Ang       
                            Buckingham C     27.890000    eV*Ang^6  
--------------------------------------------------------------------------------
Zr   c Zr   s Spring (c-s)  Spring k 2       169.61700    eV*Ang^-2 0.000  0.800
                            Spring k 4       0.0000000    eV*Ang^-4 
--------------------------------------------------------------------------------
O    c O    s Spring (c-s)  Spring k 2       27.290000    eV*Ang^-2 0.000  0.800
                            Spring k 4       0.0000000    eV*Ang^-4 
--------------------------------------------------------------------------------

********************************************************************************
*  Output for configuration   1 : ZrO2                                         *
********************************************************************************


  Components of energy : 

--------------------------------------------------------------------------------
  Interatomic potentials     =          22.43756329 eV    
  Monopole - monopole (real) =         -15.67991073 eV    
  Monopole - monopole (recip)=        -116.52038266 eV    
  Monopole - monopole (total)=        -132.20029339 eV    
--------------------------------------------------------------------------------
  Total lattice energy : 
    Primitive unit cell      =        -109.76273010 eV    
    Non-primitive unit cell  =        -439.05092039 eV    
--------------------------------------------------------------------------------
  Total lattice energy (in kJmol-1): 
    Primitive unit cell      =          -10590.4256 kJ/(mole unit cells)
    Non-primitive unit cell  =          -42361.7023 kJ/(mole unit cells)
--------------------------------------------------------------------------------


  Number of variables =        1

  Maximum number of calculations  =          1000
  Maximum Hessian update interval =            10
  Maximum step size               =   1.000000000
  Maximum parameter tolerance     =   0.000010000
  Maximum function  tolerance     =   0.000010000
  Maximum gradient  tolerance     =   0.001000000
  Maximum gradient  component     =   0.010000000

  Symmetry constrained optimisation

  Symmetry used for second derivatives

  Cell parameters to be optimised using strains

  Newton-Raphson optimiser to be used

  BFGS hessian update to be used

  Lower half triangular hessian to be used

  Start of bulk optimisation :

  Cycle:      0 Energy:      -109.762730  Gnorm:      0.588311  CPU:    0.006
  ** Hessian calculated **
  Cycle:      1 Energy:      -109.763059  Gnorm:      0.000316  CPU:    0.009


  **** Optimisation achieved ****


  Final energy =    -109.76305939 eV
  Final Gnorm  =       0.00000099

  Components of energy : 

--------------------------------------------------------------------------------
  Interatomic potentials     =          22.28919976 eV    
  Monopole - monopole (real) =         -15.66235280 eV    
  Monopole - monopole (recip)=        -116.38990634 eV    
  Monopole - monopole (total)=        -132.05225914 eV    
--------------------------------------------------------------------------------
  Total lattice energy : 
    Primitive unit cell      =        -109.76305939 eV    
    Non-primitive unit cell  =        -439.05223754 eV    
--------------------------------------------------------------------------------
  Total lattice energy (in kJmol-1): 
    Primitive unit cell      =          -10590.4573 kJ/(mole unit cells)
    Non-primitive unit cell  =          -42361.8294 kJ/(mole unit cells)
--------------------------------------------------------------------------------

  Final asymmetric unit coordinates :

--------------------------------------------------------------------------------
   No.  Atomic        x           y           z         Radius
        Label       (Frac)      (Frac)      (Frac)       (Angs) 
--------------------------------------------------------------------------------
     1  Zr    c     0.000000    0.000000    0.000000    0.000000
     2  O     c     0.250000    0.250000    0.250000    0.000000
     3  Zr    s     0.000000    0.000000    0.000000    0.000000
     4  O     s     0.250000    0.250000    0.250000    0.000000
--------------------------------------------------------------------------------

  Final Cartesian lattice vectors (Angstroms) :

        0.000000    2.537842    2.537842
        2.537842    0.000000    2.537842
        2.537842    2.537842    0.000000


  Final cell parameters and derivatives :

--------------------------------------------------------------------------------
       a            3.589050 Angstrom     dE/de1(xx)    -0.000001 eV/strain
       b            3.589050 Angstrom     dE/de2(yy)     0.000000 eV/strain
       c            3.589050 Angstrom     dE/de3(zz)     0.000000 eV/strain
       alpha       60.000000 Degrees      dE/de4(yz)     0.000000 eV/strain
       beta        60.000000 Degrees      dE/de5(xz)     0.000000 eV/strain
       gamma       60.000000 Degrees      dE/de6(xy)     0.000000 eV/strain
--------------------------------------------------------------------------------

  Primitive cell volume =            32.690656 Angs**3

  Density of cell =      6.259124 g/cm**3

  Non-primitive lattice parameters :

  a    =     5.075684  b   =     5.075684  c    =     5.075684
  alpha=    90.000000  beta=    90.000000  gamma=    90.000000

  Non-primitive cell volume =           130.762624 Angs**3


  Final internal derivatives :

--------------------------------------------------------------------------------
   No.  Atomic          a             b             c           Radius
        Label          (eV)          (eV)          (eV)        (eV/Angs)
--------------------------------------------------------------------------------
      1 Zr    c       0.000000      0.000000      0.000000      0.000000
      2 O     c       0.000000      0.000000      0.000000      0.000000
      3 Zr    s       0.000000      0.000000      0.000000      0.000000
      4 O     s       0.000000      0.000000      0.000000      0.000000
--------------------------------------------------------------------------------
  Maximum abs         0.000000      0.000000      0.000000      0.000000
--------------------------------------------------------------------------------

  Comparison of initial and final structures : 

--------------------------------------------------------------------------------
  Parameter   Initial value   Final value   Difference    Units      Percent
--------------------------------------------------------------------------------
    Volume       130.323843    130.762624     0.438781    Angs**3      0.34
    a              5.070000      5.075684     0.005684    Angstroms    0.11
    b              5.070000      5.075684     0.005684    Angstroms    0.11
    c              5.070000      5.075684     0.005684    Angstroms    0.11
    alpha         90.000000     90.000000     0.000000    Degrees      0.00
    beta          90.000000     90.000000     0.000000    Degrees      0.00
    gamma         90.000000     90.000000     0.000000    Degrees      0.00
      1 x          0.000000      0.000000     0.000000    Fractional   0.00
      1 y          0.000000      0.000000     0.000000    Fractional   0.00
      1 z          0.000000      0.000000     0.000000    Fractional   0.00
      2 x          0.250000      0.250000     0.000000    Fractional   0.00
      2 y          0.250000      0.250000     0.000000    Fractional   0.00
      2 z          0.250000      0.250000     0.000000    Fractional   0.00
      3 x          0.000000      0.000000     0.000000    Fractional   0.00
      3 y          0.000000      0.000000     0.000000    Fractional   0.00
      3 z          0.000000      0.000000     0.000000    Fractional   0.00
      4 x          0.250000      0.250000     0.000000    Fractional   0.00
      4 y          0.250000      0.250000     0.000000    Fractional   0.00
      4 z          0.250000      0.250000     0.000000    Fractional   0.00
--------------------------------------------------------------------------------


  Distance calculation :


  Cutoff for distances  =      4.000000 Angstroms

--------------------------------------------------------------------------------
  Asymmetric unit site  Full lattice sites    No.  Distance      No.  Distance
      No.   At.No.            At.No.                (Angs)             (Angs) 
--------------------------------------------------------------------------------
       1   Zr    core        Zr    core        12    3.5891
                             Zr    shell       12    3.5891
                             O     core         8    2.1978
                             O     shell        8    2.1978
--------------------------------------------------------------------------------
       2   O     core        Zr    core         4    2.1978
                             Zr    shell        4    2.1978
                             O     core         6    2.5378       12    3.5891
                             O     shell        6    2.5378       12    3.5891
--------------------------------------------------------------------------------
       3   Zr    shell       Zr    core        12    3.5891
                             Zr    shell       12    3.5891
                             O     core         8    2.1978
                             O     shell        8    2.1978
--------------------------------------------------------------------------------
       4   O     shell       Zr    core         4    2.1978
                             Zr    shell        4    2.1978
                             O     core         6    2.5378       12    3.5891
                             O     shell        6    2.5378       12    3.5891
--------------------------------------------------------------------------------



  Born effective charge tensors : 

-------------------------------------------------------------------------------
  Atom             x           y             z
-------------------------------------------------------------------------------
    1 Zr    x       3.6770      0.0000      0.0000
            y       0.0000      3.6770      0.0000
            z       0.0000      0.0000      3.6770
-------------------------------------------------------------------------------
    2 O     x      -1.8385      0.0000      0.0000
            y       0.0000     -1.8385     -0.0000
            z       0.0000     -0.0000     -1.8385
-------------------------------------------------------------------------------




  Elastic Constant Matrix: (Units=GPa)

-------------------------------------------------------------------------------
  Indices      1         2         3         4         5         6    
-------------------------------------------------------------------------------
       1    616.2933  119.6612  119.6612   -0.0000   -0.0000   -0.0000
       2    119.6612  616.2933  119.6612   -0.0000   -0.0000   -0.0000
       3    119.6612  119.6612  616.2933   -0.0000   -0.0000   -0.0000
       4     -0.0000   -0.0000   -0.0000  100.8598    0.0000   -0.0000
       5     -0.0000   -0.0000   -0.0000    0.0000  100.8598    0.0000
       6     -0.0000   -0.0000   -0.0000   -0.0000    0.0000  100.8598
-------------------------------------------------------------------------------


  Elastic Compliance Matrix: (Units=1/GPa)

-------------------------------------------------------------------------------
  Indices      1         2         3         4         5         6    
-------------------------------------------------------------------------------
       1    0.001732 -0.000282 -0.000282  0.000000  0.000000  0.000000
       2   -0.000282  0.001732 -0.000282 -0.000000  0.000000  0.000000
       3   -0.000282 -0.000282  0.001732  0.000000  0.000000  0.000000
       4    0.000000 -0.000000  0.000000  0.009915 -0.000000  0.000000
       5    0.000000  0.000000  0.000000 -0.000000  0.009915 -0.000000
       6    0.000000  0.000000  0.000000  0.000000 -0.000000  0.009915
-------------------------------------------------------------------------------

  Mechanical properties :

-------------------------------------------------------------------------------
  Convention :                    Reuss         Voigt         Hill
-------------------------------------------------------------------------------
  Bulk  Modulus (GPa)     =     285.20524     285.20524     285.20524
  Shear Modulus (GPa)     =     132.28031     159.84228     146.06129
-------------------------------------------------------------------------------
  Velocity S-wave (km/s)  =       4.59717       5.05346       4.83071
  Velocity P-wave (km/s)  =       8.58749       8.92280       8.75675
-------------------------------------------------------------------------------
  Compressibility (1/GPa) =    0.00350625
-------------------------------------------------------------------------------
  Stress axis :                     x             y             z
-------------------------------------------------------------------------------
  Youngs Moduli (GPa)     =     577.38110     577.38110     577.38110
-------------------------------------------------------------------------------
  Poissons Ratio (x)      =                     0.16259       0.16259
  Poissons Ratio (y)      =       0.16259                     0.16259
  Poissons Ratio (z)      =       0.16259       0.16259
-------------------------------------------------------------------------------


  Piezoelectric Strain Matrix: (Units=C/m**2)

-------------------------------------------------------------------------------
  Indices      1         2         3         4         5         6    
-------------------------------------------------------------------------------
       x    -0.00000   0.00000   0.00000   0.00000   0.00000   0.00000
       y    -0.00000  -0.00000  -0.00000   0.00000   0.00000   0.00000
       z    -0.00000  -0.00000  -0.00000   0.00000   0.00000   0.00000
-------------------------------------------------------------------------------


  Piezoelectric Stress Matrix: (Units=10**-11 C/N)

-------------------------------------------------------------------------------
  Indices      1         2         3         4         5         6    
-------------------------------------------------------------------------------
       x    -0.00000   0.00000   0.00000   0.00000   0.00000   0.00000
       y    -0.00000  -0.00000  -0.00000   0.00000   0.00000   0.00000
       z     0.00000   0.00000  -0.00000   0.00000   0.00000   0.00000
-------------------------------------------------------------------------------


  Static dielectric constant tensor : 

-------------------------------------------------------------------------------
              x         y         z
-------------------------------------------------------------------------------
       x    26.88485   0.00000   0.00000
       y     0.00000  26.88485   0.00000
       z     0.00000   0.00000  26.88485
--------------------------------------------------------------------------------

  High frequency dielectric constant tensor : 

-------------------------------------------------------------------------------
              x         y         z
-------------------------------------------------------------------------------
       x     2.63099   0.00000   0.00000
       y     0.00000   2.63099   0.00000
       z     0.00000   0.00000   2.63099
-------------------------------------------------------------------------------

  Static refractive indices : 

-------------------------------------------------------------------------------
    1 =    5.18506      2 =    5.18506      3 =    5.18506
-------------------------------------------------------------------------------

  High frequency refractive indices : 

-------------------------------------------------------------------------------
    1 =    1.62203      2 =    1.62203      3 =    1.62203
-------------------------------------------------------------------------------


  Time to end of optimisation =       0.0141 seconds

********************************************************************************
*  Defect calculation for configuration   1 :                                  *
********************************************************************************

  Total number of defects =      3

  Total charge on defect  =   2.00

  Defect centre is at   0.4700   0.2500   0.2500  Frac

  Region 1 radius =  12.0000      Number of ions =   1326

  Number of symmetry inequivalent region 1 ions  =    412

  Region 2 radius =  24.0000      Number of ions =   9314

  Number of symmetry inequivalent region 2a ions =   2554

  Region 2a mode = 4 : screened electrostatics due to region 1 
                       neglect correction to region 1 forces from 2a
                       region 2a displacements based on defects only

  Region 2a ions will only interact with defects in region 1

  Vacancies:

--------------------------------------------------------------------------------
    Specification type     Symbol/Number         x          y          z
--------------------------------------------------------------------------------
    Fractional                               0.250000   0.250000   0.250000
    Fractional                               0.750000   0.250000   0.250000
--------------------------------------------------------------------------------

  Interstitials:

--------------------------------------------------------------------------------
    Specification type     Symbol/Number         x          y          z
--------------------------------------------------------------------------------
    Atom/Fractional         O                0.470000   0.250000   0.250000
--------------------------------------------------------------------------------


  Symmetry reduced region 1 (Relative to defect centre) :

--------------------------------------------------------------------------------
   No.   Atomic       x            y             z       Radius  Multiplicity   
         Label      (Angs)       (Angs)        (Angs)    (Angs)     
--------------------------------------------------------------------------------
     1  O     c      0.0000       0.0000       0.0000    0.0000     1    Defect
     2  Zr    c      0.1523 *     1.2689 *    -1.2689    0.0000     2          
     3  O     c     -1.1167 *    -0.0000 *     2.5378 *  0.0000     4          
     4  O     c      1.4212 *     2.5378 *     0.0000 *  0.0000     4          
     5  Zr    c     -2.3856 *    -1.2689 *    -1.2689    0.0000     2          
     6  Zr    c      2.6901 *     1.2689 *     1.2689    0.0000     2          
     7  O     c     -3.6545 *    -0.0000      -0.0000    0.0000     1          
     8  O     c     -1.1167 *    -2.5378 *     2.5378    0.0000     2          
     9  O     c     -1.1167 *     2.5378 *     2.5378    0.0000     2          
    10  O     c      1.4212 *     2.5378 *     2.5378    0.0000     2          
    11  O     c      1.4212 *    -2.5378 *     2.5378    0.0000     2          
    12  O     c      3.9590 *     0.0000       0.0000    0.0000     1          
    13  Zr    c      0.1523 *     3.8068 *     1.2689 *  0.0000     4          
    14  O     c     -3.6545 *     0.0000 *     2.5378 *  0.0000     4          
    15  Zr    c     -2.3856 *    -3.8068 *     1.2689 *  0.0000     4          
    16  O     c      3.9590 *     2.5378 *    -0.0000 *  0.0000     4          
    17  Zr    c      2.6901 *     3.8068 *    -1.2689 *  0.0000     4          
    18  O     c     -3.6545 *     2.5378 *     2.5378    0.0000     2          
    19  O     c     -3.6545 *     2.5378 *    -2.5378    0.0000     2          
    20  O     c     -1.1167 *    -5.0757 *     0.0000 *  0.0000     4          
    21  Zr    c     -4.9234 *    -1.2689 *     1.2689    0.0000     2          
    22  O     c      1.4212 *    -0.0000 *     5.0757 *  0.0000     4          
    23  O     c      3.9590 *     2.5378 *    -2.5378    0.0000     2          
    24  O     c      3.9590 *     2.5378 *     2.5378    0.0000     2          
    25  Zr    c      0.1523 *    -3.8068 *     3.8068    0.0000     2          
    26  Zr    c      5.2280 *     1.2689 *    -1.2689    0.0000     2          
    27  O     c     -1.1167 *     2.5378 *     5.0757 *  0.0000     4          
    28  O     c     -1.1167 *    -2.5378 *     5.0757 *  0.0000     4          
    29  O     c      1.4212 *     2.5378 *    -5.0757 *  0.0000     4          
    30  O     c      1.4212 *     5.0757 *     2.5378 *  0.0000     4          
    31  Zr    c     -2.3856 *     3.8068 *     3.8068    0.0000     2          
    32  Zr    c      2.6901 *     3.8068 *     3.8068    0.0000     2          
    33  O     c     -6.1923 *     0.0000       0.0000    0.0000     1          
    34  O     c     -3.6545 *     5.0757 *    -0.0000 *  0.0000     4          
    35  Zr    c     -4.9234 *     3.8068 *     1.2689 *  0.0000     4          
    36  O     c      3.9590 *     5.0757 *     0.0000 *  0.0000     4          
    37  Zr    c      0.1523 *    -1.2689 *     6.3446 *  0.0000     4          
    38  O     c      6.4969 *    -0.0000      -0.0000    0.0000     1          
    39  Zr    c      5.2280 *     1.2689 *     3.8068 *  0.0000     4          
    40  O     c     -6.1923 *    -0.0000 *     2.5378 *  0.0000     4          
    41  O     c     -3.6545 *    -5.0757 *    -2.5378 *  0.0000     4          
    42  O     c     -3.6545 *    -5.0757 *     2.5378 *  0.0000     4          
    43  Zr    c     -2.3856 *     6.3446 *     1.2689 *  0.0000     4          
    44  O     c      3.9590 *    -2.5378 *     5.0757 *  0.0000     4          
    45  O     c      3.9590 *     5.0757 *     2.5378 *  0.0000     4          
    46  O     c      6.4969 *     2.5378 *     0.0000 *  0.0000     4          
    47  Zr    c      2.6901 *    -1.2689 *    -6.3446 *  0.0000     4          
    48  O     c     -6.1923 *     2.5378 *     2.5378    0.0000     2          
    49  O     c     -6.1923 *    -2.5378 *     2.5378    0.0000     2          
    50  O     c     -1.1167 *    -5.0757 *     5.0757    0.0000     2          
    51  O     c     -1.1167 *     5.0757 *     5.0757    0.0000     2          
    52  Zr    c     -4.9234 *     3.8068 *    -3.8068    0.0000     2          
    53  O     c      1.4212 *     5.0757 *     5.0757    0.0000     2          
    54  O     c      1.4212 *    -5.0757 *     5.0757    0.0000     2          
    55  Zr    c      0.1523 *     3.8068 *     6.3446 *  0.0000     4          
    56  O     c      6.4969 *     2.5378 *     2.5378    0.0000     2          
    57  O     c      6.4969 *     2.5378 *    -2.5378    0.0000     2          
    58  Zr    c      5.2280 *     3.8068 *    -3.8068    0.0000     2          
    59  Zr    c     -7.4613 *     1.2689 *     1.2689    0.0000     2          
    60  O     c     -1.1167 *     7.6135 *    -0.0000 *  0.0000     4          
    61  O     c      1.4212 *     7.6135 *     0.0000 *  0.0000     4          
    62  Zr    c     -2.3856 *    -6.3446 *     3.8068 *  0.0000     4          
    63  Zr    c      2.6901 *     3.8068 *    -6.3446 *  0.0000     4          
    64  Zr    c      7.7658 *    -1.2689 *    -1.2689    0.0000     2          
    65  O     c     -6.1923 *    -5.0757 *     0.0000 *  0.0000     4          
    66  O     c     -3.6545 *     5.0757 *     5.0757    0.0000     2          
    67  O     c     -3.6545 *    -5.0757 *     5.0757    0.0000     2          
    68  O     c     -1.1167 *     2.5378 *     7.6135 *  0.0000     4          
    69  O     c     -1.1167 *    -7.6135 *     2.5378 *  0.0000     4          
    70  Zr    c     -4.9234 *    -6.3446 *     1.2689 *  0.0000     4          
    71  O     c      1.4212 *     7.6135 *     2.5378 *  0.0000     4          
    72  O     c      1.4212 *    -2.5378 *     7.6135 *  0.0000     4          
    73  O     c      3.9590 *     5.0757 *    -5.0757    0.0000     2          
    74  O     c      3.9590 *     5.0757 *     5.0757    0.0000     2          
    75  O     c      6.4969 *     5.0757 *    -0.0000 *  0.0000     4          
    76  Zr    c      5.2280 *     6.3446 *    -1.2689 *  0.0000     4          
    77  O     c     -6.1923 *     2.5378 *     5.0757 *  0.0000     4          
    78  O     c     -6.1923 *     5.0757 *    -2.5378 *  0.0000     4          
    79  O     c     -3.6545 *    -7.6135 *     0.0000 *  0.0000     4          
    80  Zr    c     -7.4613 *     1.2689 *    -3.8068 *  0.0000     4          
    81  O     c      3.9590 *    -0.0000 *     7.6135 *  0.0000     4          
    82  O     c      6.4969 *     5.0757 *    -2.5378 *  0.0000     4          
    83  O     c      6.4969 *     5.0757 *     2.5378 *  0.0000     4          
    84  O     c     -8.7302 *    -0.0000      -0.0000    0.0000     1          
    85  Zr    c      7.7658 *     3.8068 *    -1.2689 *  0.0000     4          
    86  O     c     -3.6545 *     7.6135 *    -2.5378 *  0.0000     4          
    87  O     c     -3.6545 *     2.5378 *     7.6135 *  0.0000     4          
    88  Zr    c     -4.9234 *     3.8068 *     6.3446 *  0.0000     4          
    89  O     c      3.9590 *    -2.5378 *     7.6135 *  0.0000     4          
    90  O     c      3.9590 *     7.6135 *     2.5378 *  0.0000     4          
    91  Zr    c      0.1523 *    -6.3446 *     6.3446    0.0000     2          
    92  Zr    c      0.1523 *     8.8824 *     1.2689 *  0.0000     4          
    93  O     c      9.0347 *     0.0000       0.0000    0.0000     1          
    94  Zr    c      5.2280 *     6.3446 *     3.8068 *  0.0000     4          
    95  O     c     -8.7302 *    -2.5378 *     0.0000 *  0.0000     4          
    96  Zr    c     -7.4613 *    -3.8068 *    -3.8068    0.0000     2          
    97  O     c     -1.1167 *     5.0757 *     7.6135 *  0.0000     4          
    98  O     c     -1.1167 *    -5.0757 *     7.6135 *  0.0000     4          
    99  O     c      1.4212 *    -7.6135 *     5.0757 *  0.0000     4          
   100  O     c      1.4212 *     7.6135 *     5.0757 *  0.0000     4          
   101  Zr    c     -2.3856 *     6.3446 *     6.3446    0.0000     2          
   102  Zr    c     -2.3856 *     8.8824 *    -1.2689 *  0.0000     4          
   103  Zr    c      2.6901 *     6.3446 *     6.3446    0.0000     2          
   104  Zr    c      2.6901 *     8.8824 *    -1.2689 *  0.0000     4          
   105  O     c      9.0347 *     2.5378 *    -0.0000 *  0.0000     4          
   106  O     c     -8.7302 *    -2.5378 *    -2.5378    0.0000     2          
   107  O     c     -8.7302 *    -2.5378 *     2.5378    0.0000     2          
   108  Zr    c      7.7658 *     3.8068 *     3.8068    0.0000     2          
   109  O     c     -6.1923 *    -5.0757 *    -5.0757    0.0000     2          
   110  O     c     -6.1923 *    -5.0757 *     5.0757    0.0000     2          
   111  Zr    c      0.1523 *     8.8824 *    -3.8068 *  0.0000     4          
   112  O     c      6.4969 *     5.0757 *     5.0757    0.0000     2          
   113  O     c      6.4969 *     5.0757 *    -5.0757    0.0000     2          
   114  O     c      9.0347 *     2.5378 *     2.5378    0.0000     2          
   115  O     c      9.0347 *     2.5378 *    -2.5378    0.0000     2          
   116  O     c     -6.1923 *    -0.0000 *     7.6135 *  0.0000     4          
   117  O     c     -3.6545 *    -7.6135 *     5.0757 *  0.0000     4          
   118  O     c     -3.6545 *     5.0757 *     7.6135 *  0.0000     4          
   119  Zr    c     -7.4613 *    -6.3446 *    -1.2689 *  0.0000     4          
   120  Zr    c     -2.3856 *     3.8068 *     8.8824 *  0.0000     4          
   121  O     c      3.9590 *     7.6135 *     5.0757 *  0.0000     4          
   122  O     c      3.9590 *    -5.0757 *     7.6135 *  0.0000     4          
   123  O     c      6.4969 *     7.6135 *     0.0000 *  0.0000     4          
   124  Zr    c      2.6901 *     8.8824 *     3.8068 *  0.0000     4          
   125  O     c     -8.7302 *    -0.0000 *     5.0757 *  0.0000     4          
   126  Zr    c      7.7658 *    -1.2689 *    -6.3446 *  0.0000     4          
   127  O     c     -6.1923 *    -2.5378 *    -7.6135 *  0.0000     4          
   128  O     c     -6.1923 *     2.5378 *    -7.6135 *  0.0000     4          
   129  Zr    c     -9.9991 *    -1.2689 *     1.2689    0.0000     2          
   130  O     c     -1.1167 *    -0.0000 *    10.1514 *  0.0000     4          
   131  Zr    c     -4.9234 *     6.3446 *    -6.3446    0.0000     2          
   132  Zr    c     -4.9234 *     1.2689 *     8.8824 *  0.0000     4          
   133  O     c      1.4212 *    -0.0000 *    10.1514 *  0.0000     4          
   134  O     c      6.4969 *     7.6135 *    -2.5378 *  0.0000     4          
   135  O     c      6.4969 *     7.6135 *     2.5378 *  0.0000     4          
   136  O     c      9.0347 *     5.0757 *     0.0000 *  0.0000     4          
   137  Zr    c      5.2280 *     8.8824 *     1.2689 *  0.0000     4          
   138  Zr    c      5.2280 *    -6.3446 *     6.3446    0.0000     2          
   139  O     c     -8.7302 *    -5.0757 *    -2.5378 *  0.0000     4          
   140  O     c     -8.7302 *    -5.0757 *     2.5378 *  0.0000     4          
   141  Zr    c     10.3036 *     1.2689 *    -1.2689    0.0000     2          
   142  Zr    c     -7.4613 *     3.8068 *    -6.3446 *  0.0000     4          
   143  O     c     -1.1167 *    10.1514 *    -2.5378 *  0.0000     4          
   144  O     c     -1.1167 *     2.5378 *    10.1514 *  0.0000     4          
   145  O     c      1.4212 *    -2.5378 *    10.1514 *  0.0000     4          
   146  O     c      1.4212 *     2.5378 *    10.1514 *  0.0000     4          
   147  O     c      9.0347 *     5.0757 *     2.5378 *  0.0000     4          
   148  O     c      9.0347 *     5.0757 *    -2.5378 *  0.0000     4          
   149  Zr    c      7.7658 *     3.8068 *    -6.3446 *  0.0000     4          
   150  Zr    c     -9.9991 *    -1.2689 *    -3.8068 *  0.0000     4          
   151  O     c     -3.6545 *    10.1514 *    -0.0000 *  0.0000     4          
   152  O     c     -1.1167 *    -7.6135 *     7.6135    0.0000     2          
   153  O     c     -1.1167 *     7.6135 *     7.6135    0.0000     2          
   154  Zr    c     -4.9234 *    -8.8824 *     3.8068 *  0.0000     4          
   155  O     c      1.4212 *     7.6135 *     7.6135    0.0000     2          
   156  O     c      1.4212 *    -7.6135 *     7.6135    0.0000     2          
   157  O     c      3.9590 *    10.1514 *     0.0000 *  0.0000     4          
   158  Zr    c      0.1523 *     8.8824 *     6.3446 *  0.0000     4          
   159  Zr    c      5.2280 *    -3.8068 *     8.8824 *  0.0000     4          
   160  O     c     -6.1923 *    -5.0757 *     7.6135 *  0.0000     4          
   161  O     c     -6.1923 *     5.0757 *     7.6135 *  0.0000     4          
   162  Zr    c     10.3036 *     3.8068 *     1.2689 *  0.0000     4          
   163  O     c     -3.6545 *   -10.1514 *     2.5378 *  0.0000     4          
   164  O     c     -3.6545 *     2.5378 *    10.1514 *  0.0000     4          
   165  Zr    c     -2.3856 *    -8.8824 *     6.3446 *  0.0000     4          
   166  O     c      3.9590 *    -2.5378 *    10.1514 *  0.0000     4          
   167  O     c      3.9590 *     2.5378 *    10.1514 *  0.0000     4          
   168  O     c      6.4969 *    -5.0757 *     7.6135 *  0.0000     4          
   169  O     c      6.4969 *     7.6135 *     5.0757 *  0.0000     4          
   170  Zr    c      2.6901 *    -6.3446 *     8.8824 *  0.0000     4          
   171  O     c    -11.2680 *    -0.0000       0.0000    0.0000     1          
   172  O     c     -8.7302 *     5.0757 *     5.0757    0.0000     2          
   173  O     c     -8.7302 *    -5.0757 *     5.0757    0.0000     2          
   174  Zr    c     -9.9991 *    -3.8068 *     3.8068    0.0000     2          
   175  O     c     -3.6545 *     7.6135 *     7.6135    0.0000     2          
   176  O     c     -3.6545 *    -7.6135 *     7.6135    0.0000     2          
   177  O     c     -1.1167 *   -10.1514 *     5.0757 *  0.0000     4          
   178  O     c     -1.1167 *     5.0757 *    10.1514 *  0.0000     4          
   179  O     c      1.4212 *     5.0757 *    10.1514 *  0.0000     4          
   180  O     c      1.4212 *    -5.0757 *    10.1514 *  0.0000     4          
   181  O     c      3.9590 *    -7.6135 *     7.6135    0.0000     2          
   182  O     c      3.9590 *     7.6135 *     7.6135    0.0000     2          
   183  Zr    c      0.1523 *    -1.2689 *    11.4203 *  0.0000     4          
   184  O     c      9.0347 *     5.0757 *     5.0757    0.0000     2          
   185  O     c      9.0347 *     5.0757 *    -5.0757    0.0000     2          
   186  O     c    -11.2680 *    -2.5378 *    -0.0000 *  0.0000     4          
   187  O     c     11.5726 *    -0.0000      -0.0000    0.0000     1          
   188  O     c     -8.7302 *    -7.6135 *     0.0000 *  0.0000     4          
   189  Zr    c     10.3036 *     3.8068 *    -3.8068    0.0000     2          
   190  Zr    c     -7.4613 *     6.3446 *     6.3446    0.0000     2          
   191  Zr    c     -7.4613 *    -8.8824 *     1.2689 *  0.0000     4          
   192  Zr    c     -2.3856 *     1.2689 *    11.4203 *  0.0000     4          
   193  Zr    c      2.6901 *    -1.2689 *   -11.4203 *  0.0000     4          
   194  O     c      9.0347 *     7.6135 *    -0.0000 *  0.0000     4          
   195  O     c    -11.2680 *     2.5378 *     2.5378    0.0000     2          
   196  O     c    -11.2680 *    -2.5378 *     2.5378    0.0000     2          
   197  O     c     11.5726 *     2.5378 *     0.0000 *  0.0000     4          
   198  O     c     -8.7302 *    -2.5378 *     7.6135 *  0.0000     4          
   199  O     c     -8.7302 *     2.5378 *     7.6135 *  0.0000     4          
   200  Zr    c      7.7658 *    -1.2689 *     8.8824 *  0.0000     4          
   201  Zr    c      7.7658 *     6.3446 *     6.3446    0.0000     2          
   202  O     c     -6.1923 *   -10.1514 *     0.0000 *  0.0000     4          
   203  Zr    c     -9.9991 *     1.2689 *    -6.3446 *  0.0000     4          
   204  O     c     -3.6545 *    10.1514 *     5.0757 *  0.0000     4          
   205  O     c     -3.6545 *    -5.0757 *    10.1514 *  0.0000     4          
   206  Zr    c     -4.9234 *     6.3446 *     8.8824 *  0.0000     4          
   207  O     s      0.0000       0.0000       0.0000    0.0000     1    Defect
   208  Zr    s      0.1523 *     1.2689 *    -1.2689    0.0000     2          
   209  O     s     -1.1167 *    -0.0000 *     2.5378 *  0.0000     4          
   210  O     s      1.4212 *     2.5378 *     0.0000 *  0.0000     4          
   211  Zr    s     -2.3856 *    -1.2689 *    -1.2689    0.0000     2          
   212  Zr    s      2.6901 *     1.2689 *     1.2689    0.0000     2          
   213  O     s     -3.6545 *    -0.0000      -0.0000    0.0000     1          
   214  O     s     -1.1167 *    -2.5378 *     2.5378    0.0000     2          
   215  O     s     -1.1167 *     2.5378 *     2.5378    0.0000     2          
   216  O     s      1.4212 *     2.5378 *     2.5378    0.0000     2          
   217  O     s      1.4212 *    -2.5378 *     2.5378    0.0000     2          
   218  O     s      3.9590 *     0.0000       0.0000    0.0000     1          
   219  Zr    s      0.1523 *     3.8068 *     1.2689 *  0.0000     4          
   220  O     s     -3.6545 *     0.0000 *     2.5378 *  0.0000     4          
   221  Zr    s     -2.3856 *    -3.8068 *     1.2689 *  0.0000     4          
   222  O     s      3.9590 *     2.5378 *    -0.0000 *  0.0000     4          
   223  Zr    s      2.6901 *     3.8068 *    -1.2689 *  0.0000     4          
   224  O     s     -3.6545 *     2.5378 *     2.5378    0.0000     2          
   225  O     s     -3.6545 *     2.5378 *    -2.5378    0.0000     2          
   226  O     s     -1.1167 *    -5.0757 *     0.0000 *  0.0000     4          
   227  Zr    s     -4.9234 *    -1.2689 *     1.2689    0.0000     2          
   228  O     s      1.4212 *    -0.0000 *     5.0757 *  0.0000     4          
   229  O     s      3.9590 *     2.5378 *    -2.5378    0.0000     2          
   230  O     s      3.9590 *     2.5378 *     2.5378    0.0000     2          
   231  Zr    s      0.1523 *    -3.8068 *     3.8068    0.0000     2          
   232  Zr    s      5.2280 *     1.2689 *    -1.2689    0.0000     2          
   233  O     s     -1.1167 *     2.5378 *     5.0757 *  0.0000     4          
   234  O     s     -1.1167 *    -2.5378 *     5.0757 *  0.0000     4          
   235  O     s      1.4212 *     2.5378 *    -5.0757 *  0.0000     4          
   236  O     s      1.4212 *     5.0757 *     2.5378 *  0.0000     4          
   237  Zr    s     -2.3856 *     3.8068 *     3.8068    0.0000     2          
   238  Zr    s      2.6901 *     3.8068 *     3.8068    0.0000     2          
   239  O     s     -6.1923 *     0.0000       0.0000    0.0000     1          
   240  O     s     -3.6545 *     5.0757 *    -0.0000 *  0.0000     4          
   241  Zr    s     -4.9234 *     3.8068 *     1.2689 *  0.0000     4          
   242  O     s      3.9590 *     5.0757 *     0.0000 *  0.0000     4          
   243  Zr    s      0.1523 *    -1.2689 *     6.3446 *  0.0000     4          
   244  O     s      6.4969 *    -0.0000      -0.0000    0.0000     1          
   245  Zr    s      5.2280 *     1.2689 *     3.8068 *  0.0000     4          
   246  O     s     -6.1923 *    -0.0000 *     2.5378 *  0.0000     4          
   247  O     s     -3.6545 *    -5.0757 *    -2.5378 *  0.0000     4          
   248  O     s     -3.6545 *    -5.0757 *     2.5378 *  0.0000     4          
   249  Zr    s     -2.3856 *     6.3446 *     1.2689 *  0.0000     4          
   250  O     s      3.9590 *    -2.5378 *     5.0757 *  0.0000     4          
   251  O     s      3.9590 *     5.0757 *     2.5378 *  0.0000     4          
   252  O     s      6.4969 *     2.5378 *     0.0000 *  0.0000     4          
   253  Zr    s      2.6901 *    -1.2689 *    -6.3446 *  0.0000     4          
   254  O     s     -6.1923 *     2.5378 *     2.5378    0.0000     2          
   255  O     s     -6.1923 *    -2.5378 *     2.5378    0.0000     2          
   256  O     s     -1.1167 *    -5.0757 *     5.0757    0.0000     2          
   257  O     s     -1.1167 *     5.0757 *     5.0757    0.0000     2          
   258  Zr    s     -4.9234 *     3.8068 *    -3.8068    0.0000     2          
   259  O     s      1.4212 *     5.0757 *     5.0757    0.0000     2          
   260  O     s      1.4212 *    -5.0757 *     5.0757    0.0000     2          
   261  Zr    s      0.1523 *     3.8068 *     6.3446 *  0.0000     4          
   262  O     s      6.4969 *     2.5378 *     2.5378    0.0000     2          
   263  O     s      6.4969 *     2.5378 *    -2.5378    0.0000     2          
   264  Zr    s      5.2280 *     3.8068 *    -3.8068    0.0000     2          
   265  Zr    s     -7.4613 *     1.2689 *     1.2689    0.0000     2          
   266  O     s     -1.1167 *     7.6135 *    -0.0000 *  0.0000     4          
   267  O     s      1.4212 *     7.6135 *     0.0000 *  0.0000     4          
   268  Zr    s     -2.3856 *    -6.3446 *     3.8068 *  0.0000     4          
   269  Zr    s      2.6901 *     3.8068 *    -6.3446 *  0.0000     4          
   270  Zr    s      7.7658 *    -1.2689 *    -1.2689    0.0000     2          
   271  O     s     -6.1923 *    -5.0757 *     0.0000 *  0.0000     4          
   272  O     s     -3.6545 *     5.0757 *     5.0757    0.0000     2          
   273  O     s     -3.6545 *    -5.0757 *     5.0757    0.0000     2          
   274  O     s     -1.1167 *     2.5378 *     7.6135 *  0.0000     4          
   275  O     s     -1.1167 *    -7.6135 *     2.5378 *  0.0000     4          
   276  Zr    s     -4.9234 *    -6.3446 *     1.2689 *  0.0000     4          
   277  O     s      1.4212 *     7.6135 *     2.5378 *  0.0000     4          
   278  O     s      1.4212 *    -2.5378 *     7.6135 *  0.0000     4          
   279  O     s      3.9590 *     5.0757 *    -5.0757    0.0000     2          
   280  O     s      3.9590 *     5.0757 *     5.0757    0.0000     2          
   281  O     s      6.4969 *     5.0757 *    -0.0000 *  0.0000     4          
   282  Zr    s      5.2280 *     6.3446 *    -1.2689 *  0.0000     4          
   283  O     s     -6.1923 *     2.5378 *     5.0757 *  0.0000     4          
   284  O     s     -6.1923 *     5.0757 *    -2.5378 *  0.0000     4          
   285  O     s     -3.6545 *    -7.6135 *     0.0000 *  0.0000     4          
   286  Zr    s     -7.4613 *     1.2689 *    -3.8068 *  0.0000     4          
   287  O     s      3.9590 *    -0.0000 *     7.6135 *  0.0000     4          
   288  O     s      6.4969 *     5.0757 *    -2.5378 *  0.0000     4          
   289  O     s      6.4969 *     5.0757 *     2.5378 *  0.0000     4          
   290  O     s     -8.7302 *    -0.0000      -0.0000    0.0000     1          
   291  Zr    s      7.7658 *     3.8068 *    -1.2689 *  0.0000     4          
   292  O     s     -3.6545 *     7.6135 *    -2.5378 *  0.0000     4          
   293  O     s     -3.6545 *     2.5378 *     7.6135 *  0.0000     4          
   294  Zr    s     -4.9234 *     3.8068 *     6.3446 *  0.0000     4          
   295  O     s      3.9590 *    -2.5378 *     7.6135 *  0.0000     4          
   296  O     s      3.9590 *     7.6135 *     2.5378 *  0.0000     4          
   297  Zr    s      0.1523 *    -6.3446 *     6.3446    0.0000     2          
   298  Zr    s      0.1523 *     8.8824 *     1.2689 *  0.0000     4          
   299  O     s      9.0347 *     0.0000       0.0000    0.0000     1          
   300  Zr    s      5.2280 *     6.3446 *     3.8068 *  0.0000     4          
   301  O     s     -8.7302 *    -2.5378 *     0.0000 *  0.0000     4          
   302  Zr    s     -7.4613 *    -3.8068 *    -3.8068    0.0000     2          
   303  O     s     -1.1167 *     5.0757 *     7.6135 *  0.0000     4          
   304  O     s     -1.1167 *    -5.0757 *     7.6135 *  0.0000     4          
   305  O     s      1.4212 *    -7.6135 *     5.0757 *  0.0000     4          
   306  O     s      1.4212 *     7.6135 *     5.0757 *  0.0000     4          
   307  Zr    s     -2.3856 *     6.3446 *     6.3446    0.0000     2          
   308  Zr    s     -2.3856 *     8.8824 *    -1.2689 *  0.0000     4          
   309  Zr    s      2.6901 *     6.3446 *     6.3446    0.0000     2          
   310  Zr    s      2.6901 *     8.8824 *    -1.2689 *  0.0000     4          
   311  O     s      9.0347 *     2.5378 *    -0.0000 *  0.0000     4          
   312  O     s     -8.7302 *    -2.5378 *    -2.5378    0.0000     2          
   313  O     s     -8.7302 *    -2.5378 *     2.5378    0.0000     2          
   314  Zr    s      7.7658 *     3.8068 *     3.8068    0.0000     2          
   315  O     s     -6.1923 *    -5.0757 *    -5.0757    0.0000     2          
   316  O     s     -6.1923 *    -5.0757 *     5.0757    0.0000     2          
   317  Zr    s      0.1523 *     8.8824 *    -3.8068 *  0.0000     4          
   318  O     s      6.4969 *     5.0757 *     5.0757    0.0000     2          
   319  O     s      6.4969 *     5.0757 *    -5.0757    0.0000     2          
   320  O     s      9.0347 *     2.5378 *     2.5378    0.0000     2          
   321  O     s      9.0347 *     2.5378 *    -2.5378    0.0000     2          
   322  O     s     -6.1923 *    -0.0000 *     7.6135 *  0.0000     4          
   323  O     s     -3.6545 *    -7.6135 *     5.0757 *  0.0000     4          
   324  O     s     -3.6545 *     5.0757 *     7.6135 *  0.0000     4          
   325  Zr    s     -7.4613 *    -6.3446 *    -1.2689 *  0.0000     4          
   326  Zr    s     -2.3856 *     3.8068 *     8.8824 *  0.0000     4          
   327  O     s      3.9590 *     7.6135 *     5.0757 *  0.0000     4          
   328  O     s      3.9590 *    -5.0757 *     7.6135 *  0.0000     4          
   329  O     s      6.4969 *     7.6135 *     0.0000 *  0.0000     4          
   330  Zr    s      2.6901 *     8.8824 *     3.8068 *  0.0000     4          
   331  O     s     -8.7302 *    -0.0000 *     5.0757 *  0.0000     4          
   332  Zr    s      7.7658 *    -1.2689 *    -6.3446 *  0.0000     4          
   333  O     s     -6.1923 *    -2.5378 *    -7.6135 *  0.0000     4          
   334  O     s     -6.1923 *     2.5378 *    -7.6135 *  0.0000     4          
   335  Zr    s     -9.9991 *    -1.2689 *     1.2689    0.0000     2          
   336  O     s     -1.1167 *    -0.0000 *    10.1514 *  0.0000     4          
   337  Zr    s     -4.9234 *     6.3446 *    -6.3446    0.0000     2          
   338  Zr    s     -4.9234 *     1.2689 *     8.8824 *  0.0000     4          
   339  O     s      1.4212 *    -0.0000 *    10.1514 *  0.0000     4          
   340  O     s      6.4969 *     7.6135 *    -2.5378 *  0.0000     4          
   341  O     s      6.4969 *     7.6135 *     2.5378 *  0.0000     4          
   342  O     s      9.0347 *     5.0757 *     0.0000 *  0.0000     4          
   343  Zr    s      5.2280 *     8.8824 *     1.2689 *  0.0000     4          
   344  Zr    s      5.2280 *    -6.3446 *     6.3446    0.0000     2          
   345  O     s     -8.7302 *    -5.0757 *    -2.5378 *  0.0000     4          
   346  O     s     -8.7302 *    -5.0757 *     2.5378 *  0.0000     4          
   347  Zr    s     10.3036 *     1.2689 *    -1.2689    0.0000     2          
   348  Zr    s     -7.4613 *     3.8068 *    -6.3446 *  0.0000     4          
   349  O     s     -1.1167 *    10.1514 *    -2.5378 *  0.0000     4          
   350  O     s     -1.1167 *     2.5378 *    10.1514 *  0.0000     4          
   351  O     s      1.4212 *    -2.5378 *    10.1514 *  0.0000     4          
   352  O     s      1.4212 *     2.5378 *    10.1514 *  0.0000     4          
   353  O     s      9.0347 *     5.0757 *     2.5378 *  0.0000     4          
   354  O     s      9.0347 *     5.0757 *    -2.5378 *  0.0000     4          
   355  Zr    s      7.7658 *     3.8068 *    -6.3446 *  0.0000     4          
   356  Zr    s     -9.9991 *    -1.2689 *    -3.8068 *  0.0000     4          
   357  O     s     -3.6545 *    10.1514 *    -0.0000 *  0.0000     4          
   358  O     s     -1.1167 *    -7.6135 *     7.6135    0.0000     2          
   359  O     s     -1.1167 *     7.6135 *     7.6135    0.0000     2          
   360  Zr    s     -4.9234 *    -8.8824 *     3.8068 *  0.0000     4          
   361  O     s      1.4212 *     7.6135 *     7.6135    0.0000     2          
   362  O     s      1.4212 *    -7.6135 *     7.6135    0.0000     2          
   363  O     s      3.9590 *    10.1514 *     0.0000 *  0.0000     4          
   364  Zr    s      0.1523 *     8.8824 *     6.3446 *  0.0000     4          
   365  Zr    s      5.2280 *    -3.8068 *     8.8824 *  0.0000     4          
   366  O     s     -6.1923 *    -5.0757 *     7.6135 *  0.0000     4          
   367  O     s     -6.1923 *     5.0757 *     7.6135 *  0.0000     4          
   368  Zr    s     10.3036 *     3.8068 *     1.2689 *  0.0000     4          
   369  O     s     -3.6545 *   -10.1514 *     2.5378 *  0.0000     4          
   370  O     s     -3.6545 *     2.5378 *    10.1514 *  0.0000     4          
   371  Zr    s     -2.3856 *    -8.8824 *     6.3446 *  0.0000     4          
   372  O     s      3.9590 *    -2.5378 *    10.1514 *  0.0000     4          
   373  O     s      3.9590 *     2.5378 *    10.1514 *  0.0000     4          
   374  O     s      6.4969 *    -5.0757 *     7.6135 *  0.0000     4          
   375  O     s      6.4969 *     7.6135 *     5.0757 *  0.0000     4          
   376  Zr    s      2.6901 *    -6.3446 *     8.8824 *  0.0000     4          
   377  O     s    -11.2680 *    -0.0000       0.0000    0.0000     1          
   378  O     s     -8.7302 *     5.0757 *     5.0757    0.0000     2          
   379  O     s     -8.7302 *    -5.0757 *     5.0757    0.0000     2          
   380  Zr    s     -9.9991 *    -3.8068 *     3.8068    0.0000     2          
   381  O     s     -3.6545 *     7.6135 *     7.6135    0.0000     2          
   382  O     s     -3.6545 *    -7.6135 *     7.6135    0.0000     2          
   383  O     s     -1.1167 *   -10.1514 *     5.0757 *  0.0000     4          
   384  O     s     -1.1167 *     5.0757 *    10.1514 *  0.0000     4          
   385  O     s      1.4212 *     5.0757 *    10.1514 *  0.0000     4          
   386  O     s      1.4212 *    -5.0757 *    10.1514 *  0.0000     4          
   387  O     s      3.9590 *    -7.6135 *     7.6135    0.0000     2          
   388  O     s      3.9590 *     7.6135 *     7.6135    0.0000     2          
   389  Zr    s      0.1523 *    -1.2689 *    11.4203 *  0.0000     4          
   390  O     s      9.0347 *     5.0757 *     5.0757    0.0000     2          
   391  O     s      9.0347 *     5.0757 *    -5.0757    0.0000     2          
   392  O     s    -11.2680 *    -2.5378 *    -0.0000 *  0.0000     4          
   393  O     s     11.5726 *    -0.0000      -0.0000    0.0000     1          
   394  O     s     -8.7302 *    -7.6135 *     0.0000 *  0.0000     4          
   395  Zr    s     10.3036 *     3.8068 *    -3.8068    0.0000     2          
   396  Zr    s     -7.4613 *     6.3446 *     6.3446    0.0000     2          
   397  Zr    s     -7.4613 *    -8.8824 *     1.2689 *  0.0000     4          
   398  Zr    s     -2.3856 *     1.2689 *    11.4203 *  0.0000     4          
   399  Zr    s      2.6901 *    -1.2689 *   -11.4203 *  0.0000     4          
   400  O     s      9.0347 *     7.6135 *    -0.0000 *  0.0000     4          
   401  O     s    -11.2680 *     2.5378 *     2.5378    0.0000     2          
   402  O     s    -11.2680 *    -2.5378 *     2.5378    0.0000     2          
   403  O     s     11.5726 *     2.5378 *     0.0000 *  0.0000     4          
   404  O     s     -8.7302 *    -2.5378 *     7.6135 *  0.0000     4          
   405  O     s     -8.7302 *     2.5378 *     7.6135 *  0.0000     4          
   406  Zr    s      7.7658 *    -1.2689 *     8.8824 *  0.0000     4          
   407  Zr    s      7.7658 *     6.3446 *     6.3446    0.0000     2          
   408  O     s     -6.1923 *   -10.1514 *     0.0000 *  0.0000     4          
   409  Zr    s     -9.9991 *     1.2689 *    -6.3446 *  0.0000     4          
   410  O     s     -3.6545 *    10.1514 *     5.0757 *  0.0000     4          
   411  O     s     -3.6545 *    -5.0757 *    10.1514 *  0.0000     4          
   412  Zr    s     -4.9234 *     6.3446 *     8.8824 *  0.0000     4          
--------------------------------------------------------------------------------


  Constraints on symmetry reduced coordinates :

--------------------------------------------------------------------------------
  Constraint no.      Unconstrained     Constrained    Coefficient    
                         Variable         Variable
--------------------------------------------------------------------------------
           1                 2 y             2 z        -1.00000
           2                 5 y             5 z         1.00000
           3                 6 y             6 z         1.00000
           4                 8 y             8 z        -1.00000
           5                 9 y             9 z         1.00000
           6                10 y            10 z         1.00000
           7                11 y            11 z        -1.00000
           8                18 y            18 z         1.00000
           9                19 y            19 z        -1.00000
          10                21 y            21 z        -1.00000
          11                23 y            23 z        -1.00000
          12                24 y            24 z         1.00000
          13                25 y            25 z        -1.00000
          14                26 y            26 z        -1.00000
          15                31 y            31 z         1.00000
          16                32 y            32 z         1.00000
          17                48 y            48 z         1.00000
          18                49 y            49 z        -1.00000
          19                50 y            50 z        -1.00000
          20                51 y            51 z         1.00000
          21                52 y            52 z        -1.00000
          22                53 y            53 z         1.00000
          23                54 y            54 z        -1.00000
          24                56 y            56 z         1.00000
          25                57 y            57 z        -1.00000
          26                58 y            58 z        -1.00000
          27                59 y            59 z         1.00000
          28                64 y            64 z         1.00000
          29                66 y            66 z         1.00000
          30                67 y            67 z        -1.00000
          31                73 y            73 z        -1.00000
          32                74 y            74 z         1.00000
          33                91 y            91 z        -1.00000
          34                96 y            96 z         1.00000
          35               101 y           101 z         1.00000
          36               103 y           103 z         1.00000
          37               106 y           106 z         1.00000
          38               107 y           107 z        -1.00000
          39               108 y           108 z         1.00000
          40               109 y           109 z         1.00000
          41               110 y           110 z        -1.00000
          42               112 y           112 z         1.00000
          43               113 y           113 z        -1.00000
          44               114 y           114 z         1.00000
          45               115 y           115 z        -1.00000
          46               129 y           129 z        -1.00000
          47               131 y           131 z        -1.00000
          48               138 y           138 z        -1.00000
          49               141 y           141 z        -1.00000
          50               152 y           152 z        -1.00000
          51               153 y           153 z         1.00000
          52               155 y           155 z         1.00000
          53               156 y           156 z        -1.00000
          54               172 y           172 z         1.00000
          55               173 y           173 z        -1.00000
          56               174 y           174 z        -1.00000
          57               175 y           175 z         1.00000
          58               176 y           176 z        -1.00000
          59               181 y           181 z        -1.00000
          60               182 y           182 z         1.00000
          61               184 y           184 z         1.00000
          62               185 y           185 z        -1.00000
          63               189 y           189 z        -1.00000
          64               190 y           190 z         1.00000
          65               195 y           195 z         1.00000
          66               196 y           196 z        -1.00000
          67               201 y           201 z         1.00000
          68               208 y           208 z        -1.00000
          69               211 y           211 z         1.00000
          70               212 y           212 z         1.00000
          71               214 y           214 z        -1.00000
          72               215 y           215 z         1.00000
          73               216 y           216 z         1.00000
          74               217 y           217 z        -1.00000
          75               224 y           224 z         1.00000
          76               225 y           225 z        -1.00000
          77               227 y           227 z        -1.00000
          78               229 y           229 z        -1.00000
          79               230 y           230 z         1.00000
          80               231 y           231 z        -1.00000
          81               232 y           232 z        -1.00000
          82               237 y           237 z         1.00000
          83               238 y           238 z         1.00000
          84               254 y           254 z         1.00000
          85               255 y           255 z        -1.00000
          86               256 y           256 z        -1.00000
          87               257 y           257 z         1.00000
          88               258 y           258 z        -1.00000
          89               259 y           259 z         1.00000
          90               260 y           260 z        -1.00000
          91               262 y           262 z         1.00000
          92               263 y           263 z        -1.00000
          93               264 y           264 z        -1.00000
          94               265 y           265 z         1.00000
          95               270 y           270 z         1.00000
          96               272 y           272 z         1.00000
          97               273 y           273 z        -1.00000
          98               279 y           279 z        -1.00000
          99               280 y           280 z         1.00000
         100               297 y           297 z        -1.00000
         101               302 y           302 z         1.00000
         102               307 y           307 z         1.00000
         103               309 y           309 z         1.00000
         104               312 y           312 z         1.00000
         105               313 y           313 z        -1.00000
         106               314 y           314 z         1.00000
         107               315 y           315 z         1.00000
         108               316 y           316 z        -1.00000
         109               318 y           318 z         1.00000
         110               319 y           319 z        -1.00000
         111               320 y           320 z         1.00000
         112               321 y           321 z        -1.00000
         113               335 y           335 z        -1.00000
         114               337 y           337 z        -1.00000
         115               344 y           344 z        -1.00000
         116               347 y           347 z        -1.00000
         117               358 y           358 z        -1.00000
         118               359 y           359 z         1.00000
         119               361 y           361 z         1.00000
         120               362 y           362 z        -1.00000
         121               378 y           378 z         1.00000
         122               379 y           379 z        -1.00000
         123               380 y           380 z        -1.00000
         124               381 y           381 z         1.00000
         125               382 y           382 z        -1.00000
         126               387 y           387 z        -1.00000
         127               388 y           388 z         1.00000
         128               390 y           390 z         1.00000
         129               391 y           391 z        -1.00000
         130               395 y           395 z        -1.00000
         131               396 y           396 z         1.00000
         132               401 y           401 z         1.00000
         133               402 y           402 z        -1.00000
         134               407 y           407 z         1.00000
--------------------------------------------------------------------------------


  Components of defect energy : 

--------------------------------------------------------------------------------
  Region 1 - region 1                   =     39.95453698 eV
  Region 1 - region 2a (unrelaxed)      =     -8.88623939 eV
  Region 1 - 2a (relaxed - correction)  =     -2.31754471 eV
  Region 1 (Total)                      =     28.75075288 eV
  Region 2a                             =      1.15879842 eV
  Region 2b                             =     -1.15502435 eV
--------------------------------------------------------------------------------
  Total defect energy                   =     28.75452696 eV
--------------------------------------------------------------------------------

  Largest displacement in region 2 =   0.0050 Angstroms


  Number of variables =     1064

  Maximum number of calculations  =        1000
  Maximum Hessian update interval =          10
  Maximum step size               =   1.0000000
  Maximum parameter tolerance     =   0.0000100
  Maximum function  tolerance     =   0.0000100
  Maximum gradient  tolerance     =   0.0010000

  Symmetry adapted optimisation

  Symmetry to be used for second derivatives

  Newton-Raphson optimiser to be used

  BFGS hessian update to be used

  Lower half triangular hessian to be used

  Start of defect optimisation :

  Cycle:      0 Defect Energy:  28.754527  Gnorm:     0.083969  CPU:    4.850
  ** Hessian calculated **
  Cycle:      1 Defect Energy:  20.985817  Gnorm:     0.032114  CPU:   14.734
  Cycle:      2 Defect Energy:  16.967177  Gnorm:     0.016822  CPU:   23.343
  Cycle:      3 Defect Energy:  16.484483  Gnorm:     0.012866  CPU:   29.131
  Cycle:      4 Defect Energy:  15.914644  Gnorm:     0.008309  CPU:   37.733
  Cycle:      5 Defect Energy:  15.544457  Gnorm:     0.006685  CPU:   44.923
  Cycle:      6 Defect Energy:  15.395834  Gnorm:     0.007087  CPU:   52.115
  Cycle:      7 Defect Energy:  15.262680  Gnorm:     0.005175  CPU:   59.318
  Cycle:      8 Defect Energy:  15.140763  Gnorm:     0.004268  CPU:   66.503
  Cycle:      9 Defect Energy:  15.054293  Gnorm:     0.004026  CPU:   73.677
  Cycle:     10 Defect Energy:  14.965353  Gnorm:     0.003402  CPU:   80.878
  ** Hessian calculated **
  Cycle:     11 Defect Energy:  14.920520  Gnorm:     0.003185  CPU:   88.098
  Cycle:     12 Defect Energy:  14.859088  Gnorm:     0.002860  CPU:   89.650
  Cycle:     13 Defect Energy:  14.780328  Gnorm:     0.002383  CPU:   91.197
  Cycle:     14 Defect Energy:  14.690908  Gnorm:     0.001712  CPU:   92.742
  Cycle:     15 Defect Energy:  14.648496  Gnorm:     0.001259  CPU:   94.300
  Cycle:     16 Defect Energy:  14.628704  Gnorm:     0.000919  CPU:   95.846
  Cycle:     17 Defect Energy:  14.619163  Gnorm:     0.000673  CPU:   97.398
  Cycle:     18 Defect Energy:  14.614671  Gnorm:     0.000487  CPU:   98.945
  Cycle:     19 Defect Energy:  14.612477  Gnorm:     0.000354  CPU:  100.489
  Cycle:     20 Defect Energy:  14.611437  Gnorm:     0.000252  CPU:  102.032
  ** Hessian calculated **
  Cycle:     21 Defect Energy:  14.610912  Gnorm:     0.000178  CPU:  109.261
  Cycle:     22 Defect Energy:  14.610663  Gnorm:     0.000126  CPU:  110.804
  Cycle:     23 Defect Energy:  14.610546  Gnorm:     0.000089  CPU:  112.349
  Cycle:     24 Defect Energy:  14.610492  Gnorm:     0.000063  CPU:  113.893
  Cycle:     25 Defect Energy:  14.610468  Gnorm:     0.000044  CPU:  115.435


  **** Optimisation achieved ****


  Final defect energy  =       14.61045868
  Final defect Gnorm   =        0.00003088

  Components of defect energy : 

--------------------------------------------------------------------------------
  Region 1 - region 1                   =     32.96435566 eV
  Region 1 - region 2a (unrelaxed)      =    -16.16913500 eV
  Region 1 - 2a (relaxed - correction)  =     -2.05947787 eV
  Region 1 (Total)                      =     14.73574278 eV
  Region 2a                             =      1.02966769 eV
  Region 2b                             =     -1.15495179 eV
--------------------------------------------------------------------------------
  Total defect energy                   =     14.61045868 eV
--------------------------------------------------------------------------------

  Largest displacement in region 2 =   0.0050 Angstroms

  Final coordinates of region 1 :

--------------------------------------------------------------------------------
   No.  Atomic        x           y           z          Radius      Charge
        Label       (Angs)      (Angs)      (Angs)       (Angs)       (e) 
--------------------------------------------------------------------------------
     1  O     c     2.385571    1.268921    1.268921    0.000000    0.077000
     2  Zr    c     2.520177    2.576726   -0.038884    0.000000    2.650000
     3  Zr    c     2.520177   -0.038884    2.576726    0.000000    2.650000
     4  O     c     1.199957    1.229403    3.731752    0.000000    0.077000
     5  O     c     1.199957    3.731752    1.229403    0.000000    0.077000
     6  O     c     1.199957   -1.193910    1.308438    0.000000    0.077000
     7  O     c     1.199957    1.308438   -1.193910    0.000000    0.077000
     8  O     c     3.827213    3.701493    1.257398    0.000000    0.077000
     9  O     c     3.827213    1.280444   -1.163652    0.000000    0.077000
    10  O     c     3.827213   -1.163652    1.280444    0.000000    0.077000
    11  O     c     3.827213    1.257398    3.701493    0.000000    0.077000
    12  Zr    c    -0.047889   -0.043854   -0.043854    0.000000    2.650000
    13  Zr    c    -0.047889    2.581696    2.581696    0.000000    2.650000
    14  Zr    c     5.118081    2.580845    2.580845    0.000000    2.650000
    15  Zr    c     5.118081   -0.043003   -0.043003    0.000000    2.650000
    16  O     c    -0.599340    1.268921    1.268921    0.000000    0.077000
    17  O     c     1.286099   -1.314027    3.851868    0.000000    0.077000
    18  O     c     1.286099    3.851868   -1.314027    0.000000    0.077000
    19  O     c     1.294735    3.804302    3.804302    0.000000    0.077000
    20  O     c     1.294735   -1.266460   -1.266460    0.000000    0.077000
    21  O     c     3.811585    3.830245    3.830245    0.000000    0.077000
    22  O     c     3.811585   -1.292404   -1.292404    0.000000    0.077000
    23  O     c     3.819804   -1.304249    3.842091    0.000000    0.077000
    24  O     c     3.819804    3.842091   -1.304249    0.000000    0.077000
    25  O     c     5.487226    1.268921    1.268921    0.000000    0.077000
    26  Zr    c     2.537199    5.097786    2.566139    0.000000    2.650000
    27  Zr    c     2.537199    2.566139    5.097786    0.000000    2.650000
    28  Zr    c     2.537199   -0.028297   -2.559944    0.000000    2.650000
    29  Zr    c     2.537199   -2.559944   -0.028297    0.000000    2.650000
    30  O     c    -1.373833    1.321369    3.769256    0.000000    0.077000
    31  O     c    -1.373833    3.769256    1.321369    0.000000    0.077000
    32  O     c    -1.373833   -1.231414    1.216473    0.000000    0.077000
    33  O     c    -1.373833    1.216473   -1.231414    0.000000    0.077000
    34  Zr    c    -0.007602   -2.556483    2.556086    0.000000    2.650000
    35  Zr    c    -0.007602    2.556086   -2.556483    0.000000    2.650000
    36  Zr    c    -0.007602   -0.018244    5.094325    0.000000    2.650000
    37  Zr    c    -0.007602    5.094325   -0.018244    0.000000    2.650000
    38  O     c     6.430445    3.753031    1.316025    0.000000    0.077000
    39  O     c     6.430445    1.316025    3.753031    0.000000    0.077000
    40  O     c     6.430445    1.221817   -1.215189    0.000000    0.077000
    41  O     c     6.430445   -1.215189    1.221817    0.000000    0.077000
    42  Zr    c     5.081485    5.096066   -0.024035    0.000000    2.650000
    43  Zr    c     5.081485    2.561876   -2.558224    0.000000    2.650000
    44  Zr    c     5.081485   -2.558224    2.561876    0.000000    2.650000
    45  Zr    c     5.081485   -0.024035    5.096066    0.000000    2.650000
    46  O     c    -1.231063    3.841105    3.841105    0.000000    0.077000
    47  O     c    -1.231063   -1.303263   -1.303263    0.000000    0.077000
    48  O     c    -1.239504    3.783375   -1.245533    0.000000    0.077000
    49  O     c    -1.239504   -1.245533    3.783375    0.000000    0.077000
    50  O     c     1.287015   -3.754292    1.261738    0.000000    0.077000
    51  O     c     1.287015    1.261738   -3.754292    0.000000    0.077000
    52  O     c     1.287015    1.276104    6.292134    0.000000    0.077000
    53  O     c     1.287015    6.292134    1.276104    0.000000    0.077000
    54  Zr    c    -2.568853   -0.035578    2.573420    0.000000    2.650000
    55  Zr    c    -2.568853    2.573420   -0.035578    0.000000    2.650000
    56  O     c     3.814301    1.271489    6.269987    0.000000    0.077000
    57  O     c     3.814301    6.269987    1.271489    0.000000    0.077000
    58  O     c     3.814301   -3.732145    1.266353    0.000000    0.077000
    59  O     c     3.814301    1.266353   -3.732145    0.000000    0.077000
    60  O     c     6.341211    3.793252   -1.255410    0.000000    0.077000
    61  O     c     6.341211   -1.255410    3.793252    0.000000    0.077000
    62  O     c     6.340389    3.843974    3.843974    0.000000    0.077000
    63  O     c     6.340389   -1.306132   -1.306132    0.000000    0.077000
    64  Zr    c     2.536602   -2.560644    5.098486    0.000000    2.650000
    65  Zr    c     2.536602    5.098486   -2.560644    0.000000    2.650000
    66  Zr    c     7.657180    2.581203   -0.043361    0.000000    2.650000
    67  Zr    c     7.657180   -0.043361    2.581203    0.000000    2.650000
    68  O     c     1.267732    3.802893    6.334059    0.000000    0.077000
    69  O     c     1.267732    6.334059    3.802893    0.000000    0.077000
    70  O     c     1.267732   -3.796217   -1.265052    0.000000    0.077000
    71  O     c     1.267732   -1.265052   -3.796217    0.000000    0.077000
    72  O     c     1.259491   -1.254763    6.370041    0.000000    0.077000
    73  O     c     1.259491    6.370041   -1.254763    0.000000    0.077000
    74  O     c     1.259491   -3.832199    3.792604    0.000000    0.077000
    75  O     c     1.259491    3.792604   -3.832199    0.000000    0.077000
    76  O     c     3.805615    3.793822   -3.823578    0.000000    0.077000
    77  O     c     3.805615    6.361420   -1.255980    0.000000    0.077000
    78  O     c     3.805615   -3.823578    3.793822    0.000000    0.077000
    79  O     c     3.805615   -1.255980    6.361420    0.000000    0.077000
    80  O     c     3.794766    6.353011    3.796116    0.000000    0.077000
    81  O     c     3.794766    3.796116    6.353011    0.000000    0.077000
    82  O     c     3.794766   -1.258274   -3.815170    0.000000    0.077000
    83  O     c     3.794766   -3.815170   -1.258274    0.000000    0.077000
    84  Zr    c    -0.010050    5.097187    5.097187    0.000000    2.650000
[...]
    332 y          0.000000     -0.000883    -0.000883    Cartesian *******
    332 z         -5.075684     -5.082065    -0.006381    Cartesian    0.13
    333 x         -3.806763     -3.799880     0.006882    Cartesian   -0.18
    333 y         -1.268921     -1.270359    -0.001438    Cartesian    0.11
    333 z         -6.344605     -6.340382     0.004223    Cartesian   -0.07
    334 x         -3.806763     -3.801321     0.005442    Cartesian   -0.14
    334 y          3.806763      3.805397    -0.001365    Cartesian   -0.04
    334 z         -6.344605     -6.349415    -0.004811    Cartesian    0.08
    335 x         -7.613525     -7.613244     0.000282    Cartesian   -0.00
    335 y         -0.000000     -0.010921    -0.010921    Cartesian *******
    335 z          2.537842      2.548763     0.010921    Cartesian    0.43
    336 x          1.268921      1.272008     0.003087    Cartesian    0.24
    336 y          1.268921      1.269207     0.000287    Cartesian    0.02
    336 z         11.420288     11.405805    -0.014483    Cartesian   -0.13
    337 x         -2.537842     -2.538769    -0.000927    Cartesian    0.04
    337 y          7.613525      7.618493     0.004967    Cartesian    0.07
    337 z         -5.075684     -5.080651    -0.004967    Cartesian    0.10
    338 x         -2.537842     -2.537840     0.000002    Cartesian   -0.00
    338 y          2.537842      2.537932     0.000090    Cartesian    0.00
    338 z         10.151367     10.154161     0.002793    Cartesian    0.03
    339 x          3.806763      3.808832     0.002069    Cartesian    0.05
    339 y          1.268921      1.268700    -0.000221    Cartesian   -0.02
    339 z         11.420288     11.399747    -0.020541    Cartesian   -0.18
    340 x          8.882446      8.882932     0.000486    Cartesian    0.01
    340 y          8.882446      8.887106     0.004659    Cartesian    0.05
    340 z         -1.268921     -1.268019     0.000902    Cartesian   -0.07
    341 x          8.882446      8.886013     0.003566    Cartesian    0.04
    341 y          8.882446      8.875531    -0.006915    Cartesian   -0.08
    341 z          3.806763      3.808082     0.001319    Cartesian    0.03
    342 x         11.420288     11.417228    -0.003060    Cartesian   -0.03
    342 y          6.344605      6.340768    -0.003837    Cartesian   -0.06
    342 z          1.268921      1.262733    -0.006188    Cartesian   -0.49
    343 x          7.613525      7.613168    -0.000358    Cartesian   -0.00
    343 y         10.151367     10.155536     0.004169    Cartesian    0.04
    343 z          2.537842      2.537850     0.000008    Cartesian    0.00
    344 x          7.613525      7.613262    -0.000263    Cartesian   -0.00
    344 y         -5.075684     -5.082463    -0.006779    Cartesian    0.13
    344 z          7.613525      7.620305     0.006779    Cartesian    0.09
    345 x         -6.344605     -6.347657    -0.003053    Cartesian    0.05
    345 y         -3.806763     -3.807335    -0.000573    Cartesian    0.02
    345 z         -1.268921     -1.272223    -0.003302    Cartesian    0.26
    346 x         -6.344605     -6.351575    -0.006970    Cartesian    0.11
    346 y         -3.806763     -3.801187     0.005575    Cartesian   -0.15
    346 z          3.806763      3.808910     0.002148    Cartesian    0.06
    347 x         12.689209     12.690874     0.001665    Cartesian    0.01
    347 y          2.537842      2.552394     0.014552    Cartesian    0.57
    347 z          0.000000     -0.014552    -0.014552    Cartesian *******
    348 x         -5.075684     -5.080498    -0.004815    Cartesian    0.09
    348 y          5.075684      5.075617    -0.000067    Cartesian   -0.00
    348 z         -5.075684     -5.080712    -0.005028    Cartesian    0.10
    349 x          1.268921      1.267983    -0.000938    Cartesian   -0.07
    349 y         11.420288     11.426148     0.005860    Cartesian    0.05
    349 z         -1.268921     -1.267352     0.001569    Cartesian   -0.12
    350 x          1.268921      1.271714     0.002793    Cartesian    0.22
    350 y          3.806763      3.805417    -0.001346    Cartesian   -0.04
    350 z         11.420288     11.415149    -0.005139    Cartesian   -0.05
    351 x          3.806763      3.807532     0.000769    Cartesian    0.02
    351 y         -1.268921     -1.267175     0.001746    Cartesian   -0.14
    351 z         11.420288     11.423718     0.003430    Cartesian    0.03
    352 x          3.806763      3.804309    -0.002454    Cartesian   -0.06
    352 y          3.806763      3.804931    -0.001832    Cartesian   -0.05
    352 z         11.420288     11.421681     0.001393    Cartesian    0.01
    353 x         11.420288     11.416822    -0.003466    Cartesian   -0.03
    353 y          6.344605      6.347975     0.003371    Cartesian    0.05
    353 z          3.806763      3.807817     0.001054    Cartesian    0.03
    354 x         11.420288     11.421931     0.001643    Cartesian    0.01
    354 y          6.344605      6.340615    -0.003990    Cartesian   -0.06
    354 z         -1.268921     -1.267799     0.001122    Cartesian   -0.09
    355 x         10.151367     10.155242     0.003875    Cartesian    0.04
    355 y          5.075684      5.077549     0.001866    Cartesian    0.04
    355 z         -5.075684     -5.083181    -0.007498    Cartesian    0.15
    356 x         -7.613525     -7.621706    -0.008181    Cartesian    0.11
    356 y         -0.000000      0.002593     0.002593    Cartesian *******
    356 z         -2.537842     -2.537853    -0.000011    Cartesian    0.00
    357 x         -1.268921     -1.266712     0.002208    Cartesian   -0.17
    357 y         11.420288     11.414415    -0.005873    Cartesian   -0.05
    357 z          1.268921      1.267398    -0.001523    Cartesian   -0.12
    358 x          1.268921      1.273891     0.004970    Cartesian    0.39
    358 y         -6.344605     -6.342906     0.001699    Cartesian   -0.03
    358 z          8.882446      8.880748    -0.001699    Cartesian   -0.02
    359 x          1.268921      1.267211    -0.001710    Cartesian   -0.13
    359 y          8.882446      8.880665    -0.001781    Cartesian   -0.02
    359 z          8.882446      8.880665    -0.001781    Cartesian   -0.02
    360 x         -2.537842     -2.541332    -0.003491    Cartesian    0.14
    360 y         -7.613525     -7.617856    -0.004331    Cartesian    0.06
    360 z          5.075684      5.077365     0.001681    Cartesian    0.03
    361 x          3.806763      3.809067     0.002305    Cartesian    0.06
    361 y          8.882446      8.880632    -0.001815    Cartesian   -0.02
    361 z          8.882446      8.880632    -0.001815    Cartesian   -0.02
    362 x          3.806763      3.804385    -0.002378    Cartesian   -0.06
    362 y         -6.344605     -6.343241     0.001364    Cartesian   -0.02
    362 z          8.882446      8.881083    -0.001364    Cartesian   -0.02
    363 x          6.344605      6.346843     0.002238    Cartesian    0.04
    363 y         11.420288     11.409771    -0.010517    Cartesian   -0.09
    363 z          1.268921      1.266038    -0.002883    Cartesian   -0.23
    364 x          2.537842      2.537123    -0.000719    Cartesian   -0.03
    364 y         10.151367     10.158120     0.006753    Cartesian    0.07
    364 z          7.613525      7.616804     0.003279    Cartesian    0.04
    365 x          7.613525      7.616720     0.003194    Cartesian    0.04
    365 y         -2.537842     -2.539775    -0.001933    Cartesian    0.08
    365 z         10.151367     10.157192     0.005824    Cartesian    0.06
    366 x         -3.806763     -3.805986     0.000777    Cartesian   -0.02
    366 y         -3.806763     -3.805705     0.001058    Cartesian   -0.03
    366 z          8.882446      8.879074    -0.003373    Cartesian   -0.04
    367 x         -3.806763     -3.806599     0.000164    Cartesian   -0.00
    367 y          6.344605      6.342092    -0.002513    Cartesian   -0.04
    367 z          8.882446      8.883084     0.000638    Cartesian    0.01
    368 x         12.689209     12.702212     0.013003    Cartesian    0.10
    368 y          5.075684      5.077124     0.001440    Cartesian    0.03
    368 z          2.537842      2.536070    -0.001772    Cartesian   -0.07
    369 x         -1.268921     -1.267659     0.001262    Cartesian   -0.10
    369 y         -8.882446     -8.872996     0.009451    Cartesian   -0.11
    369 z          3.806763      3.804187    -0.002576    Cartesian   -0.07
    370 x         -1.268921     -1.267704     0.001217    Cartesian   -0.10
    370 y          3.806763      3.805612    -0.001151    Cartesian   -0.03
    370 z         11.420288     11.424364     0.004076    Cartesian    0.04
    371 x          0.000000     -0.001561    -0.001561    Cartesian *******
    371 y         -7.613525     -7.619751    -0.006226    Cartesian    0.08
    371 z          7.613525      7.616918     0.003393    Cartesian    0.04
    372 x          6.344605      6.342297    -0.002307    Cartesian   -0.04
    372 y         -1.268921     -1.267644     0.001277    Cartesian   -0.10
    372 z         11.420288     11.410154    -0.010134    Cartesian   -0.09
    373 x          6.344605      6.342529    -0.002075    Cartesian   -0.03
    373 y          3.806763      3.803830    -0.002933    Cartesian   -0.08
    373 z         11.420288     11.421446     0.001158    Cartesian    0.01
    374 x          8.882446      8.882104    -0.000342    Cartesian   -0.00
    374 y         -3.806763     -3.805666     0.001097    Cartesian   -0.03
    374 z          8.882446      8.878095    -0.004351    Cartesian   -0.05
    375 x          8.882446      8.878025    -0.004422    Cartesian   -0.05
    375 y          8.882446      8.879031    -0.003415    Cartesian   -0.04
    375 z          6.344605      6.342043    -0.002562    Cartesian   -0.04
    376 x          5.075684      5.077001     0.001318    Cartesian    0.03
    376 y         -5.075684     -5.079714    -0.004030    Cartesian    0.08
    376 z         10.151367     10.159344     0.007976    Cartesian    0.08
    377 x         -8.882446     -8.796859     0.085587    Cartesian   -0.96
    377 y          1.268921      1.268921     0.000000    Cartesian    0.00
    377 z          1.268921      1.268921     0.000000    Cartesian    0.00
    378 x         -6.344605     -6.336421     0.008183    Cartesian   -0.13
    378 y          6.344605      6.340998    -0.003606    Cartesian   -0.06
    378 z          6.344605      6.340998    -0.003606    Cartesian   -0.06
    379 x         -6.344605     -6.343041     0.001563    Cartesian   -0.02
    379 y         -3.806763     -3.806495     0.000268    Cartesian   -0.01
    379 z          6.344605      6.344336    -0.000268    Cartesian   -0.00
    380 x         -7.613525     -7.618386    -0.004861    Cartesian    0.06
    380 y         -2.537842     -2.545148    -0.007306    Cartesian    0.29
    380 z          5.075684      5.082990     0.007306    Cartesian    0.14
    381 x         -1.268921     -1.264729     0.004192    Cartesian   -0.33
    381 y          8.882446      8.881000    -0.001447    Cartesian   -0.02
    381 z          8.882446      8.881000    -0.001447    Cartesian   -0.02
    382 x         -1.268921     -1.268247     0.000674    Cartesian   -0.05
    382 y         -6.344605     -6.341604     0.003001    Cartesian   -0.05
    382 z          8.882446      8.879446    -0.003001    Cartesian   -0.03
    383 x          1.268921      1.270806     0.001885    Cartesian    0.15
    383 y         -8.882446     -8.875245     0.007201    Cartesian   -0.08
    383 z          6.344605      6.342752    -0.001852    Cartesian   -0.03
    384 x          1.268921      1.269248     0.000328    Cartesian    0.03
    384 y          6.344605      6.343877    -0.000728    Cartesian   -0.01
    384 z         11.420288     11.416488    -0.003801    Cartesian   -0.03
    385 x          3.806763      3.805582    -0.001181    Cartesian   -0.03
    385 y          6.344605      6.341967    -0.002637    Cartesian   -0.04
    385 z         11.420288     11.411960    -0.008328    Cartesian   -0.07
    386 x          3.806763      3.807201     0.000438    Cartesian    0.01
    386 y         -3.806763     -3.805295     0.001468    Cartesian   -0.04
    386 z         11.420288     11.412618    -0.007670    Cartesian   -0.07
    387 x          6.344605      6.346160     0.001556    Cartesian    0.02
    387 y         -6.344605     -6.341301     0.003304    Cartesian   -0.05
    387 z          8.882446      8.879142    -0.003304    Cartesian   -0.04
    388 x          6.344605      6.339551    -0.005054    Cartesian   -0.08
    388 y          8.882446      8.874657    -0.007789    Cartesian   -0.09
    388 z          8.882446      8.874657    -0.007789    Cartesian   -0.09
    389 x          2.537842      2.537043    -0.000799    Cartesian   -0.03
    389 y         -0.000000     -0.004089    -0.004089    Cartesian *******
    389 z         12.689209     12.697038     0.007829    Cartesian    0.06
    390 x         11.420288     11.414223    -0.006065    Cartesian   -0.05
    390 y          6.344605      6.338386    -0.006218    Cartesian   -0.10
    390 z          6.344605      6.338386    -0.006218    Cartesian   -0.10
    391 x         11.420288     11.424103     0.003815    Cartesian    0.03
    391 y          6.344605      6.342905    -0.001699    Cartesian   -0.03
    391 z         -3.806763     -3.805064     0.001699    Cartesian   -0.04
    392 x         -8.882446     -8.910419    -0.027973    Cartesian    0.31
    392 y         -1.268921     -1.262685     0.006236    Cartesian   -0.49
    392 z          1.268921      1.273626     0.004705    Cartesian    0.37
    393 x         13.958130     13.859447    -0.098683    Cartesian   -0.71
    393 y          1.268921      1.268921     0.000000    Cartesian    0.00
    393 z          1.268921      1.268921     0.000000    Cartesian    0.00
    394 x         -6.344605     -6.345607    -0.001003    Cartesian    0.02
    394 y         -6.344605     -6.342235     0.002369    Cartesian   -0.04
    394 z          1.268921      1.267375    -0.001546    Cartesian   -0.12
    395 x         12.689209     12.700348     0.011139    Cartesian    0.09
    395 y          5.075684      5.085657     0.009973    Cartesian    0.20
    395 z         -2.537842     -2.547815    -0.009973    Cartesian    0.39
    396 x         -5.075684     -5.080119    -0.004435    Cartesian    0.09
    396 y          7.613525      7.620419     0.006894    Cartesian    0.09
    396 z          7.613525      7.620419     0.006894    Cartesian    0.09
    397 x         -5.075684     -5.079841    -0.004157    Cartesian    0.08
    397 y         -7.613525     -7.620029    -0.006503    Cartesian    0.09
    397 z          2.537842      2.538490     0.000648    Cartesian    0.03
    398 x          0.000000     -0.002840    -0.002840    Cartesian *******
    398 y          2.537842      2.540535     0.002693    Cartesian    0.11
    398 z         12.689209     12.698217     0.009008    Cartesian    0.07
    399 x          5.075684      5.077758     0.002074    Cartesian    0.04
    399 y          0.000000     -0.003494    -0.003494    Cartesian *******
    399 z        -10.151367    -10.160946    -0.009578    Cartesian    0.09
    400 x         11.420288     11.411946    -0.008342    Cartesian   -0.07
    400 y          8.882446      8.874843    -0.007603    Cartesian   -0.09
    400 z          1.268921      1.272303     0.003382    Cartesian    0.27
    401 x         -8.882446     -8.860685     0.021761    Cartesian   -0.24
    401 y          3.806763      3.805295    -0.001468    Cartesian   -0.04
    401 z          3.806763      3.805295    -0.001468    Cartesian   -0.04
    402 x         -8.882446     -8.855704     0.026743    Cartesian   -0.30
    402 y         -1.268921     -1.268731     0.000190    Cartesian   -0.01
    402 z          3.806763      3.806573    -0.000190    Cartesian   -0.00
    403 x         13.958130     13.978667     0.020537    Cartesian    0.15
    403 y          3.806763      3.798703    -0.008060    Cartesian   -0.21
    403 z          1.268921      1.264049    -0.004872    Cartesian   -0.38
    404 x         -6.344605     -6.341456     0.003148    Cartesian   -0.05
    404 y         -1.268921     -1.269076    -0.000155    Cartesian    0.01
    404 z          8.882446      8.878151    -0.004295    Cartesian   -0.05
    405 x         -6.344605     -6.333614     0.010990    Cartesian   -0.17
    405 y          3.806763      3.801881    -0.004881    Cartesian   -0.13
    405 z          8.882446      8.876136    -0.006311    Cartesian   -0.07
    406 x         10.151367     10.156588     0.005221    Cartesian    0.05
    406 y          0.000000     -0.002151    -0.002151    Cartesian    0.00
    406 z         10.151367     10.161379     0.010012    Cartesian    0.10
    407 x         10.151367     10.157342     0.005975    Cartesian    0.06
    407 y          7.613525      7.621799     0.008273    Cartesian    0.11
    407 z          7.613525      7.621799     0.008273    Cartesian    0.11
    408 x         -3.806763     -3.802673     0.004090    Cartesian   -0.11
    408 y         -8.882446     -8.872352     0.010094    Cartesian   -0.11
    408 z          1.268921      1.268930     0.000009    Cartesian    0.00
    409 x         -7.613525     -7.623254    -0.009728    Cartesian    0.13
    409 y          2.537842      2.539680     0.001838    Cartesian    0.07
    409 z         -5.075684     -5.081855    -0.006171    Cartesian    0.12
    410 x         -1.268921     -1.266723     0.002197    Cartesian   -0.17
    410 y         11.420288     11.410645    -0.009643    Cartesian   -0.08
    410 z          6.344605      6.341789    -0.002816    Cartesian   -0.04
    411 x         -1.268921     -1.266094     0.002827    Cartesian   -0.22
    411 y         -3.806763     -3.804030     0.002733    Cartesian   -0.07
    411 z         11.420288     11.414080    -0.006208    Cartesian   -0.05
    412 x         -2.537842     -2.542186    -0.004344    Cartesian    0.17
    412 y          7.613525      7.618589     0.005064    Cartesian    0.07
    412 z         10.151367     10.159455     0.008088    Cartesian    0.08
--------------------------------------------------------------------------------


  Time to end of optimisation  =      117.0077 seconds


  Peak dynamic memory used =     401.95 MB 


  Timing analysis for GULP :

--------------------------------------------------------------------------------
  Task / Subroutine                                          Time (Seconds)
--------------------------------------------------------------------------------
  Calculation of reciprocal space energy and derivatives          0.0002
  Calculation of reciprocal space energy using symmetry           0.0002
  Calculation of real space energy and derivatives                0.0019
  Calculation of real space energy using symmetry                 0.0069
  Calculation for region 1 energy and derivatives (2-b)          29.9895
  Calculation for region 2a energy                               74.4697
  Calculation for region 2b energy                                0.0105
  Calculation and manipulation of Hessian matrix                 11.2678
  Calculation of matrix inversion                                 0.8388
  Symmetry generation of equivalent positions                     0.0015
--------------------------------------------------------------------------------
  Total CPU time                                                117.0077
--------------------------------------------------------------------------------


  Dump file written as ZrO2.grs


  Job Finished at 12:30.41 14th October    2020                               

