********************************************************************************
*                       GENERAL UTILITY LATTICE PROGRAM                        *
*                                 Julian Gale                                  *
*                       Curtin Institute for Computation                       *
*                    School of Molecular and Life Sciences                     *
*                    Curtin University, Western Australia                      *
********************************************************************************
* Version = 5.2.0 * Last modified =  10th September 2020                       *
********************************************************************************
* Zirconia doped with calcium                                                  *
*  optimise     - perform optimisation run                                     *
*  conp         - constant pressure calculation                                *
*  property     - calculate properties for final geometry                      *
*  defect       - perform defect calculation after bulk run                    *
*  distance     - calculate distances                                          *
*  compare      - compare initial and final structures                         *
********************************************************************************
* Zirconia doped with calcium                                                  *
********************************************************************************


  Job Started  at 12:32.37 14th October    2020                               

  Number of CPUs =     1


  Total number of configurations input =      1

********************************************************************************
*  Input for Configuration =   1 : ZrO2                                        *
********************************************************************************

  Formula = ZrO2                                                        

  Number of irreducible atoms/shells =       4


  Total number atoms/shells =       6

  Dimensionality = 3               :  Bulk   


  Symmetry :

  Crystal family                   :  Cubic       
  Crystal class  (Groth - 1921)    :  Cubic Hexakisoctahedral              

  Space group (centrosymmetric)    :  F M 3 M         

  Patterson group                  :  F m -3 m 

  Cartesian lattice vectors (Angstroms) :

        0.000000    2.535000    2.535000
        2.535000    0.000000    2.535000
        2.535000    2.535000    0.000000

  Primitive cell parameters :            Full cell parameters :

  a =   3.5850    alpha =  60.0000       a =   5.0700    alpha =  90.0000
  b =   3.5850    beta  =  60.0000       b =   5.0700    beta  =  90.0000
  c =   3.5850    gamma =  60.0000       c =   5.0700    gamma =  90.0000

  Initial volumes (Angstroms**3):

  Primitive cell =          32.580961    Full cell =         130.323843

  Temperature of configuration =   0.00     K 

  Pressure of configuration =         0.000 GPa 

  Fractional coordinates of asymmetric unit :

--------------------------------------------------------------------------------
   No.  Atomic       x           y          z         Charge      Occupancy
        Label      (Frac)      (Frac)     (Frac)        (e)         (Frac)  
--------------------------------------------------------------------------------
      1 Zr    c    0.000000    0.000000    0.000000     2.65000    1.000000    
      2 O     c    0.250000    0.250000    0.250000     0.07700    1.000000    
      3 Zr    s    0.000000    0.000000    0.000000     1.35000    1.000000    
      4 O     s    0.250000    0.250000    0.250000    -2.07700    1.000000    
--------------------------------------------------------------------------------


  Constraints : 

--------------------------------------------------------------------------------
  Constraint no.      Unconstrained     Constrained    Coefficient    Offset
                         Variable         Variable
--------------------------------------------------------------------------------
           1              Strain 1        Strain 2       1.00000      0.0000
           2              Strain 1        Strain 3       1.00000      0.0000
--------------------------------------------------------------------------------


  Distance calculation :


  Cutoff for distances  =      4.000000 Angstroms

--------------------------------------------------------------------------------
  Asymmetric unit site  Full lattice sites    No.  Distance      No.  Distance
      No.   At.No.            At.No.                (Angs)             (Angs) 
--------------------------------------------------------------------------------
       1   Zr    core        Zr    core        12    3.5850
                             Zr    shell       12    3.5850
                             O     core         8    2.1954
                             O     shell        8    2.1954
--------------------------------------------------------------------------------
       2   O     core        Zr    core         4    2.1954
                             Zr    shell        4    2.1954
                             O     core         6    2.5350       12    3.5850
                             O     shell        6    2.5350       12    3.5850
--------------------------------------------------------------------------------
       3   Zr    shell       Zr    core        12    3.5850
                             Zr    shell       12    3.5850
                             O     core         8    2.1954
                             O     shell        8    2.1954
--------------------------------------------------------------------------------
       4   O     shell       Zr    core         4    2.1954
                             Zr    shell        4    2.1954
                             O     core         6    2.5350       12    3.5850
                             O     shell        6    2.5350       12    3.5850
--------------------------------------------------------------------------------



********************************************************************************
*  General input information                                                   *
********************************************************************************

  Species output for all configurations : 

--------------------------------------------------------------------------------
  Species    Type    Atomic    Atomic    Charge       Radii (Angs)     Library
                     Number     Mass       (e)     Cova   Ionic  VDW   Symbol
--------------------------------------------------------------------------------
    Zr       Core       40      91.22   2.650000   1.560  0.000  2.330          
    Zr       Shell      40       0.00   1.350000   1.560  0.000  2.330          
    O        Core        8      16.00   0.077000   0.730  0.000  1.360          
    O        Shell       8       0.00  -2.077000   0.730  0.000  1.360          
--------------------------------------------------------------------------------


  Lattice summation method               =    Ewald          (3-D)
                                         =    Parry          (2-D)
                                         =    Saunders et al (1-D)
  Accuracy factor for lattice sums       =   12.000


  Analytic derivatives to be used

  Time limit = Infinity

  Maximum range for interatomic potentials =    100000.000000 Angstroms

  General interatomic potentials :

--------------------------------------------------------------------------------
Atom  Types   Potential      Parameter       Value         Units   Cutoffs(Ang)
  1     2                                                            Min /  Max 
--------------------------------------------------------------------------------
O    s Zr   s Buckingham    Buckingham A     985.86900    eV        0.000 12.000
                            Buckingham rho  0.37600000    Ang       
                            Buckingham C     0.0000000    eV*Ang^6  
--------------------------------------------------------------------------------
O    s O    s Buckingham    Buckingham A     22764.300    eV        0.000 12.000
                            Buckingham rho  0.14900000    Ang       
                            Buckingham C     27.890000    eV*Ang^6  
--------------------------------------------------------------------------------
Zr   c Zr   s Spring (c-s)  Spring k 2       169.61700    eV*Ang^-2 0.000  0.800
                            Spring k 4       0.0000000    eV*Ang^-4 
--------------------------------------------------------------------------------
O    c O    s Spring (c-s)  Spring k 2       27.290000    eV*Ang^-2 0.000  0.800
                            Spring k 4       0.0000000    eV*Ang^-4 
--------------------------------------------------------------------------------

********************************************************************************
*  Output for configuration   1 : ZrO2                                         *
********************************************************************************


  Components of energy : 

--------------------------------------------------------------------------------
  Interatomic potentials     =          22.43756329 eV    
  Monopole - monopole (real) =         -15.67991073 eV    
  Monopole - monopole (recip)=        -116.52038266 eV    
  Monopole - monopole (total)=        -132.20029339 eV    
--------------------------------------------------------------------------------
  Total lattice energy : 
    Primitive unit cell      =        -109.76273010 eV    
    Non-primitive unit cell  =        -439.05092039 eV    
--------------------------------------------------------------------------------
  Total lattice energy (in kJmol-1): 
    Primitive unit cell      =          -10590.4256 kJ/(mole unit cells)
    Non-primitive unit cell  =          -42361.7023 kJ/(mole unit cells)
--------------------------------------------------------------------------------


  Number of variables =        1

  Maximum number of calculations  =          1000
  Maximum Hessian update interval =            10
  Maximum step size               =   1.000000000
  Maximum parameter tolerance     =   0.000010000
  Maximum function  tolerance     =   0.000010000
  Maximum gradient  tolerance     =   0.001000000
  Maximum gradient  component     =   0.010000000

  Symmetry constrained optimisation

  Symmetry used for second derivatives

  Cell parameters to be optimised using strains

  Newton-Raphson optimiser to be used

  BFGS hessian update to be used

  Lower half triangular hessian to be used

  Start of bulk optimisation :

  Cycle:      0 Energy:      -109.762730  Gnorm:      0.588311  CPU:    0.006
  ** Hessian calculated **
  Cycle:      1 Energy:      -109.763059  Gnorm:      0.000316  CPU:    0.009


  **** Optimisation achieved ****


  Final energy =    -109.76305939 eV
  Final Gnorm  =       0.00000099

  Components of energy : 

--------------------------------------------------------------------------------
  Interatomic potentials     =          22.28919976 eV    
  Monopole - monopole (real) =         -15.66235280 eV    
  Monopole - monopole (recip)=        -116.38990634 eV    
  Monopole - monopole (total)=        -132.05225914 eV    
--------------------------------------------------------------------------------
  Total lattice energy : 
    Primitive unit cell      =        -109.76305939 eV    
    Non-primitive unit cell  =        -439.05223754 eV    
--------------------------------------------------------------------------------
  Total lattice energy (in kJmol-1): 
    Primitive unit cell      =          -10590.4573 kJ/(mole unit cells)
    Non-primitive unit cell  =          -42361.8294 kJ/(mole unit cells)
--------------------------------------------------------------------------------

  Final asymmetric unit coordinates :

--------------------------------------------------------------------------------
   No.  Atomic        x           y           z         Radius
        Label       (Frac)      (Frac)      (Frac)       (Angs) 
--------------------------------------------------------------------------------
     1  Zr    c     0.000000    0.000000    0.000000    0.000000
     2  O     c     0.250000    0.250000    0.250000    0.000000
     3  Zr    s     0.000000    0.000000    0.000000    0.000000
     4  O     s     0.250000    0.250000    0.250000    0.000000
--------------------------------------------------------------------------------

  Final Cartesian lattice vectors (Angstroms) :

        0.000000    2.537842    2.537842
        2.537842    0.000000    2.537842
        2.537842    2.537842    0.000000


  Final cell parameters and derivatives :

--------------------------------------------------------------------------------
       a            3.589050 Angstrom     dE/de1(xx)    -0.000001 eV/strain
       b            3.589050 Angstrom     dE/de2(yy)     0.000000 eV/strain
       c            3.589050 Angstrom     dE/de3(zz)     0.000000 eV/strain
       alpha       60.000000 Degrees      dE/de4(yz)     0.000000 eV/strain
       beta        60.000000 Degrees      dE/de5(xz)     0.000000 eV/strain
       gamma       60.000000 Degrees      dE/de6(xy)     0.000000 eV/strain
--------------------------------------------------------------------------------

  Primitive cell volume =            32.690656 Angs**3

  Density of cell =      6.259124 g/cm**3

  Non-primitive lattice parameters :

  a    =     5.075684  b   =     5.075684  c    =     5.075684
  alpha=    90.000000  beta=    90.000000  gamma=    90.000000

  Non-primitive cell volume =           130.762624 Angs**3


  Final internal derivatives :

--------------------------------------------------------------------------------
   No.  Atomic          a             b             c           Radius
        Label          (eV)          (eV)          (eV)        (eV/Angs)
--------------------------------------------------------------------------------
      1 Zr    c       0.000000      0.000000      0.000000      0.000000
      2 O     c       0.000000      0.000000      0.000000      0.000000
      3 Zr    s       0.000000      0.000000      0.000000      0.000000
      4 O     s       0.000000      0.000000      0.000000      0.000000
--------------------------------------------------------------------------------
  Maximum abs         0.000000      0.000000      0.000000      0.000000
--------------------------------------------------------------------------------

  Comparison of initial and final structures : 

--------------------------------------------------------------------------------
  Parameter   Initial value   Final value   Difference    Units      Percent
--------------------------------------------------------------------------------
    Volume       130.323843    130.762624     0.438781    Angs**3      0.34
    a              5.070000      5.075684     0.005684    Angstroms    0.11
    b              5.070000      5.075684     0.005684    Angstroms    0.11
    c              5.070000      5.075684     0.005684    Angstroms    0.11
    alpha         90.000000     90.000000     0.000000    Degrees      0.00
    beta          90.000000     90.000000     0.000000    Degrees      0.00
    gamma         90.000000     90.000000     0.000000    Degrees      0.00
      1 x          0.000000      0.000000     0.000000    Fractional   0.00
      1 y          0.000000      0.000000     0.000000    Fractional   0.00
      1 z          0.000000      0.000000     0.000000    Fractional   0.00
      2 x          0.250000      0.250000     0.000000    Fractional   0.00
      2 y          0.250000      0.250000     0.000000    Fractional   0.00
      2 z          0.250000      0.250000     0.000000    Fractional   0.00
      3 x          0.000000      0.000000     0.000000    Fractional   0.00
      3 y          0.000000      0.000000     0.000000    Fractional   0.00
      3 z          0.000000      0.000000     0.000000    Fractional   0.00
      4 x          0.250000      0.250000     0.000000    Fractional   0.00
      4 y          0.250000      0.250000     0.000000    Fractional   0.00
      4 z          0.250000      0.250000     0.000000    Fractional   0.00
--------------------------------------------------------------------------------


  Distance calculation :


  Cutoff for distances  =      4.000000 Angstroms

--------------------------------------------------------------------------------
  Asymmetric unit site  Full lattice sites    No.  Distance      No.  Distance
      No.   At.No.            At.No.                (Angs)             (Angs) 
--------------------------------------------------------------------------------
       1   Zr    core        Zr    core        12    3.5891
                             Zr    shell       12    3.5891
                             O     core         8    2.1978
                             O     shell        8    2.1978
--------------------------------------------------------------------------------
       2   O     core        Zr    core         4    2.1978
                             Zr    shell        4    2.1978
                             O     core         6    2.5378       12    3.5891
                             O     shell        6    2.5378       12    3.5891
--------------------------------------------------------------------------------
       3   Zr    shell       Zr    core        12    3.5891
                             Zr    shell       12    3.5891
                             O     core         8    2.1978
                             O     shell        8    2.1978
--------------------------------------------------------------------------------
       4   O     shell       Zr    core         4    2.1978
                             Zr    shell        4    2.1978
                             O     core         6    2.5378       12    3.5891
                             O     shell        6    2.5378       12    3.5891
--------------------------------------------------------------------------------



  Born effective charge tensors : 

-------------------------------------------------------------------------------
  Atom             x           y             z
-------------------------------------------------------------------------------
    1 Zr    x       3.6770      0.0000      0.0000
            y       0.0000      3.6770      0.0000
            z       0.0000      0.0000      3.6770
-------------------------------------------------------------------------------
    2 O     x      -1.8385      0.0000      0.0000
            y       0.0000     -1.8385     -0.0000
            z       0.0000     -0.0000     -1.8385
-------------------------------------------------------------------------------




  Elastic Constant Matrix: (Units=GPa)

-------------------------------------------------------------------------------
  Indices      1         2         3         4         5         6    
-------------------------------------------------------------------------------
       1    616.2933  119.6612  119.6612   -0.0000   -0.0000   -0.0000
       2    119.6612  616.2933  119.6612   -0.0000   -0.0000   -0.0000
       3    119.6612  119.6612  616.2933   -0.0000   -0.0000   -0.0000
       4     -0.0000   -0.0000   -0.0000  100.8598    0.0000   -0.0000
       5     -0.0000   -0.0000   -0.0000    0.0000  100.8598    0.0000
       6     -0.0000   -0.0000   -0.0000   -0.0000    0.0000  100.8598
-------------------------------------------------------------------------------


  Elastic Compliance Matrix: (Units=1/GPa)

-------------------------------------------------------------------------------
  Indices      1         2         3         4         5         6    
-------------------------------------------------------------------------------
       1    0.001732 -0.000282 -0.000282  0.000000  0.000000  0.000000
       2   -0.000282  0.001732 -0.000282 -0.000000  0.000000  0.000000
       3   -0.000282 -0.000282  0.001732  0.000000  0.000000  0.000000
       4    0.000000 -0.000000  0.000000  0.009915 -0.000000  0.000000
       5    0.000000  0.000000  0.000000 -0.000000  0.009915 -0.000000
       6    0.000000  0.000000  0.000000  0.000000 -0.000000  0.009915
-------------------------------------------------------------------------------

  Mechanical properties :

-------------------------------------------------------------------------------
  Convention :                    Reuss         Voigt         Hill
-------------------------------------------------------------------------------
  Bulk  Modulus (GPa)     =     285.20524     285.20524     285.20524
  Shear Modulus (GPa)     =     132.28031     159.84228     146.06129
-------------------------------------------------------------------------------
  Velocity S-wave (km/s)  =       4.59717       5.05346       4.83071
  Velocity P-wave (km/s)  =       8.58749       8.92280       8.75675
-------------------------------------------------------------------------------
  Compressibility (1/GPa) =    0.00350625
-------------------------------------------------------------------------------
  Stress axis :                     x             y             z
-------------------------------------------------------------------------------
  Youngs Moduli (GPa)     =     577.38110     577.38110     577.38110
-------------------------------------------------------------------------------
  Poissons Ratio (x)      =                     0.16259       0.16259
  Poissons Ratio (y)      =       0.16259                     0.16259
  Poissons Ratio (z)      =       0.16259       0.16259
-------------------------------------------------------------------------------


  Piezoelectric Strain Matrix: (Units=C/m**2)

-------------------------------------------------------------------------------
  Indices      1         2         3         4         5         6    
-------------------------------------------------------------------------------
       x    -0.00000   0.00000   0.00000   0.00000   0.00000   0.00000
       y    -0.00000  -0.00000  -0.00000   0.00000   0.00000   0.00000
       z    -0.00000  -0.00000  -0.00000   0.00000   0.00000   0.00000
-------------------------------------------------------------------------------


  Piezoelectric Stress Matrix: (Units=10**-11 C/N)

-------------------------------------------------------------------------------
  Indices      1         2         3         4         5         6    
-------------------------------------------------------------------------------
       x    -0.00000   0.00000   0.00000   0.00000   0.00000   0.00000
       y    -0.00000  -0.00000  -0.00000   0.00000   0.00000   0.00000
       z     0.00000   0.00000  -0.00000   0.00000   0.00000   0.00000
-------------------------------------------------------------------------------


  Static dielectric constant tensor : 

-------------------------------------------------------------------------------
              x         y         z
-------------------------------------------------------------------------------
       x    26.88485   0.00000   0.00000
       y     0.00000  26.88485   0.00000
       z     0.00000   0.00000  26.88485
--------------------------------------------------------------------------------

  High frequency dielectric constant tensor : 

-------------------------------------------------------------------------------
              x         y         z
-------------------------------------------------------------------------------
       x     2.63099   0.00000   0.00000
       y     0.00000   2.63099   0.00000
       z     0.00000   0.00000   2.63099
-------------------------------------------------------------------------------

  Static refractive indices : 

-------------------------------------------------------------------------------
    1 =    5.18506      2 =    5.18506      3 =    5.18506
-------------------------------------------------------------------------------

  High frequency refractive indices : 

-------------------------------------------------------------------------------
    1 =    1.62203      2 =    1.62203      3 =    1.62203
-------------------------------------------------------------------------------


  Time to end of optimisation =       0.0143 seconds

********************************************************************************
*  Defect calculation for configuration   1 :                                  *
********************************************************************************

  Total number of defects =      3

  Total charge on defect  =   2.00

  Defect centre is at   0.4900   0.2500   0.2500  Frac

  Region 1 radius =  12.0000      Number of ions =   1342

  Number of symmetry inequivalent region 1 ions  =    416

  Region 2 radius =  24.0000      Number of ions =   9276

  Number of symmetry inequivalent region 2a ions =   2542

  Region 2a mode = 4 : screened electrostatics due to region 1 
                       neglect correction to region 1 forces from 2a
                       region 2a displacements based on defects only

  Region 2a ions will only interact with defects in region 1

  Vacancies:

--------------------------------------------------------------------------------
    Specification type     Symbol/Number         x          y          z
--------------------------------------------------------------------------------
    Fractional                               0.250000   0.250000   0.250000
    Fractional                               0.750000   0.250000   0.250000
--------------------------------------------------------------------------------

  Interstitials:

--------------------------------------------------------------------------------
    Specification type     Symbol/Number         x          y          z
--------------------------------------------------------------------------------
    Atom/Fractional         O                0.490000   0.250000   0.250000
--------------------------------------------------------------------------------


  Symmetry reduced region 1 (Relative to defect centre) :

--------------------------------------------------------------------------------
   No.   Atomic       x            y             z       Radius  Multiplicity   
         Label      (Angs)       (Angs)        (Angs)    (Angs)     
--------------------------------------------------------------------------------
     1  O     c      0.0000       0.0000       0.0000    0.0000     1    Defect
     2  Zr    c      0.0508 *     1.2689 *    -1.2689    0.0000     2          
     3  O     c     -1.2182 *    -0.0000 *     2.5378 *  0.0000     4          
     4  O     c      1.3197 *     2.5378 *     0.0000 *  0.0000     4          
     5  Zr    c     -2.4871 *    -1.2689 *    -1.2689    0.0000     2          
     6  Zr    c      2.5886 *     1.2689 *     1.2689    0.0000     2          
     7  O     c     -3.7560 *    -0.0000      -0.0000    0.0000     1          
     8  O     c     -1.2182 *     2.5378 *     2.5378    0.0000     2          
     9  O     c     -1.2182 *    -2.5378 *     2.5378    0.0000     2          
    10  O     c      1.3197 *     2.5378 *     2.5378    0.0000     2          
    11  O     c      1.3197 *    -2.5378 *     2.5378    0.0000     2          
    12  O     c      3.8575 *     0.0000       0.0000    0.0000     1          
    13  Zr    c      0.0508 *     1.2689 *     3.8068 *  0.0000     4          
    14  O     c     -3.7560 *    -2.5378 *     0.0000 *  0.0000     4          
    15  O     c      3.8575 *     2.5378 *    -0.0000 *  0.0000     4          
    16  Zr    c     -2.4871 *    -3.8068 *     1.2689 *  0.0000     4          
    17  Zr    c      2.5886 *     1.2689 *    -3.8068 *  0.0000     4          
    18  O     c     -3.7560 *     2.5378 *    -2.5378    0.0000     2          
    19  O     c     -3.7560 *     2.5378 *     2.5378    0.0000     2          
    20  O     c     -1.2182 *    -5.0757 *     0.0000 *  0.0000     4          
    21  O     c      1.3197 *    -0.0000 *     5.0757 *  0.0000     4          
    22  O     c      3.8575 *     2.5378 *    -2.5378    0.0000     2          
    23  O     c      3.8575 *     2.5378 *     2.5378    0.0000     2          
    24  Zr    c     -5.0249 *    -1.2689 *     1.2689    0.0000     2          
    25  Zr    c      0.0508 *    -3.8068 *     3.8068    0.0000     2          
    26  Zr    c      5.1264 *     1.2689 *    -1.2689    0.0000     2          
    27  O     c     -1.2182 *     5.0757 *     2.5378 *  0.0000     4          
    28  O     c     -1.2182 *    -2.5378 *     5.0757 *  0.0000     4          
    29  O     c      1.3197 *     2.5378 *    -5.0757 *  0.0000     4          
    30  O     c      1.3197 *     5.0757 *     2.5378 *  0.0000     4          
    31  Zr    c     -2.4871 *     3.8068 *     3.8068    0.0000     2          
    32  Zr    c      2.5886 *     3.8068 *     3.8068    0.0000     2          
    33  O     c     -6.2938 *     0.0000       0.0000    0.0000     1          
    34  O     c     -3.7560 *     5.0757 *    -0.0000 *  0.0000     4          
    35  O     c      3.8575 *     5.0757 *     0.0000 *  0.0000     4          
    36  O     c      6.3954 *    -0.0000      -0.0000    0.0000     1          
    37  Zr    c     -5.0249 *     3.8068 *     1.2689 *  0.0000     4          
    38  Zr    c      0.0508 *    -1.2689 *     6.3446 *  0.0000     4          
    39  Zr    c      5.1264 *     1.2689 *     3.8068 *  0.0000     4          
    40  O     c     -6.2938 *    -0.0000 *     2.5378 *  0.0000     4          
    41  O     c     -3.7560 *    -5.0757 *     2.5378 *  0.0000     4          
    42  O     c     -3.7560 *     2.5378 *     5.0757 *  0.0000     4          
    43  O     c      3.8575 *    -2.5378 *     5.0757 *  0.0000     4          
    44  O     c      3.8575 *     5.0757 *     2.5378 *  0.0000     4          
    45  O     c      6.3954 *     2.5378 *     0.0000 *  0.0000     4          
    46  Zr    c     -2.4871 *     6.3446 *     1.2689 *  0.0000     4          
    47  Zr    c      2.5886 *    -1.2689 *    -6.3446 *  0.0000     4          
    48  O     c     -6.2938 *     2.5378 *     2.5378    0.0000     2          
    49  O     c     -6.2938 *    -2.5378 *     2.5378    0.0000     2          
    50  O     c     -1.2182 *    -5.0757 *     5.0757    0.0000     2          
    51  O     c     -1.2182 *     5.0757 *     5.0757    0.0000     2          
    52  O     c      1.3197 *     5.0757 *     5.0757    0.0000     2          
    53  O     c      1.3197 *    -5.0757 *     5.0757    0.0000     2          
    54  O     c      6.3954 *     2.5378 *     2.5378    0.0000     2          
    55  O     c      6.3954 *     2.5378 *    -2.5378    0.0000     2          
    56  Zr    c     -5.0249 *     3.8068 *    -3.8068    0.0000     2          
    57  Zr    c      0.0508 *     3.8068 *     6.3446 *  0.0000     4          
    58  Zr    c      5.1264 *     3.8068 *    -3.8068    0.0000     2          
    59  O     c     -1.2182 *    -0.0000 *     7.6135 *  0.0000     4          
    60  O     c      1.3197 *     7.6135 *     0.0000 *  0.0000     4          
    61  Zr    c     -7.5628 *     1.2689 *     1.2689    0.0000     2          
    62  Zr    c     -2.4871 *    -6.3446 *     3.8068 *  0.0000     4          
    63  Zr    c      2.5886 *     6.3446 *    -3.8068 *  0.0000     4          
    64  Zr    c      7.6643 *    -1.2689 *    -1.2689    0.0000     2          
    65  O     c     -6.2938 *     5.0757 *     0.0000 *  0.0000     4          
    66  O     c     -3.7560 *     5.0757 *     5.0757    0.0000     2          
    67  O     c     -3.7560 *    -5.0757 *     5.0757    0.0000     2          
    68  O     c     -1.2182 *    -7.6135 *     2.5378 *  0.0000     4          
    69  O     c     -1.2182 *     2.5378 *     7.6135 *  0.0000     4          
    70  O     c      1.3197 *     7.6135 *     2.5378 *  0.0000     4          
    71  O     c      1.3197 *    -2.5378 *     7.6135 *  0.0000     4          
    72  O     c      3.8575 *    -5.0757 *    -5.0757    0.0000     2          
    73  O     c      3.8575 *    -5.0757 *     5.0757    0.0000     2          
    74  O     c      6.3954 *     5.0757 *    -0.0000 *  0.0000     4          
    75  Zr    c     -5.0249 *    -6.3446 *     1.2689 *  0.0000     4          
    76  Zr    c      5.1264 *     6.3446 *    -1.2689 *  0.0000     4          
    77  O     c     -6.2938 *    -2.5378 *     5.0757 *  0.0000     4          
    78  O     c     -6.2938 *     2.5378 *     5.0757 *  0.0000     4          
    79  O     c     -3.7560 *    -7.6135 *     0.0000 *  0.0000     4          
    80  O     c      3.8575 *    -0.0000 *     7.6135 *  0.0000     4          
    81  O     c      6.3954 *    -2.5378 *     5.0757 *  0.0000     4          
    82  O     c      6.3954 *     2.5378 *     5.0757 *  0.0000     4          
    83  Zr    c     -7.5628 *     1.2689 *    -3.8068 *  0.0000     4          
    84  Zr    c      7.6643 *     3.8068 *    -1.2689 *  0.0000     4          
    85  O     c     -8.8317 *    -0.0000      -0.0000    0.0000     1          
    86  O     c     -3.7560 *     7.6135 *    -2.5378 *  0.0000     4          
    87  O     c     -3.7560 *     2.5378 *     7.6135 *  0.0000     4          
    88  O     c      3.8575 *     7.6135 *    -2.5378 *  0.0000     4          
    89  O     c      3.8575 *     7.6135 *     2.5378 *  0.0000     4          
    90  O     c      8.9332 *     0.0000       0.0000    0.0000     1          
    91  Zr    c     -5.0249 *     3.8068 *     6.3446 *  0.0000     4          
    92  Zr    c      0.0508 *    -6.3446 *     6.3446    0.0000     2          
    93  Zr    c      0.0508 *     8.8824 *     1.2689 *  0.0000     4          
    94  Zr    c      5.1264 *     6.3446 *     3.8068 *  0.0000     4          
    95  O     c     -8.8317 *    -2.5378 *     0.0000 *  0.0000     4          
    96  O     c     -1.2182 *     5.0757 *     7.6135 *  0.0000     4          
    97  O     c     -1.2182 *    -5.0757 *     7.6135 *  0.0000     4          
    98  O     c      1.3197 *     5.0757 *    -7.6135 *  0.0000     4          
    99  O     c      1.3197 *     7.6135 *     5.0757 *  0.0000     4          
   100  Zr    c     -7.5628 *    -3.8068 *    -3.8068    0.0000     2          
   101  O     c      8.9332 *     2.5378 *    -0.0000 *  0.0000     4          
   102  Zr    c     -2.4871 *     6.3446 *     6.3446    0.0000     2          
   103  Zr    c     -2.4871 *    -1.2689 *     8.8824 *  0.0000     4          
   104  Zr    c      2.5886 *     6.3446 *     6.3446    0.0000     2          
   105  Zr    c      2.5886 *     8.8824 *    -1.2689 *  0.0000     4          
   106  Zr    c      7.6643 *     3.8068 *     3.8068    0.0000     2          
   107  O     c     -8.8317 *    -2.5378 *    -2.5378    0.0000     2          
   108  O     c     -8.8317 *    -2.5378 *     2.5378    0.0000     2          
   109  O     c     -6.2938 *     5.0757 *     5.0757    0.0000     2          
   110  O     c     -6.2938 *    -5.0757 *     5.0757    0.0000     2          
   111  O     c      6.3954 *     5.0757 *     5.0757    0.0000     2          
   112  O     c      6.3954 *    -5.0757 *     5.0757    0.0000     2          
   113  O     c      8.9332 *     2.5378 *     2.5378    0.0000     2          
   114  O     c      8.9332 *     2.5378 *    -2.5378    0.0000     2          
   115  Zr    c      0.0508 *     8.8824 *    -3.8068 *  0.0000     4          
   116  O     c     -6.2938 *    -0.0000 *     7.6135 *  0.0000     4          
   117  O     c     -3.7560 *     7.6135 *     5.0757 *  0.0000     4          
   118  O     c     -3.7560 *    -7.6135 *     5.0757 *  0.0000     4          
   119  O     c      3.8575 *    -5.0757 *     7.6135 *  0.0000     4          
   120  O     c      3.8575 *     7.6135 *     5.0757 *  0.0000     4          
   121  O     c      6.3954 *     7.6135 *     0.0000 *  0.0000     4          
   122  Zr    c     -7.5628 *    -6.3446 *    -1.2689 *  0.0000     4          
   123  Zr    c     -2.4871 *     3.8068 *     8.8824 *  0.0000     4          
   124  Zr    c      2.5886 *     8.8824 *     3.8068 *  0.0000     4          
   125  Zr    c      7.6643 *    -1.2689 *    -6.3446 *  0.0000     4          
   126  O     c     -8.8317 *    -0.0000 *     5.0757 *  0.0000     4          
   127  O     c     -6.2938 *    -7.6135 *    -2.5378 *  0.0000     4          
   128  O     c     -6.2938 *    -7.6135 *     2.5378 *  0.0000     4          
   129  O     c     -1.2182 *    -0.0000 *    10.1514 *  0.0000     4          
   130  O     c      1.3197 *    -0.0000 *    10.1514 *  0.0000     4          
   131  Zr    c    -10.1006 *    -1.2689 *     1.2689    0.0000     2          
   132  O     c      6.3954 *    -2.5378 *     7.6135 *  0.0000     4          
   133  O     c      6.3954 *     7.6135 *     2.5378 *  0.0000     4          
   134  O     c      8.9332 *     0.0000 *    -5.0757 *  0.0000     4          
   135  Zr    c     -5.0249 *    -6.3446 *     6.3446    0.0000     2          
   136  Zr    c     -5.0249 *     1.2689 *     8.8824 *  0.0000     4          
   137  Zr    c      5.1264 *     8.8824 *     1.2689 *  0.0000     4          
   138  Zr    c      5.1264 *    -6.3446 *     6.3446    0.0000     2          
   139  Zr    c     10.2021 *     1.2689 *    -1.2689    0.0000     2          
   140  O     c     -8.8317 *    -5.0757 *    -2.5378 *  0.0000     4          
   141  O     c     -8.8317 *    -5.0757 *     2.5378 *  0.0000     4          
   142  O     c     -1.2182 *    10.1514 *    -2.5378 *  0.0000     4          
   143  O     c     -1.2182 *     2.5378 *    10.1514 *  0.0000     4          
   144  O     c      1.3197 *    -2.5378 *    10.1514 *  0.0000     4          
   145  O     c      1.3197 *     2.5378 *    10.1514 *  0.0000     4          
   146  Zr    c     -7.5628 *     3.8068 *    -6.3446 *  0.0000     4          
   147  O     c      8.9332 *     5.0757 *     2.5378 *  0.0000     4          
   148  O     c      8.9332 *     5.0757 *    -2.5378 *  0.0000     4          
   149  Zr    c      7.6643 *     3.8068 *    -6.3446 *  0.0000     4          
   150  O     c     -3.7560 *    -0.0000 *    10.1514 *  0.0000     4          
   151  O     c     -1.2182 *    -7.6135 *     7.6135    0.0000     2          
   152  O     c     -1.2182 *     7.6135 *     7.6135    0.0000     2          
   153  O     c      1.3197 *     7.6135 *     7.6135    0.0000     2          
   154  O     c      1.3197 *    -7.6135 *     7.6135    0.0000     2          
   155  O     c      3.8575 *    10.1514 *     0.0000 *  0.0000     4          
   156  Zr    c    -10.1006 *    -1.2689 *    -3.8068 *  0.0000     4          
   157  Zr    c     -5.0249 *    -8.8824 *     3.8068 *  0.0000     4          
   158  Zr    c      0.0508 *     8.8824 *     6.3446 *  0.0000     4          
   159  Zr    c      5.1264 *    -3.8068 *     8.8824 *  0.0000     4          
   160  Zr    c     10.2021 *     3.8068 *     1.2689 *  0.0000     4          
   161  O     c     -6.2938 *     5.0757 *     7.6135 *  0.0000     4          
   162  O     c     -6.2938 *     7.6135 *    -5.0757 *  0.0000     4          
   163  O     c     -3.7560 *   -10.1514 *     2.5378 *  0.0000     4          
   164  O     c     -3.7560 *     2.5378 *    10.1514 *  0.0000     4          
   165  O     c      3.8575 *    -2.5378 *    10.1514 *  0.0000     4          
   166  O     c      3.8575 *     2.5378 *    10.1514 *  0.0000     4          
   167  O     c      6.3954 *     7.6135 *    -5.0757 *  0.0000     4          
   168  O     c      6.3954 *     7.6135 *     5.0757 *  0.0000     4          
   169  Zr    c     -2.4871 *    -8.8824 *     6.3446 *  0.0000     4          
   170  Zr    c      2.5886 *    -6.3446 *     8.8824 *  0.0000     4          
   171  O     c    -11.3695 *    -0.0000       0.0000    0.0000     1          
   172  O     c     -8.8317 *     5.0757 *     5.0757    0.0000     2          
   173  O     c     -8.8317 *    -5.0757 *     5.0757    0.0000     2          
   174  O     c     -3.7560 *     7.6135 *     7.6135    0.0000     2          
   175  O     c     -3.7560 *    -7.6135 *     7.6135    0.0000     2          
   176  O     c     -1.2182 *   -10.1514 *     5.0757 *  0.0000     4          
   177  O     c     -1.2182 *     5.0757 *    10.1514 *  0.0000     4          
   178  O     c      1.3197 *    10.1514 *     5.0757 *  0.0000     4          
   179  O     c      1.3197 *    -5.0757 *    10.1514 *  0.0000     4          
   180  O     c      3.8575 *    -7.6135 *     7.6135    0.0000     2          
   181  O     c      3.8575 *     7.6135 *     7.6135    0.0000     2          
   182  Zr    c    -10.1006 *    -3.8068 *     3.8068    0.0000     2          
   183  O     c      8.9332 *    -5.0757 *    -5.0757    0.0000     2          
   184  O     c      8.9332 *     5.0757 *    -5.0757    0.0000     2          
   185  O     c     11.4710 *    -0.0000      -0.0000    0.0000     1          
   186  Zr    c      0.0508 *    -1.2689 *    11.4203 *  0.0000     4          
   187  Zr    c     10.2021 *     3.8068 *    -3.8068    0.0000     2          
   188  O     c    -11.3695 *    -0.0000 *     2.5378 *  0.0000     4          
   189  O     c     -8.8317 *    -7.6135 *     0.0000 *  0.0000     4          
   190  Zr    c     -7.5628 *     6.3446 *     6.3446    0.0000     2          
   191  Zr    c     -7.5628 *    -8.8824 *     1.2689 *  0.0000     4          
   192  O     c      8.9332 *     7.6135 *    -0.0000 *  0.0000     4          
   193  O     c     11.4710 *     2.5378 *     0.0000 *  0.0000     4          
   194  Zr    c     -2.4871 *     1.2689 *    11.4203 *  0.0000     4          
   195  Zr    c      2.5886 *     1.2689 *    11.4203 *  0.0000     4          
   196  Zr    c      7.6643 *     8.8824 *    -1.2689 *  0.0000     4          
   197  Zr    c      7.6643 *     6.3446 *     6.3446    0.0000     2          
   198  O     c    -11.3695 *     2.5378 *     2.5378    0.0000     2          
   199  O     c    -11.3695 *    -2.5378 *     2.5378    0.0000     2          
   200  O     c     -8.8317 *    -2.5378 *     7.6135 *  0.0000     4          
   201  O     c     -8.8317 *     2.5378 *     7.6135 *  0.0000     4          
   202  O     c     -6.2938 *   -10.1514 *     0.0000 *  0.0000     4          
   203  O     c     -3.7560 *     5.0757 *    10.1514 *  0.0000     4          
   204  O     c     -3.7560 *   -10.1514 *     5.0757 *  0.0000     4          
   205  O     c      3.8575 *    10.1514 *    -5.0757 *  0.0000     4          
   206  O     c      3.8575 *    10.1514 *     5.0757 *  0.0000     4          
   207  Zr    c    -10.1006 *     1.2689 *    -6.3446 *  0.0000     4          
   208  O     c      6.3954 *    -0.0000 *    10.1514 *  0.0000     4          
   209  O     s      0.0000       0.0000       0.0000    0.0000     1    Defect
   210  Zr    s      0.0508 *     1.2689 *    -1.2689    0.0000     2          
   211  O     s     -1.2182 *    -0.0000 *     2.5378 *  0.0000     4          
   212  O     s      1.3197 *     2.5378 *     0.0000 *  0.0000     4          
   213  Zr    s     -2.4871 *    -1.2689 *    -1.2689    0.0000     2          
   214  Zr    s      2.5886 *     1.2689 *     1.2689    0.0000     2          
   215  O     s     -3.7560 *    -0.0000      -0.0000    0.0000     1          
   216  O     s     -1.2182 *     2.5378 *     2.5378    0.0000     2          
   217  O     s     -1.2182 *    -2.5378 *     2.5378    0.0000     2          
   218  O     s      1.3197 *     2.5378 *     2.5378    0.0000     2          
   219  O     s      1.3197 *    -2.5378 *     2.5378    0.0000     2          
   220  O     s      3.8575 *     0.0000       0.0000    0.0000     1          
   221  Zr    s      0.0508 *     1.2689 *     3.8068 *  0.0000     4          
   222  O     s     -3.7560 *    -2.5378 *     0.0000 *  0.0000     4          
   223  O     s      3.8575 *     2.5378 *    -0.0000 *  0.0000     4          
   224  Zr    s     -2.4871 *    -3.8068 *     1.2689 *  0.0000     4          
   225  Zr    s      2.5886 *     1.2689 *    -3.8068 *  0.0000     4          
   226  O     s     -3.7560 *     2.5378 *    -2.5378    0.0000     2          
   227  O     s     -3.7560 *     2.5378 *     2.5378    0.0000     2          
   228  O     s     -1.2182 *    -5.0757 *     0.0000 *  0.0000     4          
   229  O     s      1.3197 *    -0.0000 *     5.0757 *  0.0000     4          
   230  O     s      3.8575 *     2.5378 *    -2.5378    0.0000     2          
   231  O     s      3.8575 *     2.5378 *     2.5378    0.0000     2          
   232  Zr    s     -5.0249 *    -1.2689 *     1.2689    0.0000     2          
   233  Zr    s      0.0508 *    -3.8068 *     3.8068    0.0000     2          
   234  Zr    s      5.1264 *     1.2689 *    -1.2689    0.0000     2          
   235  O     s     -1.2182 *     5.0757 *     2.5378 *  0.0000     4          
   236  O     s     -1.2182 *    -2.5378 *     5.0757 *  0.0000     4          
   237  O     s      1.3197 *     2.5378 *    -5.0757 *  0.0000     4          
   238  O     s      1.3197 *     5.0757 *     2.5378 *  0.0000     4          
   239  Zr    s     -2.4871 *     3.8068 *     3.8068    0.0000     2          
   240  Zr    s      2.5886 *     3.8068 *     3.8068    0.0000     2          
   241  O     s     -6.2938 *     0.0000       0.0000    0.0000     1          
   242  O     s     -3.7560 *     5.0757 *    -0.0000 *  0.0000     4          
   243  O     s      3.8575 *     5.0757 *     0.0000 *  0.0000     4          
   244  O     s      6.3954 *    -0.0000      -0.0000    0.0000     1          
   245  Zr    s     -5.0249 *     3.8068 *     1.2689 *  0.0000     4          
   246  Zr    s      0.0508 *    -1.2689 *     6.3446 *  0.0000     4          
   247  Zr    s      5.1264 *     1.2689 *     3.8068 *  0.0000     4          
   248  O     s     -6.2938 *    -0.0000 *     2.5378 *  0.0000     4          
   249  O     s     -3.7560 *    -5.0757 *     2.5378 *  0.0000     4          
   250  O     s     -3.7560 *     2.5378 *     5.0757 *  0.0000     4          
   251  O     s      3.8575 *    -2.5378 *     5.0757 *  0.0000     4          
   252  O     s      3.8575 *     5.0757 *     2.5378 *  0.0000     4          
   253  O     s      6.3954 *     2.5378 *     0.0000 *  0.0000     4          
   254  Zr    s     -2.4871 *     6.3446 *     1.2689 *  0.0000     4          
   255  Zr    s      2.5886 *    -1.2689 *    -6.3446 *  0.0000     4          
   256  O     s     -6.2938 *     2.5378 *     2.5378    0.0000     2          
   257  O     s     -6.2938 *    -2.5378 *     2.5378    0.0000     2          
   258  O     s     -1.2182 *    -5.0757 *     5.0757    0.0000     2          
   259  O     s     -1.2182 *     5.0757 *     5.0757    0.0000     2          
   260  O     s      1.3197 *     5.0757 *     5.0757    0.0000     2          
   261  O     s      1.3197 *    -5.0757 *     5.0757    0.0000     2          
   262  O     s      6.3954 *     2.5378 *     2.5378    0.0000     2          
   263  O     s      6.3954 *     2.5378 *    -2.5378    0.0000     2          
   264  Zr    s     -5.0249 *     3.8068 *    -3.8068    0.0000     2          
   265  Zr    s      0.0508 *     3.8068 *     6.3446 *  0.0000     4          
   266  Zr    s      5.1264 *     3.8068 *    -3.8068    0.0000     2          
   267  O     s     -1.2182 *    -0.0000 *     7.6135 *  0.0000     4          
   268  O     s      1.3197 *     7.6135 *     0.0000 *  0.0000     4          
   269  Zr    s     -7.5628 *     1.2689 *     1.2689    0.0000     2          
   270  Zr    s     -2.4871 *    -6.3446 *     3.8068 *  0.0000     4          
   271  Zr    s      2.5886 *     6.3446 *    -3.8068 *  0.0000     4          
   272  Zr    s      7.6643 *    -1.2689 *    -1.2689    0.0000     2          
   273  O     s     -6.2938 *     5.0757 *     0.0000 *  0.0000     4          
   274  O     s     -3.7560 *     5.0757 *     5.0757    0.0000     2          
   275  O     s     -3.7560 *    -5.0757 *     5.0757    0.0000     2          
   276  O     s     -1.2182 *    -7.6135 *     2.5378 *  0.0000     4          
   277  O     s     -1.2182 *     2.5378 *     7.6135 *  0.0000     4          
   278  O     s      1.3197 *     7.6135 *     2.5378 *  0.0000     4          
   279  O     s      1.3197 *    -2.5378 *     7.6135 *  0.0000     4          
   280  O     s      3.8575 *    -5.0757 *    -5.0757    0.0000     2          
   281  O     s      3.8575 *    -5.0757 *     5.0757    0.0000     2          
   282  O     s      6.3954 *     5.0757 *    -0.0000 *  0.0000     4          
   283  Zr    s     -5.0249 *    -6.3446 *     1.2689 *  0.0000     4          
   284  Zr    s      5.1264 *     6.3446 *    -1.2689 *  0.0000     4          
   285  O     s     -6.2938 *    -2.5378 *     5.0757 *  0.0000     4          
   286  O     s     -6.2938 *     2.5378 *     5.0757 *  0.0000     4          
   287  O     s     -3.7560 *    -7.6135 *     0.0000 *  0.0000     4          
   288  O     s      3.8575 *    -0.0000 *     7.6135 *  0.0000     4          
   289  O     s      6.3954 *    -2.5378 *     5.0757 *  0.0000     4          
   290  O     s      6.3954 *     2.5378 *     5.0757 *  0.0000     4          
   291  Zr    s     -7.5628 *     1.2689 *    -3.8068 *  0.0000     4          
   292  Zr    s      7.6643 *     3.8068 *    -1.2689 *  0.0000     4          
   293  O     s     -8.8317 *    -0.0000      -0.0000    0.0000     1          
   294  O     s     -3.7560 *     7.6135 *    -2.5378 *  0.0000     4          
   295  O     s     -3.7560 *     2.5378 *     7.6135 *  0.0000     4          
   296  O     s      3.8575 *     7.6135 *    -2.5378 *  0.0000     4          
   297  O     s      3.8575 *     7.6135 *     2.5378 *  0.0000     4          
   298  O     s      8.9332 *     0.0000       0.0000    0.0000     1          
   299  Zr    s     -5.0249 *     3.8068 *     6.3446 *  0.0000     4          
   300  Zr    s      0.0508 *    -6.3446 *     6.3446    0.0000     2          
   301  Zr    s      0.0508 *     8.8824 *     1.2689 *  0.0000     4          
   302  Zr    s      5.1264 *     6.3446 *     3.8068 *  0.0000     4          
   303  O     s     -8.8317 *    -2.5378 *     0.0000 *  0.0000     4          
   304  O     s     -1.2182 *     5.0757 *     7.6135 *  0.0000     4          
   305  O     s     -1.2182 *    -5.0757 *     7.6135 *  0.0000     4          
   306  O     s      1.3197 *     5.0757 *    -7.6135 *  0.0000     4          
   307  O     s      1.3197 *     7.6135 *     5.0757 *  0.0000     4          
   308  Zr    s     -7.5628 *    -3.8068 *    -3.8068    0.0000     2          
   309  O     s      8.9332 *     2.5378 *    -0.0000 *  0.0000     4          
   310  Zr    s     -2.4871 *     6.3446 *     6.3446    0.0000     2          
   311  Zr    s     -2.4871 *    -1.2689 *     8.8824 *  0.0000     4          
   312  Zr    s      2.5886 *     6.3446 *     6.3446    0.0000     2          
   313  Zr    s      2.5886 *     8.8824 *    -1.2689 *  0.0000     4          
   314  Zr    s      7.6643 *     3.8068 *     3.8068    0.0000     2          
   315  O     s     -8.8317 *    -2.5378 *    -2.5378    0.0000     2          
   316  O     s     -8.8317 *    -2.5378 *     2.5378    0.0000     2          
   317  O     s     -6.2938 *     5.0757 *     5.0757    0.0000     2          
   318  O     s     -6.2938 *    -5.0757 *     5.0757    0.0000     2          
   319  O     s      6.3954 *     5.0757 *     5.0757    0.0000     2          
   320  O     s      6.3954 *    -5.0757 *     5.0757    0.0000     2          
   321  O     s      8.9332 *     2.5378 *     2.5378    0.0000     2          
   322  O     s      8.9332 *     2.5378 *    -2.5378    0.0000     2          
   323  Zr    s      0.0508 *     8.8824 *    -3.8068 *  0.0000     4          
   324  O     s     -6.2938 *    -0.0000 *     7.6135 *  0.0000     4          
   325  O     s     -3.7560 *     7.6135 *     5.0757 *  0.0000     4          
   326  O     s     -3.7560 *    -7.6135 *     5.0757 *  0.0000     4          
   327  O     s      3.8575 *    -5.0757 *     7.6135 *  0.0000     4          
   328  O     s      3.8575 *     7.6135 *     5.0757 *  0.0000     4          
   329  O     s      6.3954 *     7.6135 *     0.0000 *  0.0000     4          
   330  Zr    s     -7.5628 *    -6.3446 *    -1.2689 *  0.0000     4          
   331  Zr    s     -2.4871 *     3.8068 *     8.8824 *  0.0000     4          
   332  Zr    s      2.5886 *     8.8824 *     3.8068 *  0.0000     4          
   333  Zr    s      7.6643 *    -1.2689 *    -6.3446 *  0.0000     4          
   334  O     s     -8.8317 *    -0.0000 *     5.0757 *  0.0000     4          
   335  O     s     -6.2938 *    -7.6135 *    -2.5378 *  0.0000     4          
   336  O     s     -6.2938 *    -7.6135 *     2.5378 *  0.0000     4          
   337  O     s     -1.2182 *    -0.0000 *    10.1514 *  0.0000     4          
   338  O     s      1.3197 *    -0.0000 *    10.1514 *  0.0000     4          
   339  Zr    s    -10.1006 *    -1.2689 *     1.2689    0.0000     2          
   340  O     s      6.3954 *    -2.5378 *     7.6135 *  0.0000     4          
   341  O     s      6.3954 *     7.6135 *     2.5378 *  0.0000     4          
   342  O     s      8.9332 *     0.0000 *    -5.0757 *  0.0000     4          
   343  Zr    s     -5.0249 *    -6.3446 *     6.3446    0.0000     2          
   344  Zr    s     -5.0249 *     1.2689 *     8.8824 *  0.0000     4          
   345  Zr    s      5.1264 *     8.8824 *     1.2689 *  0.0000     4          
   346  Zr    s      5.1264 *    -6.3446 *     6.3446    0.0000     2          
   347  Zr    s     10.2021 *     1.2689 *    -1.2689    0.0000     2          
   348  O     s     -8.8317 *    -5.0757 *    -2.5378 *  0.0000     4          
   349  O     s     -8.8317 *    -5.0757 *     2.5378 *  0.0000     4          
   350  O     s     -1.2182 *    10.1514 *    -2.5378 *  0.0000     4          
   351  O     s     -1.2182 *     2.5378 *    10.1514 *  0.0000     4          
   352  O     s      1.3197 *    -2.5378 *    10.1514 *  0.0000     4          
   353  O     s      1.3197 *     2.5378 *    10.1514 *  0.0000     4          
   354  Zr    s     -7.5628 *     3.8068 *    -6.3446 *  0.0000     4          
   355  O     s      8.9332 *     5.0757 *     2.5378 *  0.0000     4          
   356  O     s      8.9332 *     5.0757 *    -2.5378 *  0.0000     4          
   357  Zr    s      7.6643 *     3.8068 *    -6.3446 *  0.0000     4          
   358  O     s     -3.7560 *    -0.0000 *    10.1514 *  0.0000     4          
   359  O     s     -1.2182 *    -7.6135 *     7.6135    0.0000     2          
   360  O     s     -1.2182 *     7.6135 *     7.6135    0.0000     2          
   361  O     s      1.3197 *     7.6135 *     7.6135    0.0000     2          
   362  O     s      1.3197 *    -7.6135 *     7.6135    0.0000     2          
   363  O     s      3.8575 *    10.1514 *     0.0000 *  0.0000     4          
   364  Zr    s    -10.1006 *    -1.2689 *    -3.8068 *  0.0000     4          
   365  Zr    s     -5.0249 *    -8.8824 *     3.8068 *  0.0000     4          
   366  Zr    s      0.0508 *     8.8824 *     6.3446 *  0.0000     4          
   367  Zr    s      5.1264 *    -3.8068 *     8.8824 *  0.0000     4          
   368  Zr    s     10.2021 *     3.8068 *     1.2689 *  0.0000     4          
   369  O     s     -6.2938 *     5.0757 *     7.6135 *  0.0000     4          
   370  O     s     -6.2938 *     7.6135 *    -5.0757 *  0.0000     4          
   371  O     s     -3.7560 *   -10.1514 *     2.5378 *  0.0000     4          
   372  O     s     -3.7560 *     2.5378 *    10.1514 *  0.0000     4          
   373  O     s      3.8575 *    -2.5378 *    10.1514 *  0.0000     4          
   374  O     s      3.8575 *     2.5378 *    10.1514 *  0.0000     4          
   375  O     s      6.3954 *     7.6135 *    -5.0757 *  0.0000     4          
   376  O     s      6.3954 *     7.6135 *     5.0757 *  0.0000     4          
   377  Zr    s     -2.4871 *    -8.8824 *     6.3446 *  0.0000     4          
   378  Zr    s      2.5886 *    -6.3446 *     8.8824 *  0.0000     4          
   379  O     s    -11.3695 *    -0.0000       0.0000    0.0000     1          
   380  O     s     -8.8317 *     5.0757 *     5.0757    0.0000     2          
   381  O     s     -8.8317 *    -5.0757 *     5.0757    0.0000     2          
   382  O     s     -3.7560 *     7.6135 *     7.6135    0.0000     2          
   383  O     s     -3.7560 *    -7.6135 *     7.6135    0.0000     2          
   384  O     s     -1.2182 *   -10.1514 *     5.0757 *  0.0000     4          
   385  O     s     -1.2182 *     5.0757 *    10.1514 *  0.0000     4          
   386  O     s      1.3197 *    10.1514 *     5.0757 *  0.0000     4          
   387  O     s      1.3197 *    -5.0757 *    10.1514 *  0.0000     4          
   388  O     s      3.8575 *    -7.6135 *     7.6135    0.0000     2          
   389  O     s      3.8575 *     7.6135 *     7.6135    0.0000     2          
   390  Zr    s    -10.1006 *    -3.8068 *     3.8068    0.0000     2          
   391  O     s      8.9332 *    -5.0757 *    -5.0757    0.0000     2          
   392  O     s      8.9332 *     5.0757 *    -5.0757    0.0000     2          
   393  O     s     11.4710 *    -0.0000      -0.0000    0.0000     1          
   394  Zr    s      0.0508 *    -1.2689 *    11.4203 *  0.0000     4          
   395  Zr    s     10.2021 *     3.8068 *    -3.8068    0.0000     2          
   396  O     s    -11.3695 *    -0.0000 *     2.5378 *  0.0000     4          
   397  O     s     -8.8317 *    -7.6135 *     0.0000 *  0.0000     4          
   398  Zr    s     -7.5628 *     6.3446 *     6.3446    0.0000     2          
   399  Zr    s     -7.5628 *    -8.8824 *     1.2689 *  0.0000     4          
   400  O     s      8.9332 *     7.6135 *    -0.0000 *  0.0000     4          
   401  O     s     11.4710 *     2.5378 *     0.0000 *  0.0000     4          
   402  Zr    s     -2.4871 *     1.2689 *    11.4203 *  0.0000     4          
   403  Zr    s      2.5886 *     1.2689 *    11.4203 *  0.0000     4          
   404  Zr    s      7.6643 *     8.8824 *    -1.2689 *  0.0000     4          
   405  Zr    s      7.6643 *     6.3446 *     6.3446    0.0000     2          
   406  O     s    -11.3695 *     2.5378 *     2.5378    0.0000     2          
   407  O     s    -11.3695 *    -2.5378 *     2.5378    0.0000     2          
   408  O     s     -8.8317 *    -2.5378 *     7.6135 *  0.0000     4          
   409  O     s     -8.8317 *     2.5378 *     7.6135 *  0.0000     4          
   410  O     s     -6.2938 *   -10.1514 *     0.0000 *  0.0000     4          
   411  O     s     -3.7560 *     5.0757 *    10.1514 *  0.0000     4          
   412  O     s     -3.7560 *   -10.1514 *     5.0757 *  0.0000     4          
   413  O     s      3.8575 *    10.1514 *    -5.0757 *  0.0000     4          
   414  O     s      3.8575 *    10.1514 *     5.0757 *  0.0000     4          
   415  Zr    s    -10.1006 *     1.2689 *    -6.3446 *  0.0000     4          
   416  O     s      6.3954 *    -0.0000 *    10.1514 *  0.0000     4          
--------------------------------------------------------------------------------


  Constraints on symmetry reduced coordinates :

--------------------------------------------------------------------------------
  Constraint no.      Unconstrained     Constrained    Coefficient    
                         Variable         Variable
--------------------------------------------------------------------------------
           1                 2 y             2 z        -1.00000
           2                 5 y             5 z         1.00000
           3                 6 y             6 z         1.00000
           4                 8 y             8 z         1.00000
           5                 9 y             9 z        -1.00000
           6                10 y            10 z         1.00000
           7                11 y            11 z        -1.00000
           8                18 y            18 z        -1.00000
           9                19 y            19 z         1.00000
          10                22 y            22 z        -1.00000
          11                23 y            23 z         1.00000
          12                24 y            24 z        -1.00000
          13                25 y            25 z        -1.00000
          14                26 y            26 z        -1.00000
          15                31 y            31 z         1.00000
          16                32 y            32 z         1.00000
          17                48 y            48 z         1.00000
          18                49 y            49 z        -1.00000
          19                50 y            50 z        -1.00000
          20                51 y            51 z         1.00000
          21                52 y            52 z         1.00000
          22                53 y            53 z        -1.00000
          23                54 y            54 z         1.00000
          24                55 y            55 z        -1.00000
          25                56 y            56 z        -1.00000
          26                58 y            58 z        -1.00000
          27                61 y            61 z         1.00000
          28                64 y            64 z         1.00000
          29                66 y            66 z         1.00000
          30                67 y            67 z        -1.00000
          31                72 y            72 z         1.00000
          32                73 y            73 z        -1.00000
          33                92 y            92 z        -1.00000
          34               100 y           100 z         1.00000
          35               102 y           102 z         1.00000
          36               104 y           104 z         1.00000
          37               106 y           106 z         1.00000
          38               107 y           107 z         1.00000
          39               108 y           108 z        -1.00000
          40               109 y           109 z         1.00000
          41               110 y           110 z        -1.00000
          42               111 y           111 z         1.00000
          43               112 y           112 z        -1.00000
          44               113 y           113 z         1.00000
          45               114 y           114 z        -1.00000
          46               131 y           131 z        -1.00000
          47               135 y           135 z        -1.00000
          48               138 y           138 z        -1.00000
          49               139 y           139 z        -1.00000
          50               151 y           151 z        -1.00000
          51               152 y           152 z         1.00000
          52               153 y           153 z         1.00000
          53               154 y           154 z        -1.00000
          54               172 y           172 z         1.00000
          55               173 y           173 z        -1.00000
          56               174 y           174 z         1.00000
          57               175 y           175 z        -1.00000
          58               180 y           180 z        -1.00000
          59               181 y           181 z         1.00000
          60               182 y           182 z        -1.00000
          61               183 y           183 z         1.00000
          62               184 y           184 z        -1.00000
          63               187 y           187 z        -1.00000
          64               190 y           190 z         1.00000
          65               197 y           197 z         1.00000
          66               198 y           198 z         1.00000
          67               199 y           199 z        -1.00000
          68               210 y           210 z        -1.00000
          69               213 y           213 z         1.00000
          70               214 y           214 z         1.00000
          71               216 y           216 z         1.00000
          72               217 y           217 z        -1.00000
          73               218 y           218 z         1.00000
          74               219 y           219 z        -1.00000
          75               226 y           226 z        -1.00000
          76               227 y           227 z         1.00000
          77               230 y           230 z        -1.00000
          78               231 y           231 z         1.00000
          79               232 y           232 z        -1.00000
          80               233 y           233 z        -1.00000
          81               234 y           234 z        -1.00000
          82               239 y           239 z         1.00000
          83               240 y           240 z         1.00000
          84               256 y           256 z         1.00000
          85               257 y           257 z        -1.00000
          86               258 y           258 z        -1.00000
          87               259 y           259 z         1.00000
          88               260 y           260 z         1.00000
          89               261 y           261 z        -1.00000
          90               262 y           262 z         1.00000
          91               263 y           263 z        -1.00000
          92               264 y           264 z        -1.00000
          93               266 y           266 z        -1.00000
          94               269 y           269 z         1.00000
          95               272 y           272 z         1.00000
          96               274 y           274 z         1.00000
          97               275 y           275 z        -1.00000
          98               280 y           280 z         1.00000
          99               281 y           281 z        -1.00000
         100               300 y           300 z        -1.00000
         101               308 y           308 z         1.00000
         102               310 y           310 z         1.00000
         103               312 y           312 z         1.00000
         104               314 y           314 z         1.00000
         105               315 y           315 z         1.00000
         106               316 y           316 z        -1.00000
         107               317 y           317 z         1.00000
         108               318 y           318 z        -1.00000
         109               319 y           319 z         1.00000
         110               320 y           320 z        -1.00000
         111               321 y           321 z         1.00000
         112               322 y           322 z        -1.00000
         113               339 y           339 z        -1.00000
         114               343 y           343 z        -1.00000
         115               346 y           346 z        -1.00000
         116               347 y           347 z        -1.00000
         117               359 y           359 z        -1.00000
         118               360 y           360 z         1.00000
         119               361 y           361 z         1.00000
         120               362 y           362 z        -1.00000
         121               380 y           380 z         1.00000
         122               381 y           381 z        -1.00000
         123               382 y           382 z         1.00000
         124               383 y           383 z        -1.00000
         125               388 y           388 z        -1.00000
         126               389 y           389 z         1.00000
         127               390 y           390 z        -1.00000
         128               391 y           391 z         1.00000
         129               392 y           392 z        -1.00000
         130               395 y           395 z        -1.00000
         131               398 y           398 z         1.00000
         132               405 y           405 z         1.00000
         133               406 y           406 z         1.00000
         134               407 y           407 z        -1.00000
--------------------------------------------------------------------------------


  Components of defect energy : 

--------------------------------------------------------------------------------
  Region 1 - region 1                   =    -55.76670605 eV
  Region 1 - region 2a (unrelaxed)      =     86.80042804 eV
  Region 1 - 2a (relaxed - correction)  =     -2.30507696 eV
  Region 1 (Total)                      =     28.72864502 eV
  Region 2a                             =      1.15255816 eV
  Region 2b                             =     -1.15549401 eV
--------------------------------------------------------------------------------
  Total defect energy                   =     28.72570917 eV
--------------------------------------------------------------------------------

  Largest displacement in region 2 =   0.0050 Angstroms


  Number of variables =     1076

  Maximum number of calculations  =        1000
  Maximum Hessian update interval =          10
  Maximum step size               =   1.0000000
  Maximum parameter tolerance     =   0.0000100
  Maximum function  tolerance     =   0.0000100
  Maximum gradient  tolerance     =   0.0010000

  Symmetry adapted optimisation

  Symmetry to be used for second derivatives

  Newton-Raphson optimiser to be used

  BFGS hessian update to be used

  Lower half triangular hessian to be used

  Start of defect optimisation :

  Cycle:      0 Defect Energy:  28.725709  Gnorm:     0.083148  CPU:    4.918
  ** Hessian calculated **
  Cycle:      1 Defect Energy:  20.967626  Gnorm:     0.031691  CPU:   15.074
  Cycle:      2 Defect Energy:  16.966492  Gnorm:     0.016653  CPU:   23.927
  Cycle:      3 Defect Energy:  16.487492  Gnorm:     0.012640  CPU:   29.842
  Cycle:      4 Defect Energy:  15.924966  Gnorm:     0.008228  CPU:   38.708
  Cycle:      5 Defect Energy:  15.554827  Gnorm:     0.006426  CPU:   46.093
  Cycle:      6 Defect Energy:  15.403247  Gnorm:     0.006965  CPU:   53.466
  Cycle:      7 Defect Energy:  15.270984  Gnorm:     0.005205  CPU:   60.841
  Cycle:      8 Defect Energy:  15.146988  Gnorm:     0.004269  CPU:   68.304
  Cycle:      9 Defect Energy:  15.059505  Gnorm:     0.003997  CPU:   75.804
  Cycle:     10 Defect Energy:  14.969561  Gnorm:     0.003393  CPU:   83.310
  ** Hessian calculated **
  Cycle:     11 Defect Energy:  14.924429  Gnorm:     0.003181  CPU:   90.719
  Cycle:     12 Defect Energy:  14.862279  Gnorm:     0.002864  CPU:   92.277
  Cycle:     13 Defect Energy:  14.781831  Gnorm:     0.002392  CPU:   93.853
  Cycle:     14 Defect Energy:  14.689538  Gnorm:     0.001709  CPU:   95.413
  Cycle:     15 Defect Energy:  14.646478  Gnorm:     0.001241  CPU:   96.974
  Cycle:     16 Defect Energy:  14.626603  Gnorm:     0.000893  CPU:   98.540
  Cycle:     17 Defect Energy:  14.617253  Gnorm:     0.000641  CPU:  100.102
  Cycle:     18 Defect Energy:  14.612798  Gnorm:     0.000457  CPU:  101.663
  Cycle:     19 Defect Energy:  14.610650  Gnorm:     0.000325  CPU:  103.225
  Cycle:     20 Defect Energy:  14.609700  Gnorm:     0.000230  CPU:  104.798
  ** Hessian calculated **
  Cycle:     21 Defect Energy:  14.609250  Gnorm:     0.000161  CPU:  112.209
  Cycle:     22 Defect Energy:  14.609096  Gnorm:     0.000114  CPU:  113.785
  Cycle:     23 Defect Energy:  14.608990  Gnorm:     0.000080  CPU:  115.340
  Cycle:     24 Defect Energy:  14.608943  Gnorm:     0.000056  CPU:  116.903
  Cycle:     25 Defect Energy:  14.608923  Gnorm:     0.000039  CPU:  118.461


  **** Optimisation achieved ****


  Final defect energy  =       14.60891504
  Final defect Gnorm   =        0.00002752

  Components of defect energy : 

--------------------------------------------------------------------------------
  Region 1 - region 1                   =    -57.69582864 eV
  Region 1 - region 2a (unrelaxed)      =     74.48573189 eV
  Region 1 - 2a (relaxed - correction)  =     -2.05080246 eV
  Region 1 (Total)                      =     14.73910079 eV
  Region 2a                             =      1.02531588 eV
  Region 2b                             =     -1.15550163 eV
--------------------------------------------------------------------------------
  Total defect energy                   =     14.60891504 eV
--------------------------------------------------------------------------------

  Largest displacement in region 2 =   0.0050 Angstroms

  Final coordinates of region 1 :

--------------------------------------------------------------------------------
   No.  Atomic        x           y           z          Radius      Charge
        Label       (Angs)      (Angs)      (Angs)       (Angs)       (e) 
--------------------------------------------------------------------------------
     1  O     c     2.487085    1.268921    1.268921    0.000000    0.077000
     2  Zr    c     2.532299    2.576032   -0.038191    0.000000    2.650000
     3  Zr    c     2.532299   -0.038191    2.576032    0.000000    2.650000
     4  O     c     1.213173    1.236747    3.721085    0.000000    0.077000
     5  O     c     1.213173    3.721085    1.236747    0.000000    0.077000
     6  O     c     1.213173   -1.183243    1.301095    0.000000    0.077000
     7  O     c     1.213173    1.301095   -1.183243    0.000000    0.077000
     8  O     c     3.843251    3.711160    1.247985    0.000000    0.077000
     9  O     c     3.843251    1.289857   -1.173318    0.000000    0.077000
    10  O     c     3.843251    1.247985    3.711160    0.000000    0.077000
    11  O     c     3.843251   -1.173318    1.289857    0.000000    0.077000
    12  Zr    c    -0.047606   -0.043780   -0.043780    0.000000    2.650000
    13  Zr    c    -0.047606    2.581622    2.581622    0.000000    2.650000
    14  Zr    c     5.122176    2.581609    2.581609    0.000000    2.650000
    15  Zr    c     5.122176   -0.043767   -0.043767    0.000000    2.650000
    16  O     c    -0.538305    1.268921    1.268921    0.000000    0.077000
    17  O     c     1.289234    3.811883    3.811883    0.000000    0.077000
    18  O     c     1.289234   -1.274041   -1.274041    0.000000    0.077000
    19  O     c     1.280577   -1.312783    3.850625    0.000000    0.077000
    20  O     c     1.280577    3.850625   -1.312783    0.000000    0.077000
    21  O     c     3.805850    3.821965    3.821965    0.000000    0.077000
    22  O     c     3.805850   -1.284123   -1.284123    0.000000    0.077000
    23  O     c     3.814914   -1.307842    3.845683    0.000000    0.077000
    24  O     c     3.814914    3.845683   -1.307842    0.000000    0.077000
    25  O     c     5.551882    1.268921    1.268921    0.000000    0.077000
    26  Zr    c     2.538578    2.566238    5.097746    0.000000    2.650000
    27  Zr    c     2.538578   -2.559904   -0.028397    0.000000    2.650000
    28  Zr    c     2.538578    5.097746    2.566238    0.000000    2.650000
    29  Zr    c     2.538578   -0.028397   -2.559904    0.000000    2.650000
    30  O     c    -1.370505   -1.225951    1.216274    0.000000    0.077000
    31  O     c    -1.370505    1.216274   -1.225951    0.000000    0.077000
    32  O     c    -1.370505    1.321567    3.763793    0.000000    0.077000
    33  O     c    -1.370505    3.763793    1.321567    0.000000    0.077000
    34  O     c     6.436226    3.759023    1.318288    0.000000    0.077000
    35  O     c     6.436226    1.318288    3.759023    0.000000    0.077000
    36  O     c     6.436226    1.219554   -1.221181    0.000000    0.077000
    37  O     c     6.436226   -1.221181    1.219554    0.000000    0.077000
    38  Zr    c    -0.005865   -2.556827    2.558356    0.000000    2.650000
    39  Zr    c    -0.005865    5.094669   -0.020514    0.000000    2.650000
    40  Zr    c    -0.005865    2.558356   -2.556827    0.000000    2.650000
    41  Zr    c    -0.005865   -0.020514    5.094669    0.000000    2.650000
    42  Zr    c     5.082664    2.559850   -2.557426    0.000000    2.650000
    43  Zr    c     5.082664    5.095268   -0.022008    0.000000    2.650000
    44  Zr    c     5.082664   -0.022008    5.095268    0.000000    2.650000
    45  Zr    c     5.082664   -2.557426    2.559850    0.000000    2.650000
    46  O     c    -1.242834    3.785094   -1.247252    0.000000    0.077000
    47  O     c    -1.242834   -1.247252    3.785094    0.000000    0.077000
    48  O     c    -1.237330    3.843138    3.843138    0.000000    0.077000
    49  O     c    -1.237330   -1.305296   -1.305296    0.000000    0.077000
    50  O     c     1.282804   -3.746334    1.263528    0.000000    0.077000
    51  O     c     1.282804    1.263528   -3.746334    0.000000    0.077000
    52  O     c     1.282804    1.274314    6.284176    0.000000    0.077000
    53  O     c     1.282804    6.284176    1.274314    0.000000    0.077000
    54  O     c     3.809924    1.273544    6.276884    0.000000    0.077000
    55  O     c     3.809924    6.276884    1.273544    0.000000    0.077000
    56  O     c     3.809924   -3.739042    1.264298    0.000000    0.077000
    57  O     c     3.809924    1.264298   -3.739042    0.000000    0.077000
    58  O     c     6.337531    3.790091   -1.252250    0.000000    0.077000
    59  O     c     6.337531   -1.252250    3.790091    0.000000    0.077000
    60  O     c     6.333747    3.842839    3.842839    0.000000    0.077000
    61  O     c     6.333747   -1.304997   -1.304997    0.000000    0.077000
    62  Zr    c    -2.573227   -0.038470    2.576312    0.000000    2.650000
    63  Zr    c    -2.573227    2.576312   -0.038470    0.000000    2.650000
    64  Zr    c     2.538272   -2.560562    5.098404    0.000000    2.650000
    65  Zr    c     2.538272    5.098404   -2.560562    0.000000    2.650000
    66  Zr    c     7.654522    2.578504   -0.040663    0.000000    2.650000
    67  Zr    c     7.654522   -0.040663    2.578504    0.000000    2.650000
    68  O     c     1.269406    6.339323    3.800512    0.000000    0.077000
    69  O     c     1.269406    3.800512    6.339323    0.000000    0.077000
    70  O     c     1.269406   -3.801481   -1.262670    0.000000    0.077000
    71  O     c     1.269406   -1.262670   -3.801481    0.000000    0.077000
    72  O     c     1.260476   -1.254970    6.368378    0.000000    0.077000
    73  O     c     1.260476    6.368378   -1.254970    0.000000    0.077000
    74  O     c     1.260476   -3.830536    3.792811    0.000000    0.077000
    75  O     c     1.260476    3.792811   -3.830536    0.000000    0.077000
    76  O     c     3.806420    3.793296   -3.826267    0.000000    0.077000
    77  O     c     3.806420   -3.826267    3.793296    0.000000    0.077000
    78  O     c     3.806420   -1.255454    6.364108    0.000000    0.077000
    79  O     c     3.806420    6.364108   -1.255454    0.000000    0.077000
    80  O     c     3.796125    6.346634    3.798560    0.000000    0.077000
[...]
    336 y         -6.344605     -6.349898    -0.005294    Cartesian    0.08
    336 z          3.806763      3.805522    -0.001240    Cartesian   -0.03
    337 x          1.268921      1.270994     0.002073    Cartesian    0.16
    337 y          1.268921      1.269110     0.000189    Cartesian    0.01
    337 z         11.420288     11.403517    -0.016771    Cartesian   -0.15
    338 x          3.806763      3.807501     0.000738    Cartesian    0.02
    338 y          1.268921      1.268945     0.000024    Cartesian    0.00
    338 z         11.420288     11.401411    -0.018877    Cartesian   -0.17
    339 x         -7.613525     -7.613107     0.000419    Cartesian   -0.01
    339 y         -0.000000     -0.012071    -0.012071    Cartesian *******
    339 z          2.537842      2.549912     0.012071    Cartesian    0.48
    340 x          8.882446      8.882798     0.000352    Cartesian    0.00
    340 y         -1.268921     -1.267681     0.001240    Cartesian   -0.10
    340 z          8.882446      8.886814     0.004367    Cartesian    0.05
    341 x          8.882446      8.885638     0.003191    Cartesian    0.04
    341 y          8.882446      8.875935    -0.006511    Cartesian   -0.07
    341 z          3.806763      3.807891     0.001128    Cartesian    0.03
    342 x         11.420288     11.416342    -0.003946    Cartesian   -0.03
    342 y          1.268921      1.274611     0.005690    Cartesian    0.45
    342 z         -3.806763     -3.803860     0.002903    Cartesian   -0.08
    343 x         -2.537842     -2.538340    -0.000498    Cartesian    0.02
    343 y         -5.075684     -5.081070    -0.005386    Cartesian    0.11
    343 z          7.613525      7.618912     0.005386    Cartesian    0.07
    344 x         -2.537842     -2.537463     0.000379    Cartesian   -0.01
    344 y          2.537842      2.537872     0.000030    Cartesian    0.00
    344 z         10.151367     10.154121     0.002753    Cartesian    0.03
    345 x          7.613525      7.613363    -0.000162    Cartesian   -0.00
    345 y         10.151367     10.154356     0.002989    Cartesian    0.03
    345 z          2.537842      2.537230    -0.000612    Cartesian   -0.02
    346 x          7.613525      7.613372    -0.000153    Cartesian   -0.00
    346 y         -5.075684     -5.081669    -0.005985    Cartesian    0.12
    346 z          7.613525      7.619510     0.005985    Cartesian    0.08
    347 x         12.689209     12.691147     0.001938    Cartesian    0.02
    347 y          2.537842      2.551146     0.013304    Cartesian    0.52
    347 z          0.000000     -0.013304    -0.013304    Cartesian *******
    348 x         -6.344605     -6.346976    -0.002371    Cartesian    0.04
    348 y         -3.806763     -3.807373    -0.000610    Cartesian    0.02
    348 z         -1.268921     -1.272416    -0.003495    Cartesian    0.28
    349 x         -6.344605     -6.350794    -0.006189    Cartesian    0.10
    349 y         -3.806763     -3.800277     0.006485    Cartesian   -0.17
    349 z          3.806763      3.808774     0.002012    Cartesian    0.05
    350 x          1.268921      1.267782    -0.001139    Cartesian   -0.09
    350 y         11.420288     11.425698     0.005410    Cartesian    0.05
    350 z         -1.268921     -1.267122     0.001799    Cartesian   -0.14
    351 x          1.268921      1.270957     0.002036    Cartesian    0.16
    351 y          3.806763      3.805497    -0.001266    Cartesian   -0.03
    351 z         11.420288     11.416872    -0.003417    Cartesian   -0.03
    352 x          3.806763      3.807310     0.000548    Cartesian    0.01
    352 y         -1.268921     -1.267234     0.001687    Cartesian   -0.13
    352 z         11.420288     11.424552     0.004263    Cartesian    0.04
    353 x          3.806763      3.803695    -0.003067    Cartesian   -0.08
    353 y          3.806763      3.805251    -0.001512    Cartesian   -0.04
    353 z         11.420288     11.419060    -0.001228    Cartesian   -0.01
    354 x         -5.075684     -5.080133    -0.004450    Cartesian    0.09
    354 y          5.075684      5.075977     0.000293    Cartesian    0.01
    354 z         -5.075684     -5.081252    -0.005569    Cartesian    0.11
    355 x         11.420288     11.417451    -0.002837    Cartesian   -0.02
    355 y          6.344605      6.347468     0.002864    Cartesian    0.05
    355 z          3.806763      3.808236     0.001474    Cartesian    0.04
    356 x         11.420288     11.422627     0.002339    Cartesian    0.02
    356 y          6.344605      6.341168    -0.003436    Cartesian   -0.05
    356 z         -1.268921     -1.268238     0.000683    Cartesian   -0.05
    357 x         10.151367     10.155667     0.004300    Cartesian    0.04
    357 y          5.075684      5.077456     0.001773    Cartesian    0.03
    357 z         -5.075684     -5.082256    -0.006572    Cartesian    0.13
    358 x         -1.268921     -1.267460     0.001460    Cartesian   -0.12
    358 y          1.268921      1.265978    -0.002943    Cartesian   -0.23
    358 z         11.420288     11.413458    -0.006830    Cartesian   -0.06
    359 x          1.268921      1.273290     0.004369    Cartesian    0.34
    359 y         -6.344605     -6.342969     0.001636    Cartesian   -0.03
    359 z          8.882446      8.880810    -0.001636    Cartesian   -0.02
    360 x          1.268921      1.267699    -0.001222    Cartesian   -0.10
    360 y          8.882446      8.880405    -0.002041    Cartesian   -0.02
    360 z          8.882446      8.880405    -0.002041    Cartesian   -0.02
    361 x          3.806763      3.809466     0.002703    Cartesian    0.07
    361 y          8.882446      8.880522    -0.001924    Cartesian   -0.02
    361 z          8.882446      8.880522    -0.001924    Cartesian   -0.02
    362 x          3.806763      3.803690    -0.003072    Cartesian   -0.08
    362 y         -6.344605     -6.342963     0.001641    Cartesian   -0.03
    362 z          8.882446      8.880805    -0.001641    Cartesian   -0.02
    363 x          6.344605      6.345356     0.000751    Cartesian    0.01
    363 y         11.420288     11.412423    -0.007865    Cartesian   -0.07
    363 z          1.268921      1.265769    -0.003152    Cartesian   -0.25
    364 x         -7.613525     -7.622143    -0.008618    Cartesian    0.11
    364 y         -0.000000      0.002575     0.002575    Cartesian *******
    364 z         -2.537842     -2.538072    -0.000230    Cartesian    0.01
    365 x         -2.537842     -2.541102    -0.003260    Cartesian    0.13
    365 y         -7.613525     -7.618014    -0.004489    Cartesian    0.06
    365 z          5.075684      5.077433     0.001749    Cartesian    0.03
    366 x          2.537842      2.537715    -0.000127    Cartesian   -0.01
    366 y         10.151367     10.158415     0.007047    Cartesian    0.07
    366 z          7.613525      7.616628     0.003103    Cartesian    0.04
    367 x          7.613525      7.616514     0.002989    Cartesian    0.04
    367 y         -2.537842     -2.539387    -0.001545    Cartesian    0.06
    367 z         10.151367     10.156071     0.004704    Cartesian    0.05
    368 x         12.689209     12.701986     0.012777    Cartesian    0.10
    368 y          5.075684      5.076695     0.001012    Cartesian    0.02
    368 z          2.537842      2.535897    -0.001945    Cartesian   -0.08
    369 x         -3.806763     -3.804999     0.001763    Cartesian   -0.05
    369 y          6.344605      6.341978    -0.002627    Cartesian   -0.04
    369 z          8.882446      8.881051    -0.001395    Cartesian   -0.02
    370 x         -3.806763     -3.806288     0.000474    Cartesian   -0.01
    370 y          8.882446      8.878915    -0.003531    Cartesian   -0.04
    370 z         -3.806763     -3.805686     0.001077    Cartesian   -0.03
    371 x         -1.268921     -1.267544     0.001377    Cartesian   -0.11
    371 y         -8.882446     -8.872879     0.009568    Cartesian   -0.11
    371 z          3.806763      3.804834    -0.001928    Cartesian   -0.05
    372 x         -1.268921     -1.267900     0.001021    Cartesian   -0.08
    372 y          3.806763      3.802969    -0.003793    Cartesian   -0.10
    372 z         11.420288     11.424042     0.003754    Cartesian    0.03
    373 x          6.344605      6.342650    -0.001954    Cartesian   -0.03
    373 y         -1.268921     -1.267061     0.001860    Cartesian   -0.15
    373 z         11.420288     11.411113    -0.009175    Cartesian   -0.08
    374 x          6.344605      6.342823    -0.001782    Cartesian   -0.03
    374 y          3.806763      3.802503    -0.004259    Cartesian   -0.11
    374 z         11.420288     11.423668     0.003380    Cartesian    0.03
    375 x          8.882446      8.881879    -0.000568    Cartesian   -0.01
    375 y          8.882446      8.878281    -0.004166    Cartesian   -0.05
    375 z         -3.806763     -3.805526     0.001237    Cartesian   -0.03
    376 x          8.882446      8.878138    -0.004308    Cartesian   -0.05
    376 y          8.882446      8.880623    -0.001823    Cartesian   -0.02
    376 z          6.344605      6.342119    -0.002486    Cartesian   -0.04
    377 x          0.000000     -0.001370    -0.001370    Cartesian *******
    377 y         -7.613525     -7.619923    -0.006397    Cartesian    0.08
    377 z          7.613525      7.616911     0.003386    Cartesian    0.04
    378 x          5.075684      5.076740     0.001056    Cartesian    0.02
    378 y         -5.075684     -5.079155    -0.003472    Cartesian    0.07
    378 z         10.151367     10.158008     0.006641    Cartesian    0.07
    379 x         -8.882446     -8.791958     0.090488    Cartesian   -1.02
    379 y          1.268921      1.268921     0.000000    Cartesian    0.00
    379 z          1.268921      1.268921     0.000000    Cartesian    0.00
    380 x         -6.344605     -6.336821     0.007783    Cartesian   -0.12
    380 y          6.344605      6.341029    -0.003575    Cartesian   -0.06
    380 z          6.344605      6.341029    -0.003575    Cartesian   -0.06
    381 x         -6.344605     -6.343956     0.000649    Cartesian   -0.01
    381 y         -3.806763     -3.806429     0.000333    Cartesian   -0.01
    381 z          6.344605      6.344271    -0.000333    Cartesian   -0.01
    382 x         -1.268921     -1.263736     0.005185    Cartesian   -0.41
    382 y          8.882446      8.876952    -0.005494    Cartesian   -0.06
    382 z          8.882446      8.876952    -0.005494    Cartesian   -0.06
    383 x         -1.268921     -1.268841     0.000080    Cartesian   -0.01
    383 y         -6.344605     -6.341524     0.003080    Cartesian   -0.05
    383 z          8.882446      8.879366    -0.003080    Cartesian   -0.03
    384 x          1.268921      1.270163     0.001242    Cartesian    0.10
    384 y         -8.882446     -8.875323     0.007123    Cartesian   -0.08
    384 z          6.344605      6.342874    -0.001731    Cartesian   -0.03
    385 x          1.268921      1.270740     0.001819    Cartesian    0.14
    385 y          6.344605      6.343576    -0.001028    Cartesian   -0.02
    385 z         11.420288     11.415266    -0.005023    Cartesian   -0.04
    386 x          3.806763      3.805859    -0.000904    Cartesian   -0.02
    386 y         11.420288     11.414594    -0.005694    Cartesian   -0.05
    386 z          6.344605      6.343370    -0.001234    Cartesian   -0.02
    387 x          3.806763      3.806521    -0.000242    Cartesian   -0.01
    387 y         -3.806763     -3.805365     0.001397    Cartesian   -0.04
    387 z         11.420288     11.413484    -0.006804    Cartesian   -0.06
    388 x          6.344605      6.345483     0.000878    Cartesian    0.01
    388 y         -6.344605     -6.341429     0.003176    Cartesian   -0.05
    388 z          8.882446      8.879271    -0.003176    Cartesian   -0.04
    389 x          6.344605      6.340118    -0.004487    Cartesian   -0.07
    389 y          8.882446      8.876590    -0.005856    Cartesian   -0.07
    389 z          8.882446      8.876590    -0.005856    Cartesian   -0.07
    390 x         -7.613525     -7.618455    -0.004929    Cartesian    0.06
    390 y         -2.537842     -2.545648    -0.007806    Cartesian    0.31
    390 z          5.075684      5.083490     0.007806    Cartesian    0.15
    391 x         11.420288     11.413974    -0.006314    Cartesian   -0.06
    391 y         -3.806763     -3.800973     0.005790    Cartesian   -0.15
    391 z         -3.806763     -3.800973     0.005790    Cartesian   -0.15
    392 x         11.420288     11.423211     0.002923    Cartesian    0.03
    392 y          6.344605      6.343128    -0.001477    Cartesian   -0.02
    392 z         -3.806763     -3.805286     0.001477    Cartesian   -0.04
    393 x         13.958130     13.864698    -0.093432    Cartesian   -0.67
    393 y          1.268921      1.268921     0.000000    Cartesian    0.00
    393 z          1.268921      1.268921     0.000000    Cartesian    0.00
    394 x          2.537842      2.537511    -0.000331    Cartesian   -0.01
    394 y         -0.000000     -0.004095    -0.004095    Cartesian *******
    394 z         12.689209     12.696961     0.007752    Cartesian    0.06
    395 x         12.689209     12.700272     0.011063    Cartesian    0.09
    395 y          5.075684      5.085070     0.009386    Cartesian    0.18
    395 z         -2.537842     -2.547228    -0.009386    Cartesian    0.37
    396 x         -8.882446     -8.911175    -0.028729    Cartesian    0.32
    396 y          1.268921      1.263721    -0.005200    Cartesian   -0.41
    396 z          3.806763      3.800185    -0.006578    Cartesian   -0.17
    397 x         -6.344605     -6.345546    -0.000942    Cartesian    0.01
    397 y         -6.344605     -6.341831     0.002774    Cartesian   -0.04
    397 z          1.268921      1.267376    -0.001545    Cartesian   -0.12
    398 x         -5.075684     -5.080906    -0.005222    Cartesian    0.10
    398 y          7.613525      7.621197     0.007671    Cartesian    0.10
    398 z          7.613525      7.621197     0.007671    Cartesian    0.10
    399 x         -5.075684     -5.079501    -0.003817    Cartesian    0.08
    399 y         -7.613525     -7.620107    -0.006581    Cartesian    0.09
    399 z          2.537842      2.538678     0.000836    Cartesian    0.03
    400 x         11.420288     11.412274    -0.008015    Cartesian   -0.07
    400 y          8.882446      8.875494    -0.006952    Cartesian   -0.08
    400 z          1.268921      1.272025     0.003104    Cartesian    0.24
    401 x         13.958130     13.978064     0.019934    Cartesian    0.14
    401 y          3.806763      3.799120    -0.007643    Cartesian   -0.20
    401 z          1.268921      1.264622    -0.004299    Cartesian   -0.34
    402 x          0.000000     -0.002739    -0.002739    Cartesian *******
    402 y          2.537842      2.540565     0.002724    Cartesian    0.11
    402 z         12.689209     12.698195     0.008985    Cartesian    0.07
    403 x          5.075684      5.078184     0.002501    Cartesian    0.05
    403 y          2.537842      2.540750     0.002908    Cartesian    0.11
    403 z         12.689209     12.698264     0.009055    Cartesian    0.07
    404 x         10.151367     10.156366     0.004998    Cartesian    0.05
    404 y         10.151367     10.159093     0.007726    Cartesian    0.08
    404 z          0.000000     -0.002446    -0.002446    Cartesian    0.00
    405 x         10.151367     10.157331     0.005964    Cartesian    0.06
    405 y          7.613525      7.621483     0.007957    Cartesian    0.10
    405 z          7.613525      7.621483     0.007957    Cartesian    0.10
    406 x         -8.882446     -8.861357     0.021090    Cartesian   -0.24
    406 y          3.806763      3.805197    -0.001565    Cartesian   -0.04
    406 z          3.806763      3.805197    -0.001565    Cartesian   -0.04
    407 x         -8.882446     -8.855765     0.026681    Cartesian   -0.30
    407 y         -1.268921     -1.268533     0.000388    Cartesian   -0.03
    407 z          3.806763      3.806375    -0.000388    Cartesian   -0.01
    408 x         -6.344605     -6.342037     0.002567    Cartesian   -0.04
    408 y         -1.268921     -1.269110    -0.000189    Cartesian    0.01
    408 z          8.882446      8.877768    -0.004679    Cartesian   -0.05
    409 x         -6.344605     -6.333856     0.010749    Cartesian   -0.17
    409 y          3.806763      3.801705    -0.005058    Cartesian   -0.13
    409 z          8.882446      8.875924    -0.006522    Cartesian   -0.07
    410 x         -3.806763     -3.803013     0.003750    Cartesian   -0.10
    410 y         -8.882446     -8.871823     0.010624    Cartesian   -0.12
    410 z          1.268921      1.269118     0.000197    Cartesian    0.02
    411 x         -1.268921     -1.263743     0.005178    Cartesian   -0.41
    411 y          6.344605      6.338219    -0.006385    Cartesian   -0.10
    411 z         11.420288     11.408412    -0.011876    Cartesian   -0.10
    412 x         -1.268921     -1.266454     0.002467    Cartesian   -0.19
    412 y         -8.882446     -8.876113     0.006334    Cartesian   -0.07
    412 z          6.344605      6.342020    -0.002584    Cartesian   -0.04
    413 x          6.344605      6.342710    -0.001894    Cartesian   -0.03
    413 y         11.420288     11.413422    -0.006866    Cartesian   -0.06
    413 z         -3.806763     -3.803897     0.002866    Cartesian   -0.08
    414 x          6.344605      6.340015    -0.004589    Cartesian   -0.07
    414 y         11.420288     11.408316    -0.011972    Cartesian   -0.10
    414 z          6.344605      6.337991    -0.006613    Cartesian   -0.10
    415 x         -7.613525     -7.623384    -0.009859    Cartesian    0.13
    415 y          2.537842      2.539692     0.001850    Cartesian    0.07
    415 z         -5.075684     -5.082212    -0.006528    Cartesian    0.13
    416 x          8.882446      8.879305    -0.003141    Cartesian   -0.04
    416 y          1.268921      1.268494    -0.000427    Cartesian   -0.03
    416 z         11.420288     11.408969    -0.011319    Cartesian   -0.10
--------------------------------------------------------------------------------


  Time to end of optimisation  =      120.0278 seconds


  Peak dynamic memory used =     411.33 MB 


  Timing analysis for GULP :

--------------------------------------------------------------------------------
  Task / Subroutine                                          Time (Seconds)
--------------------------------------------------------------------------------
  Calculation of reciprocal space energy and derivatives          0.0002
  Calculation of reciprocal space energy using symmetry           0.0002
  Calculation of real space energy and derivatives                0.0019
  Calculation of real space energy using symmetry                 0.0070
  Calculation for region 1 energy and derivatives (2-b)          30.9023
  Calculation for region 2a energy                               76.1924
  Calculation for region 2b energy                                0.0105
  Calculation and manipulation of Hessian matrix                 11.6354
  Calculation of matrix inversion                                 0.8515
  Symmetry generation of equivalent positions                     0.0015
--------------------------------------------------------------------------------
  Total CPU time                                                120.0278
--------------------------------------------------------------------------------


  Dump file written as ZrO2.grs


  Job Finished at 12:34.37 14th October    2020                               

