********************************************************************************
*                       GENERAL UTILITY LATTICE PROGRAM                        *
*                                 Julian Gale                                  *
*                       Curtin Institute for Computation                       *
*                    School of Molecular and Life Sciences                     *
*                    Curtin University, Western Australia                      *
********************************************************************************
* Version = 5.2.0 * Last modified =  10th September 2020                       *
********************************************************************************
* Zirconia doped with calcium                                                  *
*  optimise     - perform optimisation run                                     *
*  conp         - constant pressure calculation                                *
*  property     - calculate properties for final geometry                      *
*  defect       - perform defect calculation after bulk run                    *
*  distance     - calculate distances                                          *
*  compare      - compare initial and final structures                         *
********************************************************************************
* Zirconia doped with calcium                                                  *
********************************************************************************


  Job Started  at 12:34.37 14th October    2020                               

  Number of CPUs =     1


  Total number of configurations input =      1

********************************************************************************
*  Input for Configuration =   1 : ZrO2                                        *
********************************************************************************

  Formula = ZrO2                                                        

  Number of irreducible atoms/shells =       4


  Total number atoms/shells =       6

  Dimensionality = 3               :  Bulk   


  Symmetry :

  Crystal family                   :  Cubic       
  Crystal class  (Groth - 1921)    :  Cubic Hexakisoctahedral              

  Space group (centrosymmetric)    :  F M 3 M         

  Patterson group                  :  F m -3 m 

  Cartesian lattice vectors (Angstroms) :

        0.000000    2.535000    2.535000
        2.535000    0.000000    2.535000
        2.535000    2.535000    0.000000

  Primitive cell parameters :            Full cell parameters :

  a =   3.5850    alpha =  60.0000       a =   5.0700    alpha =  90.0000
  b =   3.5850    beta  =  60.0000       b =   5.0700    beta  =  90.0000
  c =   3.5850    gamma =  60.0000       c =   5.0700    gamma =  90.0000

  Initial volumes (Angstroms**3):

  Primitive cell =          32.580961    Full cell =         130.323843

  Temperature of configuration =   0.00     K 

  Pressure of configuration =         0.000 GPa 

  Fractional coordinates of asymmetric unit :

--------------------------------------------------------------------------------
   No.  Atomic       x           y          z         Charge      Occupancy
        Label      (Frac)      (Frac)     (Frac)        (e)         (Frac)  
--------------------------------------------------------------------------------
      1 Zr    c    0.000000    0.000000    0.000000     2.65000    1.000000    
      2 O     c    0.250000    0.250000    0.250000     0.07700    1.000000    
      3 Zr    s    0.000000    0.000000    0.000000     1.35000    1.000000    
      4 O     s    0.250000    0.250000    0.250000    -2.07700    1.000000    
--------------------------------------------------------------------------------


  Constraints : 

--------------------------------------------------------------------------------
  Constraint no.      Unconstrained     Constrained    Coefficient    Offset
                         Variable         Variable
--------------------------------------------------------------------------------
           1              Strain 1        Strain 2       1.00000      0.0000
           2              Strain 1        Strain 3       1.00000      0.0000
--------------------------------------------------------------------------------


  Distance calculation :


  Cutoff for distances  =      4.000000 Angstroms

--------------------------------------------------------------------------------
  Asymmetric unit site  Full lattice sites    No.  Distance      No.  Distance
      No.   At.No.            At.No.                (Angs)             (Angs) 
--------------------------------------------------------------------------------
       1   Zr    core        Zr    core        12    3.5850
                             Zr    shell       12    3.5850
                             O     core         8    2.1954
                             O     shell        8    2.1954
--------------------------------------------------------------------------------
       2   O     core        Zr    core         4    2.1954
                             Zr    shell        4    2.1954
                             O     core         6    2.5350       12    3.5850
                             O     shell        6    2.5350       12    3.5850
--------------------------------------------------------------------------------
       3   Zr    shell       Zr    core        12    3.5850
                             Zr    shell       12    3.5850
                             O     core         8    2.1954
                             O     shell        8    2.1954
--------------------------------------------------------------------------------
       4   O     shell       Zr    core         4    2.1954
                             Zr    shell        4    2.1954
                             O     core         6    2.5350       12    3.5850
                             O     shell        6    2.5350       12    3.5850
--------------------------------------------------------------------------------



********************************************************************************
*  General input information                                                   *
********************************************************************************

  Species output for all configurations : 

--------------------------------------------------------------------------------
  Species    Type    Atomic    Atomic    Charge       Radii (Angs)     Library
                     Number     Mass       (e)     Cova   Ionic  VDW   Symbol
--------------------------------------------------------------------------------
    Zr       Core       40      91.22   2.650000   1.560  0.000  2.330          
    Zr       Shell      40       0.00   1.350000   1.560  0.000  2.330          
    O        Core        8      16.00   0.077000   0.730  0.000  1.360          
    O        Shell       8       0.00  -2.077000   0.730  0.000  1.360          
--------------------------------------------------------------------------------


  Lattice summation method               =    Ewald          (3-D)
                                         =    Parry          (2-D)
                                         =    Saunders et al (1-D)
  Accuracy factor for lattice sums       =   12.000


  Analytic derivatives to be used

  Time limit = Infinity

  Maximum range for interatomic potentials =    100000.000000 Angstroms

  General interatomic potentials :

--------------------------------------------------------------------------------
Atom  Types   Potential      Parameter       Value         Units   Cutoffs(Ang)
  1     2                                                            Min /  Max 
--------------------------------------------------------------------------------
O    s Zr   s Buckingham    Buckingham A     985.86900    eV        0.000 12.000
                            Buckingham rho  0.37600000    Ang       
                            Buckingham C     0.0000000    eV*Ang^6  
--------------------------------------------------------------------------------
O    s O    s Buckingham    Buckingham A     22764.300    eV        0.000 12.000
                            Buckingham rho  0.14900000    Ang       
                            Buckingham C     27.890000    eV*Ang^6  
--------------------------------------------------------------------------------
Zr   c Zr   s Spring (c-s)  Spring k 2       169.61700    eV*Ang^-2 0.000  0.800
                            Spring k 4       0.0000000    eV*Ang^-4 
--------------------------------------------------------------------------------
O    c O    s Spring (c-s)  Spring k 2       27.290000    eV*Ang^-2 0.000  0.800
                            Spring k 4       0.0000000    eV*Ang^-4 
--------------------------------------------------------------------------------

********************************************************************************
*  Output for configuration   1 : ZrO2                                         *
********************************************************************************


  Components of energy : 

--------------------------------------------------------------------------------
  Interatomic potentials     =          22.43756329 eV    
  Monopole - monopole (real) =         -15.67991073 eV    
  Monopole - monopole (recip)=        -116.52038266 eV    
  Monopole - monopole (total)=        -132.20029339 eV    
--------------------------------------------------------------------------------
  Total lattice energy : 
    Primitive unit cell      =        -109.76273010 eV    
    Non-primitive unit cell  =        -439.05092039 eV    
--------------------------------------------------------------------------------
  Total lattice energy (in kJmol-1): 
    Primitive unit cell      =          -10590.4256 kJ/(mole unit cells)
    Non-primitive unit cell  =          -42361.7023 kJ/(mole unit cells)
--------------------------------------------------------------------------------


  Number of variables =        1

  Maximum number of calculations  =          1000
  Maximum Hessian update interval =            10
  Maximum step size               =   1.000000000
  Maximum parameter tolerance     =   0.000010000
  Maximum function  tolerance     =   0.000010000
  Maximum gradient  tolerance     =   0.001000000
  Maximum gradient  component     =   0.010000000

  Symmetry constrained optimisation

  Symmetry used for second derivatives

  Cell parameters to be optimised using strains

  Newton-Raphson optimiser to be used

  BFGS hessian update to be used

  Lower half triangular hessian to be used

  Start of bulk optimisation :

  Cycle:      0 Energy:      -109.762730  Gnorm:      0.588311  CPU:    0.006
  ** Hessian calculated **
  Cycle:      1 Energy:      -109.763059  Gnorm:      0.000316  CPU:    0.009


  **** Optimisation achieved ****


  Final energy =    -109.76305939 eV
  Final Gnorm  =       0.00000099

  Components of energy : 

--------------------------------------------------------------------------------
  Interatomic potentials     =          22.28919976 eV    
  Monopole - monopole (real) =         -15.66235280 eV    
  Monopole - monopole (recip)=        -116.38990634 eV    
  Monopole - monopole (total)=        -132.05225914 eV    
--------------------------------------------------------------------------------
  Total lattice energy : 
    Primitive unit cell      =        -109.76305939 eV    
    Non-primitive unit cell  =        -439.05223754 eV    
--------------------------------------------------------------------------------
  Total lattice energy (in kJmol-1): 
    Primitive unit cell      =          -10590.4573 kJ/(mole unit cells)
    Non-primitive unit cell  =          -42361.8294 kJ/(mole unit cells)
--------------------------------------------------------------------------------

  Final asymmetric unit coordinates :

--------------------------------------------------------------------------------
   No.  Atomic        x           y           z         Radius
        Label       (Frac)      (Frac)      (Frac)       (Angs) 
--------------------------------------------------------------------------------
     1  Zr    c     0.000000    0.000000    0.000000    0.000000
     2  O     c     0.250000    0.250000    0.250000    0.000000
     3  Zr    s     0.000000    0.000000    0.000000    0.000000
     4  O     s     0.250000    0.250000    0.250000    0.000000
--------------------------------------------------------------------------------

  Final Cartesian lattice vectors (Angstroms) :

        0.000000    2.537842    2.537842
        2.537842    0.000000    2.537842
        2.537842    2.537842    0.000000


  Final cell parameters and derivatives :

--------------------------------------------------------------------------------
       a            3.589050 Angstrom     dE/de1(xx)    -0.000001 eV/strain
       b            3.589050 Angstrom     dE/de2(yy)     0.000000 eV/strain
       c            3.589050 Angstrom     dE/de3(zz)     0.000000 eV/strain
       alpha       60.000000 Degrees      dE/de4(yz)     0.000000 eV/strain
       beta        60.000000 Degrees      dE/de5(xz)     0.000000 eV/strain
       gamma       60.000000 Degrees      dE/de6(xy)     0.000000 eV/strain
--------------------------------------------------------------------------------

  Primitive cell volume =            32.690656 Angs**3

  Density of cell =      6.259124 g/cm**3

  Non-primitive lattice parameters :

  a    =     5.075684  b   =     5.075684  c    =     5.075684
  alpha=    90.000000  beta=    90.000000  gamma=    90.000000

  Non-primitive cell volume =           130.762624 Angs**3


  Final internal derivatives :

--------------------------------------------------------------------------------
   No.  Atomic          a             b             c           Radius
        Label          (eV)          (eV)          (eV)        (eV/Angs)
--------------------------------------------------------------------------------
      1 Zr    c       0.000000      0.000000      0.000000      0.000000
      2 O     c       0.000000      0.000000      0.000000      0.000000
      3 Zr    s       0.000000      0.000000      0.000000      0.000000
      4 O     s       0.000000      0.000000      0.000000      0.000000
--------------------------------------------------------------------------------
  Maximum abs         0.000000      0.000000      0.000000      0.000000
--------------------------------------------------------------------------------

  Comparison of initial and final structures : 

--------------------------------------------------------------------------------
  Parameter   Initial value   Final value   Difference    Units      Percent
--------------------------------------------------------------------------------
    Volume       130.323843    130.762624     0.438781    Angs**3      0.34
    a              5.070000      5.075684     0.005684    Angstroms    0.11
    b              5.070000      5.075684     0.005684    Angstroms    0.11
    c              5.070000      5.075684     0.005684    Angstroms    0.11
    alpha         90.000000     90.000000     0.000000    Degrees      0.00
    beta          90.000000     90.000000     0.000000    Degrees      0.00
    gamma         90.000000     90.000000     0.000000    Degrees      0.00
      1 x          0.000000      0.000000     0.000000    Fractional   0.00
      1 y          0.000000      0.000000     0.000000    Fractional   0.00
      1 z          0.000000      0.000000     0.000000    Fractional   0.00
      2 x          0.250000      0.250000     0.000000    Fractional   0.00
      2 y          0.250000      0.250000     0.000000    Fractional   0.00
      2 z          0.250000      0.250000     0.000000    Fractional   0.00
      3 x          0.000000      0.000000     0.000000    Fractional   0.00
      3 y          0.000000      0.000000     0.000000    Fractional   0.00
      3 z          0.000000      0.000000     0.000000    Fractional   0.00
      4 x          0.250000      0.250000     0.000000    Fractional   0.00
      4 y          0.250000      0.250000     0.000000    Fractional   0.00
      4 z          0.250000      0.250000     0.000000    Fractional   0.00
--------------------------------------------------------------------------------


  Distance calculation :


  Cutoff for distances  =      4.000000 Angstroms

--------------------------------------------------------------------------------
  Asymmetric unit site  Full lattice sites    No.  Distance      No.  Distance
      No.   At.No.            At.No.                (Angs)             (Angs) 
--------------------------------------------------------------------------------
       1   Zr    core        Zr    core        12    3.5891
                             Zr    shell       12    3.5891
                             O     core         8    2.1978
                             O     shell        8    2.1978
--------------------------------------------------------------------------------
       2   O     core        Zr    core         4    2.1978
                             Zr    shell        4    2.1978
                             O     core         6    2.5378       12    3.5891
                             O     shell        6    2.5378       12    3.5891
--------------------------------------------------------------------------------
       3   Zr    shell       Zr    core        12    3.5891
                             Zr    shell       12    3.5891
                             O     core         8    2.1978
                             O     shell        8    2.1978
--------------------------------------------------------------------------------
       4   O     shell       Zr    core         4    2.1978
                             Zr    shell        4    2.1978
                             O     core         6    2.5378       12    3.5891
                             O     shell        6    2.5378       12    3.5891
--------------------------------------------------------------------------------



  Born effective charge tensors : 

-------------------------------------------------------------------------------
  Atom             x           y             z
-------------------------------------------------------------------------------
    1 Zr    x       3.6770      0.0000      0.0000
            y       0.0000      3.6770      0.0000
            z       0.0000      0.0000      3.6770
-------------------------------------------------------------------------------
    2 O     x      -1.8385      0.0000      0.0000
            y       0.0000     -1.8385     -0.0000
            z       0.0000     -0.0000     -1.8385
-------------------------------------------------------------------------------




  Elastic Constant Matrix: (Units=GPa)

-------------------------------------------------------------------------------
  Indices      1         2         3         4         5         6    
-------------------------------------------------------------------------------
       1    616.2933  119.6612  119.6612   -0.0000   -0.0000   -0.0000
       2    119.6612  616.2933  119.6612   -0.0000   -0.0000   -0.0000
       3    119.6612  119.6612  616.2933   -0.0000   -0.0000   -0.0000
       4     -0.0000   -0.0000   -0.0000  100.8598    0.0000   -0.0000
       5     -0.0000   -0.0000   -0.0000    0.0000  100.8598    0.0000
       6     -0.0000   -0.0000   -0.0000   -0.0000    0.0000  100.8598
-------------------------------------------------------------------------------


  Elastic Compliance Matrix: (Units=1/GPa)

-------------------------------------------------------------------------------
  Indices      1         2         3         4         5         6    
-------------------------------------------------------------------------------
       1    0.001732 -0.000282 -0.000282  0.000000  0.000000  0.000000
       2   -0.000282  0.001732 -0.000282 -0.000000  0.000000  0.000000
       3   -0.000282 -0.000282  0.001732  0.000000  0.000000  0.000000
       4    0.000000 -0.000000  0.000000  0.009915 -0.000000  0.000000
       5    0.000000  0.000000  0.000000 -0.000000  0.009915 -0.000000
       6    0.000000  0.000000  0.000000  0.000000 -0.000000  0.009915
-------------------------------------------------------------------------------

  Mechanical properties :

-------------------------------------------------------------------------------
  Convention :                    Reuss         Voigt         Hill
-------------------------------------------------------------------------------
  Bulk  Modulus (GPa)     =     285.20524     285.20524     285.20524
  Shear Modulus (GPa)     =     132.28031     159.84228     146.06129
-------------------------------------------------------------------------------
  Velocity S-wave (km/s)  =       4.59717       5.05346       4.83071
  Velocity P-wave (km/s)  =       8.58749       8.92280       8.75675
-------------------------------------------------------------------------------
  Compressibility (1/GPa) =    0.00350625
-------------------------------------------------------------------------------
  Stress axis :                     x             y             z
-------------------------------------------------------------------------------
  Youngs Moduli (GPa)     =     577.38110     577.38110     577.38110
-------------------------------------------------------------------------------
  Poissons Ratio (x)      =                     0.16259       0.16259
  Poissons Ratio (y)      =       0.16259                     0.16259
  Poissons Ratio (z)      =       0.16259       0.16259
-------------------------------------------------------------------------------


  Piezoelectric Strain Matrix: (Units=C/m**2)

-------------------------------------------------------------------------------
  Indices      1         2         3         4         5         6    
-------------------------------------------------------------------------------
       x    -0.00000   0.00000   0.00000   0.00000   0.00000   0.00000
       y    -0.00000  -0.00000  -0.00000   0.00000   0.00000   0.00000
       z    -0.00000  -0.00000  -0.00000   0.00000   0.00000   0.00000
-------------------------------------------------------------------------------


  Piezoelectric Stress Matrix: (Units=10**-11 C/N)

-------------------------------------------------------------------------------
  Indices      1         2         3         4         5         6    
-------------------------------------------------------------------------------
       x    -0.00000   0.00000   0.00000   0.00000   0.00000   0.00000
       y    -0.00000  -0.00000  -0.00000   0.00000   0.00000   0.00000
       z     0.00000   0.00000  -0.00000   0.00000   0.00000   0.00000
-------------------------------------------------------------------------------


  Static dielectric constant tensor : 

-------------------------------------------------------------------------------
              x         y         z
-------------------------------------------------------------------------------
       x    26.88485   0.00000   0.00000
       y     0.00000  26.88485   0.00000
       z     0.00000   0.00000  26.88485
--------------------------------------------------------------------------------

  High frequency dielectric constant tensor : 

-------------------------------------------------------------------------------
              x         y         z
-------------------------------------------------------------------------------
       x     2.63099   0.00000   0.00000
       y     0.00000   2.63099   0.00000
       z     0.00000   0.00000   2.63099
-------------------------------------------------------------------------------

  Static refractive indices : 

-------------------------------------------------------------------------------
    1 =    5.18506      2 =    5.18506      3 =    5.18506
-------------------------------------------------------------------------------

  High frequency refractive indices : 

-------------------------------------------------------------------------------
    1 =    1.62203      2 =    1.62203      3 =    1.62203
-------------------------------------------------------------------------------


  Time to end of optimisation =       0.0142 seconds

********************************************************************************
*  Defect calculation for configuration   1 :                                  *
********************************************************************************

  Total number of defects =      3

  Total charge on defect  =   2.00

  Defect centre is at   0.5000   0.2500   0.2500  Frac

  Region 1 radius =  12.0000      Number of ions =   1358

  Number of symmetry inequivalent region 1 ions  =    222

  Region 2 radius =  24.0000      Number of ions =   9264

  Number of symmetry inequivalent region 2a ions =   1296

  Region 2a mode = 4 : screened electrostatics due to region 1 
                       neglect correction to region 1 forces from 2a
                       region 2a displacements based on defects only

  Region 2a ions will only interact with defects in region 1

  Vacancies:

--------------------------------------------------------------------------------
    Specification type     Symbol/Number         x          y          z
--------------------------------------------------------------------------------
    Fractional                               0.250000   0.250000   0.250000
    Fractional                               0.750000   0.250000   0.250000
--------------------------------------------------------------------------------

  Interstitials:

--------------------------------------------------------------------------------
    Specification type     Symbol/Number         x          y          z
--------------------------------------------------------------------------------
    Atom/Fractional         O                0.500000   0.250000   0.250000
--------------------------------------------------------------------------------


  Symmetry reduced region 1 (Relative to defect centre) :

--------------------------------------------------------------------------------
   No.   Atomic       x            y             z       Radius  Multiplicity   
         Label      (Angs)       (Angs)        (Angs)    (Angs)     
--------------------------------------------------------------------------------
     1  O     c      0.0000       0.0000       0.0000    0.0000     1    Defect
     2  Zr    c      0.0000      -1.2689 *     1.2689    0.0000     2          
     3  O     c      1.2689 *     2.5378 *     0.0000 *  0.0000     8          
     4  Zr    c      2.5378 *    -1.2689 *    -1.2689    0.0000     4          
     5  O     c      3.8068 *     0.0000       0.0000    0.0000     2          
     6  O     c     -1.2689 *     2.5378 *     2.5378    0.0000     4          
     7  O     c     -1.2689 *     2.5378 *    -2.5378    0.0000     4          
     8  Zr    c      0.0000       1.2689 *     3.8068 *  0.0000     4          
     9  O     c      3.8068 *     2.5378 *    -0.0000 *  0.0000     8          
    10  Zr    c      2.5378 *    -3.8068 *     1.2689 *  0.0000     8          
    11  O     c      3.8068 *     2.5378 *     2.5378    0.0000     4          
    12  O     c      1.2689 *    -0.0000 *     5.0757 *  0.0000     8          
    13  O     c      3.8068 *     2.5378 *    -2.5378    0.0000     4          
    14  Zr    c      5.0757 *     1.2689 *    -1.2689    0.0000     4          
    15  Zr    c      0.0000      -3.8068 *     3.8068    0.0000     2          
    16  O     c     -1.2689 *     5.0757 *     2.5378 *  0.0000     8          
    17  O     c     -1.2689 *    -2.5378 *     5.0757 *  0.0000     8          
    18  Zr    c     -2.5378 *     3.8068 *     3.8068    0.0000     4          
    19  O     c     -6.3446 *     0.0000       0.0000    0.0000     2          
    20  O     c     -3.8068 *    -0.0000 *     5.0757 *  0.0000     8          
    21  Zr    c      5.0757 *     1.2689 *     3.8068 *  0.0000     8          
    22  Zr    c      0.0000      -6.3446 *     1.2689 *  0.0000     4          
    23  O     c      3.8068 *     5.0757 *     2.5378 *  0.0000     8          
    24  O     c      6.3446 *     2.5378 *     0.0000 *  0.0000     8          
    25  O     c      3.8068 *    -2.5378 *     5.0757 *  0.0000     8          
    26  Zr    c      2.5378 *     6.3446 *     1.2689 *  0.0000     8          
    27  O     c     -6.3446 *     2.5378 *     2.5378    0.0000     4          
    28  O     c      1.2689 *     5.0757 *     5.0757    0.0000     4          
    29  O     c     -6.3446 *    -2.5378 *     2.5378    0.0000     4          
    30  O     c     -1.2689 *     5.0757 *    -5.0757    0.0000     4          
    31  Zr    c      0.0000       3.8068 *     6.3446 *  0.0000     4          
    32  Zr    c      5.0757 *    -3.8068 *     3.8068    0.0000     4          
    33  O     c      1.2689 *     0.0000 *     7.6135 *  0.0000     8          
    34  Zr    c     -7.6135 *     1.2689 *     1.2689    0.0000     4          
    35  Zr    c      2.5378 *    -6.3446 *     3.8068 *  0.0000     8          
    36  O     c     -1.2689 *    -7.6135 *     2.5378 *  0.0000     8          
    37  O     c      3.8068 *    -5.0757 *     5.0757    0.0000     4          
    38  O     c     -6.3446 *    -5.0757 *     0.0000 *  0.0000     8          
    39  O     c      3.8068 *     5.0757 *     5.0757    0.0000     4          
    40  O     c     -1.2689 *     2.5378 *     7.6135 *  0.0000     8          
    41  Zr    c     -5.0757 *    -6.3446 *     1.2689 *  0.0000     8          
    42  O     c      6.3446 *    -2.5378 *    -5.0757 *  0.0000     8          
    43  O     c      6.3446 *     5.0757 *    -2.5378 *  0.0000     8          
    44  O     c     -3.8068 *    -7.6135 *     0.0000 *  0.0000     8          
    45  Zr    c     -7.6135 *     3.8068 *    -1.2689 *  0.0000     8          
    46  O     c      3.8068 *    -2.5378 *     7.6135 *  0.0000     8          
    47  O     c      3.8068 *     7.6135 *     2.5378 *  0.0000     8          
    48  O     c      8.8824 *     0.0000       0.0000    0.0000     2          
    49  Zr    c     -5.0757 *    -6.3446 *    -3.8068 *  0.0000     8          
    50  Zr    c     -0.0000      -6.3446 *     6.3446    0.0000     2          
    51  Zr    c      0.0000       1.2689 *     8.8824 *  0.0000     4          
    52  O     c      1.2689 *    -7.6135 *     5.0757 *  0.0000     8          
    53  O     c      1.2689 *     5.0757 *     7.6135 *  0.0000     8          
    54  O     c     -8.8824 *    -2.5378 *     0.0000 *  0.0000     8          
    55  Zr    c     -7.6135 *     3.8068 *     3.8068    0.0000     4          
    56  Zr    c      2.5378 *     6.3446 *     6.3446    0.0000     4          
    57  Zr    c     -2.5378 *    -8.8824 *     1.2689 *  0.0000     8          
    58  O     c     -6.3446 *    -5.0757 *    -5.0757    0.0000     4          
    59  O     c     -6.3446 *     5.0757 *    -5.0757    0.0000     4          
    60  O     c      8.8824 *     2.5378 *     2.5378    0.0000     4          
    61  O     c      8.8824 *     2.5378 *    -2.5378    0.0000     4          
    62  Zr    c     -0.0000      -8.8824 *     3.8068 *  0.0000     4          
    63  O     c      3.8068 *     5.0757 *     7.6135 *  0.0000     8          
    64  O     c      6.3446 *     7.6135 *     0.0000 *  0.0000     8          
    65  O     c     -3.8068 *    -7.6135 *     5.0757 *  0.0000     8          
    66  Zr    c      7.6135 *     6.3446 *     1.2689 *  0.0000     8          
    67  Zr    c      2.5378 *     3.8068 *     8.8824 *  0.0000     8          
    68  O     c     -6.3446 *    -7.6135 *    -2.5378 *  0.0000     8          
    69  O     c     -6.3446 *     2.5378 *    -7.6135 *  0.0000     8          
    70  O     c     -1.2689 *    -0.0000 *    10.1514 *  0.0000     8          
    71  O     c      8.8824 *     0.0000 *    -5.0757 *  0.0000     8          
    72  Zr    c      5.0757 *    -6.3446 *     6.3446    0.0000     4          
    73  Zr    c      5.0757 *     1.2689 *     8.8824 *  0.0000     8          
    74  Zr    c    -10.1514 *    -1.2689 *     1.2689    0.0000     4          
    75  O     c     -8.8824 *    -2.5378 *    -5.0757 *  0.0000     8          
    76  O     c      1.2689 *    -2.5378 *    10.1514 *  0.0000     8          
    77  O     c     -8.8824 *     2.5378 *    -5.0757 *  0.0000     8          
    78  O     c      1.2689 *     2.5378 *    10.1514 *  0.0000     8          
    79  Zr    c      7.6135 *    -3.8068 *     6.3446 *  0.0000     8          
    80  O     c     -1.2689 *    -7.6135 *     7.6135    0.0000     4          
    81  O     c     -1.2689 *     7.6135 *     7.6135    0.0000     4          
    82  O     c      3.8068 *     0.0000 *    10.1514 *  0.0000     8          
    83  Zr    c     10.1514 *     3.8068 *     1.2689 *  0.0000     8          
    84  Zr    c      5.0757 *    -3.8068 *     8.8824 *  0.0000     8          
    85  Zr    c      0.0000       6.3446 *     8.8824 *  0.0000     4          
    86  O     c      6.3446 *    -7.6135 *    -5.0757 *  0.0000     8          
    87  O     c      6.3446 *    -5.0757 *     7.6135 *  0.0000     8          
    88  O     c     -3.8068 *     2.5378 *   -10.1514 *  0.0000     8          
    89  O     c     -3.8068 *     2.5378 *    10.1514 *  0.0000     8          
    90  Zr    c      2.5378 *    -8.8824 *     6.3446 *  0.0000     8          
    91  O     c      3.8068 *    -7.6135 *     7.6135    0.0000     4          
    92  O     c      3.8068 *     7.6135 *     7.6135    0.0000     4          
    93  O     c     -1.2689 *    10.1514 *     5.0757 *  0.0000     8          
    94  O     c      8.8824 *    -5.0757 *    -5.0757    0.0000     4          
    95  O     c     -1.2689 *   -10.1514 *     5.0757 *  0.0000     8          
    96  O     c    -11.4203 *    -0.0000       0.0000    0.0000     2          
    97  O     c      8.8824 *     5.0757 *    -5.0757    0.0000     4          
    98  Zr    c    -10.1514 *    -3.8068 *     3.8068    0.0000     4          
    99  Zr    c     -0.0000      -1.2689 *    11.4203 *  0.0000     4          
   100  O     c     -8.8824 *    -7.6135 *     0.0000 *  0.0000     8          
   101  O     c     11.4203 *     0.0000 *    -2.5378 *  0.0000     8          
   102  Zr    c     -7.6135 *    -6.3446 *    -6.3446    0.0000     4          
   103  Zr    c     -7.6135 *    -8.8824 *     1.2689 *  0.0000     8          
   104  Zr    c      2.5378 *     1.2689 *    11.4203 *  0.0000     8          
   105  O     c    -11.4203 *     2.5378 *     2.5378    0.0000     4          
   106  O     c      8.8824 *    -7.6135 *    -2.5378 *  0.0000     8          
   107  O     c      8.8824 *     7.6135 *    -2.5378 *  0.0000     8          
   108  O     c     -6.3446 *   -10.1514 *     0.0000 *  0.0000     8          
   109  O     c      3.8068 *    -5.0757 *    10.1514 *  0.0000     8          
   110  O     c      3.8068 *    10.1514 *     5.0757 *  0.0000     8          
   111  O     c    -11.4203 *    -2.5378 *     2.5378    0.0000     4          
   112  O     s      0.0000       0.0000       0.0000    0.0000     1    Defect
   113  Zr    s      0.0000      -1.2689 *     1.2689    0.0000     2          
   114  O     s      1.2689 *     2.5378 *     0.0000 *  0.0000     8          
   115  Zr    s      2.5378 *    -1.2689 *    -1.2689    0.0000     4          
   116  O     s      3.8068 *     0.0000       0.0000    0.0000     2          
   117  O     s     -1.2689 *     2.5378 *     2.5378    0.0000     4          
   118  O     s     -1.2689 *     2.5378 *    -2.5378    0.0000     4          
   119  Zr    s      0.0000       1.2689 *     3.8068 *  0.0000     4          
   120  O     s      3.8068 *     2.5378 *    -0.0000 *  0.0000     8          
   121  Zr    s      2.5378 *    -3.8068 *     1.2689 *  0.0000     8          
   122  O     s      3.8068 *     2.5378 *     2.5378    0.0000     4          
   123  O     s      1.2689 *    -0.0000 *     5.0757 *  0.0000     8          
   124  O     s      3.8068 *     2.5378 *    -2.5378    0.0000     4          
   125  Zr    s      5.0757 *     1.2689 *    -1.2689    0.0000     4          
   126  Zr    s      0.0000      -3.8068 *     3.8068    0.0000     2          
   127  O     s     -1.2689 *     5.0757 *     2.5378 *  0.0000     8          
   128  O     s     -1.2689 *    -2.5378 *     5.0757 *  0.0000     8          
   129  Zr    s     -2.5378 *     3.8068 *     3.8068    0.0000     4          
   130  O     s     -6.3446 *     0.0000       0.0000    0.0000     2          
   131  O     s     -3.8068 *    -0.0000 *     5.0757 *  0.0000     8          
   132  Zr    s      5.0757 *     1.2689 *     3.8068 *  0.0000     8          
   133  Zr    s      0.0000      -6.3446 *     1.2689 *  0.0000     4          
   134  O     s      3.8068 *     5.0757 *     2.5378 *  0.0000     8          
   135  O     s      6.3446 *     2.5378 *     0.0000 *  0.0000     8          
   136  O     s      3.8068 *    -2.5378 *     5.0757 *  0.0000     8          
   137  Zr    s      2.5378 *     6.3446 *     1.2689 *  0.0000     8          
   138  O     s     -6.3446 *     2.5378 *     2.5378    0.0000     4          
   139  O     s      1.2689 *     5.0757 *     5.0757    0.0000     4          
   140  O     s     -6.3446 *    -2.5378 *     2.5378    0.0000     4          
   141  O     s     -1.2689 *     5.0757 *    -5.0757    0.0000     4          
   142  Zr    s      0.0000       3.8068 *     6.3446 *  0.0000     4          
   143  Zr    s      5.0757 *    -3.8068 *     3.8068    0.0000     4          
   144  O     s      1.2689 *     0.0000 *     7.6135 *  0.0000     8          
   145  Zr    s     -7.6135 *     1.2689 *     1.2689    0.0000     4          
   146  Zr    s      2.5378 *    -6.3446 *     3.8068 *  0.0000     8          
   147  O     s     -1.2689 *    -7.6135 *     2.5378 *  0.0000     8          
   148  O     s      3.8068 *    -5.0757 *     5.0757    0.0000     4          
   149  O     s     -6.3446 *    -5.0757 *     0.0000 *  0.0000     8          
   150  O     s      3.8068 *     5.0757 *     5.0757    0.0000     4          
   151  O     s     -1.2689 *     2.5378 *     7.6135 *  0.0000     8          
   152  Zr    s     -5.0757 *    -6.3446 *     1.2689 *  0.0000     8          
   153  O     s      6.3446 *    -2.5378 *    -5.0757 *  0.0000     8          
   154  O     s      6.3446 *     5.0757 *    -2.5378 *  0.0000     8          
   155  O     s     -3.8068 *    -7.6135 *     0.0000 *  0.0000     8          
   156  Zr    s     -7.6135 *     3.8068 *    -1.2689 *  0.0000     8          
   157  O     s      3.8068 *    -2.5378 *     7.6135 *  0.0000     8          
   158  O     s      3.8068 *     7.6135 *     2.5378 *  0.0000     8          
   159  O     s      8.8824 *     0.0000       0.0000    0.0000     2          
   160  Zr    s     -5.0757 *    -6.3446 *    -3.8068 *  0.0000     8          
   161  Zr    s     -0.0000      -6.3446 *     6.3446    0.0000     2          
   162  Zr    s      0.0000       1.2689 *     8.8824 *  0.0000     4          
   163  O     s      1.2689 *    -7.6135 *     5.0757 *  0.0000     8          
   164  O     s      1.2689 *     5.0757 *     7.6135 *  0.0000     8          
   165  O     s     -8.8824 *    -2.5378 *     0.0000 *  0.0000     8          
   166  Zr    s     -7.6135 *     3.8068 *     3.8068    0.0000     4          
   167  Zr    s      2.5378 *     6.3446 *     6.3446    0.0000     4          
   168  Zr    s     -2.5378 *    -8.8824 *     1.2689 *  0.0000     8          
   169  O     s     -6.3446 *    -5.0757 *    -5.0757    0.0000     4          
   170  O     s     -6.3446 *     5.0757 *    -5.0757    0.0000     4          
   171  O     s      8.8824 *     2.5378 *     2.5378    0.0000     4          
   172  O     s      8.8824 *     2.5378 *    -2.5378    0.0000     4          
   173  Zr    s     -0.0000      -8.8824 *     3.8068 *  0.0000     4          
   174  O     s      3.8068 *     5.0757 *     7.6135 *  0.0000     8          
   175  O     s      6.3446 *     7.6135 *     0.0000 *  0.0000     8          
   176  O     s     -3.8068 *    -7.6135 *     5.0757 *  0.0000     8          
   177  Zr    s      7.6135 *     6.3446 *     1.2689 *  0.0000     8          
   178  Zr    s      2.5378 *     3.8068 *     8.8824 *  0.0000     8          
   179  O     s     -6.3446 *    -7.6135 *    -2.5378 *  0.0000     8          
   180  O     s     -6.3446 *     2.5378 *    -7.6135 *  0.0000     8          
   181  O     s     -1.2689 *    -0.0000 *    10.1514 *  0.0000     8          
   182  O     s      8.8824 *     0.0000 *    -5.0757 *  0.0000     8          
   183  Zr    s      5.0757 *    -6.3446 *     6.3446    0.0000     4          
   184  Zr    s      5.0757 *     1.2689 *     8.8824 *  0.0000     8          
   185  Zr    s    -10.1514 *    -1.2689 *     1.2689    0.0000     4          
   186  O     s     -8.8824 *    -2.5378 *    -5.0757 *  0.0000     8          
   187  O     s      1.2689 *    -2.5378 *    10.1514 *  0.0000     8          
   188  O     s     -8.8824 *     2.5378 *    -5.0757 *  0.0000     8          
   189  O     s      1.2689 *     2.5378 *    10.1514 *  0.0000     8          
   190  Zr    s      7.6135 *    -3.8068 *     6.3446 *  0.0000     8          
   191  O     s     -1.2689 *    -7.6135 *     7.6135    0.0000     4          
   192  O     s     -1.2689 *     7.6135 *     7.6135    0.0000     4          
   193  O     s      3.8068 *     0.0000 *    10.1514 *  0.0000     8          
   194  Zr    s     10.1514 *     3.8068 *     1.2689 *  0.0000     8          
   195  Zr    s      5.0757 *    -3.8068 *     8.8824 *  0.0000     8          
   196  Zr    s      0.0000       6.3446 *     8.8824 *  0.0000     4          
   197  O     s      6.3446 *    -7.6135 *    -5.0757 *  0.0000     8          
   198  O     s      6.3446 *    -5.0757 *     7.6135 *  0.0000     8          
   199  O     s     -3.8068 *     2.5378 *   -10.1514 *  0.0000     8          
   200  O     s     -3.8068 *     2.5378 *    10.1514 *  0.0000     8          
   201  Zr    s      2.5378 *    -8.8824 *     6.3446 *  0.0000     8          
   202  O     s      3.8068 *    -7.6135 *     7.6135    0.0000     4          
   203  O     s      3.8068 *     7.6135 *     7.6135    0.0000     4          
   204  O     s     -1.2689 *    10.1514 *     5.0757 *  0.0000     8          
   205  O     s      8.8824 *    -5.0757 *    -5.0757    0.0000     4          
   206  O     s     -1.2689 *   -10.1514 *     5.0757 *  0.0000     8          
   207  O     s    -11.4203 *    -0.0000       0.0000    0.0000     2          
   208  O     s      8.8824 *     5.0757 *    -5.0757    0.0000     4          
   209  Zr    s    -10.1514 *    -3.8068 *     3.8068    0.0000     4          
   210  Zr    s     -0.0000      -1.2689 *    11.4203 *  0.0000     4          
   211  O     s     -8.8824 *    -7.6135 *     0.0000 *  0.0000     8          
   212  O     s     11.4203 *     0.0000 *    -2.5378 *  0.0000     8          
   213  Zr    s     -7.6135 *    -6.3446 *    -6.3446    0.0000     4          
   214  Zr    s     -7.6135 *    -8.8824 *     1.2689 *  0.0000     8          
   215  Zr    s      2.5378 *     1.2689 *    11.4203 *  0.0000     8          
   216  O     s    -11.4203 *     2.5378 *     2.5378    0.0000     4          
   217  O     s      8.8824 *    -7.6135 *    -2.5378 *  0.0000     8          
   218  O     s      8.8824 *     7.6135 *    -2.5378 *  0.0000     8          
   219  O     s     -6.3446 *   -10.1514 *     0.0000 *  0.0000     8          
   220  O     s      3.8068 *    -5.0757 *    10.1514 *  0.0000     8          
   221  O     s      3.8068 *    10.1514 *     5.0757 *  0.0000     8          
   222  O     s    -11.4203 *    -2.5378 *     2.5378    0.0000     4          
--------------------------------------------------------------------------------


  Constraints on symmetry reduced coordinates :

--------------------------------------------------------------------------------
  Constraint no.      Unconstrained     Constrained    Coefficient    
                         Variable         Variable
--------------------------------------------------------------------------------
           1                 2 y             2 z        -1.00000
           2                 4 y             4 z         1.00000
           3                 6 y             6 z         1.00000
           4                 7 y             7 z        -1.00000
           5                11 y            11 z         1.00000
           6                13 y            13 z        -1.00000
           7                14 y            14 z        -1.00000
           8                15 y            15 z        -1.00000
           9                18 y            18 z         1.00000
          10                27 y            27 z         1.00000
          11                28 y            28 z         1.00000
          12                29 y            29 z        -1.00000
          13                30 y            30 z        -1.00000
          14                32 y            32 z        -1.00000
          15                34 y            34 z         1.00000
          16                37 y            37 z        -1.00000
          17                39 y            39 z         1.00000
          18                50 y            50 z        -1.00000
          19                55 y            55 z         1.00000
          20                56 y            56 z         1.00000
          21                58 y            58 z         1.00000
          22                59 y            59 z        -1.00000
          23                60 y            60 z         1.00000
          24                61 y            61 z        -1.00000
          25                72 y            72 z        -1.00000
          26                74 y            74 z        -1.00000
          27                80 y            80 z        -1.00000
          28                81 y            81 z         1.00000
          29                91 y            91 z        -1.00000
          30                92 y            92 z         1.00000
          31                94 y            94 z         1.00000
          32                97 y            97 z        -1.00000
          33                98 y            98 z        -1.00000
          34               102 y           102 z         1.00000
          35               105 y           105 z         1.00000
          36               111 y           111 z        -1.00000
          37               113 y           113 z        -1.00000
          38               115 y           115 z         1.00000
          39               117 y           117 z         1.00000
          40               118 y           118 z        -1.00000
          41               122 y           122 z         1.00000
          42               124 y           124 z        -1.00000
          43               125 y           125 z        -1.00000
          44               126 y           126 z        -1.00000
          45               129 y           129 z         1.00000
          46               138 y           138 z         1.00000
          47               139 y           139 z         1.00000
          48               140 y           140 z        -1.00000
          49               141 y           141 z        -1.00000
          50               143 y           143 z        -1.00000
          51               145 y           145 z         1.00000
          52               148 y           148 z        -1.00000
          53               150 y           150 z         1.00000
          54               161 y           161 z        -1.00000
          55               166 y           166 z         1.00000
          56               167 y           167 z         1.00000
          57               169 y           169 z         1.00000
          58               170 y           170 z        -1.00000
          59               171 y           171 z         1.00000
          60               172 y           172 z        -1.00000
          61               183 y           183 z        -1.00000
          62               185 y           185 z        -1.00000
          63               191 y           191 z        -1.00000
          64               192 y           192 z         1.00000
          65               202 y           202 z        -1.00000
          66               203 y           203 z         1.00000
          67               205 y           205 z         1.00000
          68               208 y           208 z        -1.00000
          69               209 y           209 z        -1.00000
          70               213 y           213 z         1.00000
          71               216 y           216 z         1.00000
          72               222 y           222 z        -1.00000
--------------------------------------------------------------------------------


  Components of defect energy : 

--------------------------------------------------------------------------------
  Region 1 - region 1                   =   -152.98642910 eV
  Region 1 - region 2a (unrelaxed)      =    184.01580602 eV
  Region 1 - 2a (relaxed - correction)  =     -2.29395337 eV
  Region 1 (Total)                      =     28.73542355 eV
  Region 2a                             =      1.14698879 eV
  Region 2b                             =     -1.15562361 eV
--------------------------------------------------------------------------------
  Total defect energy                   =     28.72678873 eV
--------------------------------------------------------------------------------

  Largest displacement in region 2 =   0.0046 Angstroms


  Number of variables =      552

  Maximum number of calculations  =        1000
  Maximum Hessian update interval =          10
  Maximum step size               =   1.0000000
  Maximum parameter tolerance     =   0.0000100
  Maximum function  tolerance     =   0.0000100
  Maximum gradient  tolerance     =   0.0010000

  Symmetry adapted optimisation

  Symmetry to be used for second derivatives

  Newton-Raphson optimiser to be used

  BFGS hessian update to be used

  Lower half triangular hessian to be used

  Start of defect optimisation :

  Cycle:      0 Defect Energy:  28.726789  Gnorm:     0.218971  CPU:    3.216
  ** Hessian calculated **
  Cycle:      1 Defect Energy:  20.966261  Gnorm:     0.083838  CPU:    6.827
  Cycle:      2 Defect Energy:  16.973448  Gnorm:     0.041804  CPU:   11.259
  Cycle:      3 Defect Energy:  16.498084  Gnorm:     0.032802  CPU:   14.256
  Cycle:      4 Defect Energy:  15.933186  Gnorm:     0.020358  CPU:   18.689
  Cycle:      5 Defect Energy:  15.560738  Gnorm:     0.016182  CPU:   22.403
  Cycle:      6 Defect Energy:  15.406896  Gnorm:     0.017959  CPU:   26.157
  Cycle:      7 Defect Energy:  15.271353  Gnorm:     0.013043  CPU:   29.865
  Cycle:      8 Defect Energy:  15.148752  Gnorm:     0.010754  CPU:   33.586
  Cycle:      9 Defect Energy:  15.060806  Gnorm:     0.011210  CPU:   37.290
  Cycle:     10 Defect Energy:  14.967957  Gnorm:     0.009283  CPU:   40.996
  ** Hessian calculated **
  Cycle:     11 Defect Energy:  14.778170  Gnorm:     0.006604  CPU:   46.859
  Cycle:     12 Defect Energy:  14.731482  Gnorm:     0.005761  CPU:   47.660
  Cycle:     13 Defect Energy:  14.674482  Gnorm:     0.004416  CPU:   48.463
  Cycle:     14 Defect Energy:  14.636877  Gnorm:     0.003191  CPU:   49.265
  Cycle:     15 Defect Energy:  14.619295  Gnorm:     0.002290  CPU:   50.065
  Cycle:     16 Defect Energy:  14.611047  Gnorm:     0.001635  CPU:   50.867
  Cycle:     17 Defect Energy:  14.607232  Gnorm:     0.001162  CPU:   51.668
  Cycle:     18 Defect Energy:  14.605410  Gnorm:     0.000822  CPU:   52.470
  Cycle:     19 Defect Energy:  14.604503  Gnorm:     0.000580  CPU:   53.280
  Cycle:     20 Defect Energy:  14.604072  Gnorm:     0.000408  CPU:   54.089
  ** Hessian calculated **
  Cycle:     21 Defect Energy:  14.603868  Gnorm:     0.000286  CPU:   56.308
  Cycle:     22 Defect Energy:  14.603773  Gnorm:     0.000201  CPU:   57.111
  Cycle:     23 Defect Energy:  14.603730  Gnorm:     0.000141  CPU:   57.913
  Cycle:     24 Defect Energy:  14.603711  Gnorm:     0.000099  CPU:   58.711
  Cycle:     25 Defect Energy:  14.603703  Gnorm:     0.000069  CPU:   59.514


  **** Optimisation achieved ****


  Final defect energy  =       14.60370048
  Final defect Gnorm   =        0.00004854

  Components of defect energy : 

--------------------------------------------------------------------------------
  Region 1 - region 1                   =   -149.14023484 eV
  Region 1 - region 2a (unrelaxed)      =    165.92056137 eV
  Region 1 - 2a (relaxed - correction)  =     -2.04188966 eV
  Region 1 (Total)                      =     14.73843687 eV
  Region 2a                             =      1.02088723 eV
  Region 2b                             =     -1.15562361 eV
--------------------------------------------------------------------------------
  Total defect energy                   =     14.60370048 eV
--------------------------------------------------------------------------------

  Largest displacement in region 2 =   0.0046 Angstroms

  Final coordinates of region 1 :

--------------------------------------------------------------------------------
   No.  Atomic        x           y           z          Radius      Charge
        Label       (Angs)      (Angs)      (Angs)       (Angs)       (e) 
--------------------------------------------------------------------------------
     1  O     c     2.537842    1.268921    1.268921    0.000000    0.077000
     2  Zr    c     2.537842   -0.038331    2.576172    0.000000    2.650000
     3  Zr    c     2.537842    2.576172   -0.038331    0.000000    2.650000
     4  O     c     3.853059    3.716275    1.242198    0.000000    0.077000
     5  O     c     3.853059    1.242198    3.716275    0.000000    0.077000
     6  O     c     3.853059    1.295644   -1.178433    0.000000    0.077000
     7  O     c     3.853059   -1.178433    1.295644    0.000000    0.077000
     8  O     c     1.222624    1.242198    3.716275    0.000000    0.077000
     9  O     c     1.222624    3.716275    1.242198    0.000000    0.077000
    10  O     c     1.222624   -1.178433    1.295644    0.000000    0.077000
    11  O     c     1.222624    1.295644   -1.178433    0.000000    0.077000
    12  Zr    c     5.122248   -0.044123   -0.044123    0.000000    2.650000
    13  Zr    c     5.122248    2.581964    2.581964    0.000000    2.650000
    14  Zr    c    -0.046565   -0.044123   -0.044123    0.000000    2.650000
    15  Zr    c    -0.046565    2.581964    2.581964    0.000000    2.650000
    16  O     c     5.582358    1.268921    1.268921    0.000000    0.077000
    17  O     c    -0.506674    1.268921    1.268921    0.000000    0.077000
    18  O     c     1.280222    3.816882    3.816882    0.000000    0.077000
    19  O     c     3.795461    3.816882    3.816882    0.000000    0.077000
    20  O     c     1.280222   -1.279040   -1.279040    0.000000    0.077000
    21  O     c     3.795461   -1.279040   -1.279040    0.000000    0.077000
    22  O     c     1.271766    3.848488   -1.310646    0.000000    0.077000
    23  O     c     1.271766   -1.310646    3.848488    0.000000    0.077000
    24  O     c     3.803918   -1.310646    3.848488    0.000000    0.077000
    25  O     c     3.803918    3.848488   -1.310646    0.000000    0.077000
    26  Zr    c     2.537842    2.566389    5.097942    0.000000    2.650000
    27  Zr    c     2.537842    5.097942    2.566389    0.000000    2.650000
    28  Zr    c     2.537842   -2.560100   -0.028547    0.000000    2.650000
    29  Zr    c     2.537842   -0.028547   -2.560100    0.000000    2.650000
    30  O     c     6.441516    3.761392    1.320694    0.000000    0.077000
    31  O     c     6.441516    1.320694    3.761392    0.000000    0.077000
    32  O     c    -1.365832   -1.223550    1.217148    0.000000    0.077000
    33  O     c    -1.365832    1.217148   -1.223550    0.000000    0.077000
    34  O     c    -1.365832    1.320694    3.761392    0.000000    0.077000
    35  O     c    -1.365832    3.761392    1.320694    0.000000    0.077000
    36  O     c     6.441516    1.217148   -1.223550    0.000000    0.077000
    37  O     c     6.441516   -1.223550    1.217148    0.000000    0.077000
    38  Zr    c     5.081378   -2.557108    2.559270    0.000000    2.650000
    39  Zr    c     5.081378    2.559270   -2.557108    0.000000    2.650000
    40  Zr    c    -0.005695   -2.557108    2.559270    0.000000    2.650000
    41  Zr    c     5.081378   -0.021429    5.094950    0.000000    2.650000
    42  Zr    c     5.081378    5.094950   -0.021429    0.000000    2.650000
    43  Zr    c    -0.005695    2.559270   -2.557108    0.000000    2.650000
    44  Zr    c    -0.005695    5.094950   -0.021429    0.000000    2.650000
    45  Zr    c    -0.005695   -0.021429    5.094950    0.000000    2.650000
    46  O     c     6.320997    3.843649    3.843649    0.000000    0.077000
    47  O     c    -1.245313    3.843649    3.843649    0.000000    0.077000
    48  O     c     6.320997   -1.305807   -1.305807    0.000000    0.077000
    49  O     c    -1.245313   -1.305807   -1.305807    0.000000    0.077000
    50  O     c     3.800976    1.274132    6.280755    0.000000    0.077000
    51  O     c     3.800976    6.280755    1.274132    0.000000    0.077000
    52  O     c     1.274708   -3.742913    1.263710    0.000000    0.077000
    53  O     c     1.274708    1.263710   -3.742913    0.000000    0.077000
    54  O     c     1.274708    1.274132    6.280755    0.000000    0.077000
    55  O     c     1.274708    6.280755    1.274132    0.000000    0.077000
    56  O     c     3.800976   -3.742913    1.263710    0.000000    0.077000
    57  O     c     3.800976    1.263710   -3.742913    0.000000    0.077000
    58  O     c     6.324576    3.786890   -1.249048    0.000000    0.077000
    59  O     c     6.324576   -1.249048    3.786890    0.000000    0.077000
    60  O     c    -1.248892    3.786890   -1.249048    0.000000    0.077000
    61  O     c    -1.248892   -1.249048    3.786890    0.000000    0.077000
    62  Zr    c     7.649908    2.577118   -0.039276    0.000000    2.650000
    63  Zr    c     7.649908   -0.039276    2.577118    0.000000    2.650000
    64  Zr    c    -2.574225   -0.039276    2.577118    0.000000    2.650000
    65  Zr    c    -2.574225    2.577118   -0.039276    0.000000    2.650000
    66  Zr    c     2.537842   -2.560489    5.098330    0.000000    2.650000
    67  Zr    c     2.537842    5.098330   -2.560489    0.000000    2.650000
    68  O     c     1.274394    6.342998    3.799853    0.000000    0.077000
    69  O     c     1.274394    3.799853    6.342998    0.000000    0.077000
    70  O     c     3.801290    6.342998    3.799853    0.000000    0.077000
    71  O     c     3.801290    3.799853    6.342998    0.000000    0.077000
    72  O     c     3.801290   -1.262011   -3.805156    0.000000    0.077000
    73  O     c     3.801290   -3.805156   -1.262011    0.000000    0.077000
    74  O     c     1.274394   -3.805156   -1.262011    0.000000    0.077000
    75  O     c     1.274394   -1.262011   -3.805156    0.000000    0.077000
    76  O     c     1.264765   -1.255106    6.366483    0.000000    0.077000
    77  O     c     1.264765    6.366483   -1.255106    0.000000    0.077000
    78  O     c     3.810919   -3.828642    3.792948    0.000000    0.077000
    79  O     c     3.810919    3.792948   -3.828642    0.000000    0.077000
    80  O     c     3.810919   -1.255106    6.366483    0.000000    0.077000
    81  O     c     3.810919    6.366483   -1.255106    0.000000    0.077000
    82  O     c     1.264765   -3.828642    3.792948    0.000000    0.077000
    83  O     c     1.264765    3.792948   -3.828642    0.000000    0.077000
    84  Zr    c    -0.008330    5.097039    5.097039    0.000000    2.650000
    85  Zr    c    -0.008330   -2.559197   -2.559197    0.000000    2.650000
    86  Zr    c     5.084013    5.097039    5.097039    0.000000    2.650000
    87  Zr    c     5.084013   -2.559197   -2.559197    0.000000    2.650000
    88  O     c    -3.367998    1.268921    1.268921    0.000000    0.077000
    89  O     c     8.443682    1.268921    1.268921    0.000000    0.077000
    90  O     c    -1.256139    1.258723    6.314189    0.000000    0.077000
    91  O     c    -1.256139    6.314189    1.258723    0.000000    0.077000
    92  O     c     6.331822    6.314189    1.258723    0.000000    0.077000
    93  O     c     6.331822    1.258723    6.314189    0.000000    0.077000
    94  O     c     6.331822    1.279119   -3.776347    0.000000    0.077000
    95  O     c     6.331822   -3.776347    1.279119    0.000000    0.077000
    96  O     c    -1.256139   -3.776347    1.279119    0.000000    0.077000
    97  O     c    -1.256139    1.279119   -3.776347    0.000000    0.077000
    98  Zr    c     7.625661    2.545303    5.090926    0.000000    2.650000
    99  Zr    c    -2.549978    5.090926    2.545303    0.000000    2.650000
   100  Zr    c     7.625661   -0.007461   -2.553084    0.000000    2.650000
   101  Zr    c     7.625661    5.090926    2.545303    0.000000    2.650000
   102  Zr    c    -2.549978   -0.007461   -2.553084    0.000000    2.650000
   103  Zr    c    -2.549978    2.545303    5.090926    0.000000    2.650000
   104  Zr    c     7.625661   -2.553084   -0.007461    0.000000    2.650000
   105  Zr    c    -2.549978   -2.553084   -0.007461    0.000000    2.650000
   106  Zr    c     2.537842   -5.077342    2.545415    0.000000    2.650000
   107  Zr    c     2.537842    2.545415   -5.077342    0.000000    2.650000
   108  Zr    c     2.537842   -0.007574    7.615183    0.000000    2.650000
   109  Zr    c     2.537842    7.615183   -0.007574    0.000000    2.650000
   110  O     c     6.346442    6.367362    3.795704    0.000000    0.077000
   111  O     c     6.346442    3.795704    6.367362    0.000000    0.077000
   112  O     c    -1.270759    3.795704    6.367362    0.000000    0.077000
   113  O     c    -1.270759    6.367362    3.795704    0.000000    0.077000
   114  O     c    -1.270759   -3.829520   -1.257862    0.000000    0.077000
   115  O     c    -1.270759   -1.257862   -3.829520    0.000000    0.077000
   116  O     c     6.346442   -1.257862   -3.829520    0.000000    0.077000
   117  O     c     6.346442   -3.829520   -1.257862    0.000000    0.077000
   118  O     c     8.977259    3.787543    1.231161    0.000000    0.077000
   119  O     c     8.977259    1.231161    3.787543    0.000000    0.077000
   120  O     c     8.977259    1.306681   -1.249702    0.000000    0.077000
   121  O     c     8.977259   -1.249702    1.306681    0.000000    0.077000
   122  O     c    -3.901576    1.231161    3.787543    0.000000    0.077000
   123  O     c    -3.901576    3.787543    1.231161    0.000000    0.077000
   124  O     c    -3.901576   -1.249702    1.306681    0.000000    0.077000
   125  O     c    -3.901576    1.306681   -1.249702    0.000000    0.077000
   126  O     c     6.343295   -1.271341    6.324530    0.000000    0.077000
   127  O     c     6.343295    6.324530   -1.271341    0.000000    0.077000
   128  O     c    -1.267611   -3.786689    3.809183    0.000000    0.077000
   129  O     c    -1.267611    3.809183   -3.786689    0.000000    0.077000
   130  O     c    -1.267611   -1.271341    6.324530    0.000000    0.077000
   131  O     c    -1.267611    6.324530   -1.271341    0.000000    0.077000
   132  O     c     6.343295    3.809183   -3.786689    0.000000    0.077000
   133  O     c     6.343295   -3.786689    3.809183    0.000000    0.077000
   134  Zr    c     5.081740    7.616823    2.543319    0.000000    2.650000
   135  Zr    c    -0.006056    7.616823    2.543319    0.000000    2.650000
   136  Zr    c    -0.006056   -5.078981   -0.005478    0.000000    2.650000
   137  Zr    c    -0.006056   -0.005478   -5.078981    0.000000    2.650000
   138  Zr    c     5.081740    2.543319    7.616823    0.000000    2.650000
   139  Zr    c    -0.006056    2.543319    7.616823    0.000000    2.650000
   140  Zr    c     5.081740   -5.078981   -0.005478    0.000000    2.650000
   141  Zr    c     5.081740   -0.005478   -5.078981    0.000000    2.650000
   142  O     c    -3.783792    3.787986    3.787986    0.000000    0.077000
   143  O     c    -3.783792   -1.250144   -1.250144    0.000000    0.077000
   144  O     c     8.859475    3.787986    3.787986    0.000000    0.077000
   145  O     c     8.859475   -1.250144   -1.250144    0.000000    0.077000
   146  O     c     3.809654    6.342452    6.342452    0.000000    0.077000
   147  O     c     1.266029    6.342452    6.342452    0.000000    0.077000
   148  O     c     1.266029   -3.804611   -3.804611    0.000000    0.077000
   149  O     c     3.809654   -3.804611   -3.804611    0.000000    0.077000
   150  O     c    -3.769618   -1.286903    3.824745    0.000000    0.077000
   151  O     c    -3.769618    3.824745   -1.286903    0.000000    0.077000
   152  O     c     8.845301    3.824745   -1.286903    0.000000    0.077000
   153  O     c     8.845301   -1.286903    3.824745    0.000000    0.077000
   154  O     c     1.271509    6.336267   -3.798425    0.000000    0.077000
   155  O     c     1.271509   -3.798425    6.336267    0.000000    0.077000
   156  O     c     3.804175   -3.798425    6.336267    0.000000    0.077000
   157  O     c     3.804175    6.336267   -3.798425    0.000000    0.077000
   158  Zr    c     2.537842    5.082017    7.627453    0.000000    2.650000
   159  Zr    c     2.537842    7.627453    5.082017    0.000000    2.650000
   160  Zr    c     2.537842   -5.089611   -2.544175    0.000000    2.650000
   161  Zr    c     2.537842   -2.544175   -5.089611    0.000000    2.650000
   162  Zr    c     7.624934   -2.556108    5.093950    0.000000    2.650000
   163  Zr    c     7.624934    5.093950   -2.556108    0.000000    2.650000
   164  Zr    c    -2.549251   -2.556108    5.093950    0.000000    2.650000
   165  Zr    c    -2.549251    5.093950   -2.556108    0.000000    2.650000
   166  O     c     3.807373    1.267057    8.848620    0.000000    0.077000
   167  O     c     3.807373   -6.310778    1.270785    0.000000    0.077000
   168  O     c     3.807373    8.848620    1.267057    0.000000    0.077000
   169  O     c     3.807373    1.270785   -6.310778    0.000000    0.077000
   170  O     c     1.268311    1.267057    8.848620    0.000000    0.077000
   171  O     c     1.268311    8.848620    1.267057    0.000000    0.077000
   172  O     c     1.268311   -6.310778    1.270785    0.000000    0.077000
   173  O     c     1.268311    1.270785   -6.310778    0.000000    0.077000
   174  Zr    c    -5.090473    2.565049    2.565049    0.000000    2.650000
   175  Zr    c    10.166157   -0.027208   -0.027208    0.000000    2.650000
   176  Zr    c    10.166157    2.565049    2.565049    0.000000    2.650000
   177  Zr    c    -5.090473   -0.027208   -0.027208    0.000000    2.650000
   178  Zr    c     5.078197   -5.089200    5.082325    0.000000    2.650000
   179  Zr    c     5.078197    5.082325   -5.089200    0.000000    2.650000
   180  Zr    c    -0.002513   -5.089200    5.082325    0.000000    2.650000
   181  Zr    c     5.078197   -2.544483    7.627042    0.000000    2.650000
   182  Zr    c     5.078197    7.627042   -2.544483    0.000000    2.650000
   183  Zr    c    -0.002513    5.082325   -5.089200    0.000000    2.650000
   184  Zr    c    -0.002513   -2.544483    7.627042    0.000000    2.650000
   185  Zr    c    -0.002513    7.627042   -2.544483    0.000000    2.650000
   186  O     c     1.270689   -6.355915    3.807731    0.000000    0.077000
   187  O     c     1.270689    3.807731   -6.355915    0.000000    0.077000
   188  O     c     1.270689   -1.269889    8.893757    0.000000    0.077000
   189  O     c     1.270689    8.893757   -1.269889    0.000000    0.077000
   190  O     c     3.804995   -1.269889    8.893757    0.000000    0.077000
   191  O     c     3.804995    8.893757   -1.269889    0.000000    0.077000
   192  O     c     3.804995   -6.355915    3.807731    0.000000    0.077000
   193  O     c     3.804995    3.807731   -6.355915    0.000000    0.077000
   194  O     c     6.347926   -3.810804    6.348645    0.000000    0.077000
   195  O     c     6.347926    6.348645   -3.810804    0.000000    0.077000
   196  O     c    -1.272243    6.348645   -3.810804    0.000000    0.077000
   197  O     c    -1.272243   -3.810804    6.348645    0.000000    0.077000
   198  O     c    -3.794010   -3.791414    1.262510    0.000000    0.077000
   199  O     c    -3.794010    1.262510   -3.791414    0.000000    0.077000
   200  O     c    -3.794010    1.275331    6.329256    0.000000    0.077000
   201  O     c    -3.794010    6.329256    1.275331    0.000000    0.077000
   202  O     c     8.869694    6.329256    1.275331    0.000000    0.077000
   203  O     c     8.869694    1.275331    6.329256    0.000000    0.077000
   204  O     c     8.869694    1.262510   -3.791414    0.000000    0.077000
   205  O     c     8.869694   -3.791414    1.262510    0.000000    0.077000
   206  O     c     6.340325    6.333225    6.333225    0.000000    0.077000
   207  O     c     6.340325   -3.795384   -3.795384    0.000000    0.077000
   208  O     c    -1.264642    6.333225    6.333225    0.000000    0.077000
   209  O     c    -1.264642   -3.795384   -3.795384    0.000000    0.077000
   210  O     c     1.269524    3.806180    8.880530    0.000000    0.077000
   211  O     c     1.269524    8.880530    3.806180    0.000000    0.077000
   212  O     c     1.269524   -6.342689   -1.268338    0.000000    0.077000
   213  O     c     1.269524   -1.268338   -6.342689    0.000000    0.077000
   214  O     c     3.806160    3.806180    8.880530    0.000000    0.077000
   215  O     c     3.806160    8.880530    3.806180    0.000000    0.077000
   216  O     c     3.806160   -6.342689   -1.268338    0.000000    0.077000
   217  O     c     3.806160   -1.268338   -6.342689    0.000000    0.077000
   218  Zr    c    -2.546788   -5.083343    2.541789    0.000000    2.650000
   219  Zr    c     7.622472   -0.003947    7.621185    0.000000    2.650000
   220  Zr    c     7.622472    7.621185   -0.003947    0.000000    2.650000
   221  Zr    c    -2.546788    2.541789   -5.083343    0.000000    2.650000
   222  Zr    c    -2.546788    7.621185   -0.003947    0.000000    2.650000
   223  Zr    c     7.622472   -5.083343    2.541789    0.000000    2.650000
   224  Zr    c     7.622472    2.541789   -5.083343    0.000000    2.650000
   225  Zr    c    -2.546788   -0.003947    7.621185    0.000000    2.650000
   226  O     c     8.883078   -1.270373   -3.794135    0.000000    0.077000
   227  O     c     8.883078    6.331977    3.808215    0.000000    0.077000
   228  O     c     8.883078    3.808215    6.331977    0.000000    0.077000
   229  O     c     8.883078   -3.794135   -1.270373    0.000000    0.077000
   230  O     c    -3.807394    3.808215    6.331977    0.000000    0.077000
   231  O     c    -3.807394    6.331977    3.808215    0.000000    0.077000
   232  O     c    -3.807394   -3.794135   -1.270373    0.000000    0.077000
   233  O     c    -3.807394   -1.270373   -3.794135    0.000000    0.077000
   234  O     c     8.886115    6.359511   -1.266669    0.000000    0.077000
   235  O     c     8.886115   -1.266669    6.359511    0.000000    0.077000
   236  O     c     8.886115    3.804511   -3.821669    0.000000    0.077000
   237  O     c     8.886115   -3.821669    3.804511    0.000000    0.077000
   238  O     c    -3.810432    6.359511   -1.266669    0.000000    0.077000
   239  O     c    -3.810432    3.804511   -3.821669    0.000000    0.077000
   240  O     c    -3.810432   -1.266669    6.359511    0.000000    0.077000
   241  O     c    -3.810432   -3.821669    3.804511    0.000000    0.077000
   242  O     c    -1.269097   -6.328882    1.266482    0.000000    0.077000
   243  O     c    -1.269097    1.266482   -6.328882    0.000000    0.077000
   244  O     c    -1.269097    1.271360    8.866724    0.000000    0.077000
   245  O     c    -1.269097    8.866724    1.271360    0.000000    0.077000
   246  O     c     6.344780    1.271360    8.866724    0.000000    0.077000
   247  O     c     6.344780    8.866724    1.271360    0.000000    0.077000
   248  O     c     6.344780   -6.328882    1.266482    0.000000    0.077000
   249  O     c     6.344780    1.266482   -6.328882    0.000000    0.077000
   250  Zr    c    -5.087432    5.080763    0.000939    0.000000    2.650000
   251  Zr    c    10.163115    5.080763    0.000939    0.000000    2.650000
   252  Zr    c    10.163115    0.000939    5.080763    0.000000    2.650000
   253  Zr    c    -5.087432   -2.542921    2.536903    0.000000    2.650000
   254  Zr    c    -5.087432    2.536903   -2.542921    0.000000    2.650000
   255  Zr    c    -5.087432    0.000939    5.080763    0.000000    2.650000
   256  Zr    c    10.163115    2.536903   -2.542921    0.000000    2.650000
   257  Zr    c    10.163115   -2.542921    2.536903    0.000000    2.650000
   258  O     c     6.342124   -1.267893    8.869099    0.000000    0.077000
   259  O     c     6.342124    8.869099   -1.267893    0.000000    0.077000
   260  O     c     6.342124   -6.331257    3.805735    0.000000    0.077000
   261  O     c     6.342124    3.805735   -6.331257    0.000000    0.077000
   262  O     c    -1.266441   -1.267893    8.869099    0.000000    0.077000
   263  O     c    -1.266441    8.869099   -1.267893    0.000000    0.077000
   264  O     c    -1.266441   -6.331257    3.805735    0.000000    0.077000
   265  O     c    -1.266441    3.805735   -6.331257    0.000000    0.077000
   266  O     c     6.340882    8.892469    3.805791    0.000000    0.077000
   267  O     c     6.340882    3.805791    8.892469    0.000000    0.077000
   268  O     c     6.340882   -1.267949   -6.354627    0.000000    0.077000
   269  O     c     6.340882   -6.354627   -1.267949    0.000000    0.077000
   270  O     c    -1.265199    3.805791    8.892469    0.000000    0.077000
   271  O     c    -1.265199    8.892469    3.805791    0.000000    0.077000
   272  O     c    -1.265199   -6.354627   -1.267949    0.000000    0.077000
   273  O     c    -1.265199   -1.267949   -6.354627    0.000000    0.077000
   274  O     c    11.185907    1.268921    1.268921    0.000000    0.077000
   275  O     c    -6.110223    1.268921    1.268921    0.000000    0.077000
   276  Zr    c    -2.541663   -5.084410   -2.543246    0.000000    2.650000
   277  Zr    c     7.617347    7.622252    5.081088    0.000000    2.650000
   278  Zr    c     7.617347    5.081088    7.622252    0.000000    2.650000
   279  Zr    c    -2.541663    5.081088    7.622252    0.000000    2.650000
   280  Zr    c    -2.541663    7.622252    5.081088    0.000000    2.650000
   281  Zr    c     7.617347   -2.543246   -5.084410    0.000000    2.650000
   282  Zr    c     7.617347   -5.084410   -2.543246    0.000000    2.650000
   283  Zr    c    -2.541663   -2.543246   -5.084410    0.000000    2.650000
   284  Zr    c     2.537842   -5.086611    7.624453    0.000000    2.650000
   285  Zr    c     2.537842    7.624453   -5.086611    0.000000    2.650000
   286  Zr    c     2.537842    2.540989   10.157513    0.000000    2.650000
   287  Zr    c     2.537842   10.157513    2.540989    0.000000    2.650000
   288  Zr    c     2.537842   -7.619671   -0.003147    0.000000    2.650000
   289  Zr    c     2.537842   -0.003147   -7.619671    0.000000    2.650000
   290  O     c     3.808017   -6.336967    6.344670    0.000000    0.077000
   291  O     c     3.808017    6.344670   -6.336967    0.000000    0.077000
   292  O     c     3.808017   -3.806828    8.874809    0.000000    0.077000
   293  O     c     3.808017    8.874809   -3.806828    0.000000    0.077000
   294  O     c     1.267667   -3.806828    8.874809    0.000000    0.077000
   295  O     c     1.267667    8.874809   -3.806828    0.000000    0.077000
   296  O     c     1.267667   -6.336967    6.344670    0.000000    0.077000
   297  O     c     1.267667    6.344670   -6.336967    0.000000    0.077000
   298  O     c     3.805476    6.342977    8.878211    0.000000    0.077000
   299  O     c     3.805476   -3.805135   -6.340369    0.000000    0.077000
   300  O     c     3.805476   -6.340369   -3.805135    0.000000    0.077000
   301  O     c     1.270207    6.342977    8.878211    0.000000    0.077000
   302  O     c     1.270207    8.878211    6.342977    0.000000    0.077000
   303  O     c     3.805476    8.878211    6.342977    0.000000    0.077000
   304  O     c     1.270207   -6.340369   -3.805135    0.000000    0.077000
   305  O     c     1.270207   -3.805135   -6.340369    0.000000    0.077000
   306  O     c    -6.410704   -1.266654    1.254617    0.000000    0.077000
   307  O     c    -6.410704    1.254617   -1.266654    0.000000    0.077000
   308  O     c    -6.410704    1.283225    3.804496    0.000000    0.077000
   309  O     c    -6.410704    3.804496    1.283225    0.000000    0.077000
   310  O     c    11.486388    3.804496    1.283225    0.000000    0.077000
   311  O     c    11.486388    1.283225    3.804496    0.000000    0.077000
   312  O     c    11.486388    1.254617   -1.266654    0.000000    0.077000
   313  O     c    11.486388   -1.266654    1.254617    0.000000    0.077000
   314  Zr    c    -5.086489    5.088500    5.088500    0.000000    2.650000
   315  Zr    c    10.162172    5.088500    5.088500    0.000000    2.650000
   316  Zr    c    -5.086489   -2.550658   -2.550658    0.000000    2.650000
   317  Zr    c    10.162172   -2.550658   -2.550658    0.000000    2.650000
   318  Zr    c     5.074566    7.622255    7.622255    0.000000    2.650000
   319  Zr    c     0.001118    7.622255    7.622255    0.000000    2.650000
   320  Zr    c     0.001118   -5.084413   -5.084413    0.000000    2.650000
   321  Zr    c     5.074566   -5.084413   -5.084413    0.000000    2.650000
   322  Zr    c     0.001334   -7.617687    2.540115    0.000000    2.650000
   323  Zr    c     0.001334    2.540115   -7.617687    0.000000    2.650000
   324  Zr    c     5.074350   -0.002274   10.155529    0.000000    2.650000
   325  Zr    c     5.074350   10.155529   -0.002274    0.000000    2.650000
   326  Zr    c     0.001334   10.155529   -0.002274    0.000000    2.650000
   327  Zr    c     5.074350   -7.617687    2.540115    0.000000    2.650000
   328  Zr    c     0.001334   -0.002274   10.155529    0.000000    2.650000
   329  Zr    c     5.074350    2.540115   -7.617687    0.000000    2.650000
   330  O     c    -3.805158   -3.808470   -3.808470    0.000000    0.077000
   331  O     c    -3.805158    6.346311    6.346311    0.000000    0.077000
   332  O     c     8.880842    6.346311    6.346311    0.000000    0.077000
   333  O     c     8.880842   -3.808470   -3.808470    0.000000    0.077000
   334  O     c    -3.803153    6.338329   -3.800487    0.000000    0.077000
[...]
    142 y          5.075684      5.081188     0.005505    Cartesian    0.11
    142 z          7.613525      7.625075     0.011550    Cartesian    0.15
    143 x          7.613525      7.622319     0.008793    Cartesian    0.12
    143 y         -2.537842     -2.554097    -0.016255    Cartesian    0.64
    143 z          5.075684      5.091939     0.016255    Cartesian    0.32
    144 x          3.806763      3.807407     0.000644    Cartesian    0.02
    144 y          1.268921      1.266956    -0.001964    Cartesian   -0.15
    144 z          8.882446      8.847799    -0.034648    Cartesian   -0.39
    145 x         -5.075684     -5.082827    -0.007143    Cartesian    0.14
    145 y          2.537842      2.559985     0.022144    Cartesian    0.87
    145 z          2.537842      2.559985     0.022144    Cartesian    0.87
    146 x          5.075684      5.078037     0.002353    Cartesian    0.05
    146 y         -5.075684     -5.086891    -0.011208    Cartesian    0.22
    146 z          5.075684      5.081475     0.005791    Cartesian    0.11
    147 x          1.268921      1.270699     0.001779    Cartesian    0.14
    147 y         -6.344605     -6.356187    -0.011582    Cartesian    0.18
    147 z          3.806763      3.807758     0.000995    Cartesian    0.03
    148 x          6.344605      6.348280     0.003675    Cartesian    0.06
    148 y         -3.806763     -3.810698    -0.003935    Cartesian    0.10
    148 z          6.344605      6.348540     0.003935    Cartesian    0.06
    149 x         -3.806763     -3.793421     0.013341    Cartesian   -0.35
    149 y         -3.806763     -3.790850     0.015913    Cartesian   -0.42
    149 z          1.268921      1.262098    -0.006823    Cartesian   -0.54
    150 x          6.344605      6.339714    -0.004891    Cartesian   -0.08
    150 y          6.344605      6.332387    -0.012217    Cartesian   -0.19
    150 z          6.344605      6.332387    -0.012217    Cartesian   -0.19
    151 x          1.268921      1.269611     0.000690    Cartesian    0.05
    151 y          3.806763      3.806246    -0.000517    Cartesian   -0.01
    151 z          8.882446      8.880443    -0.002003    Cartesian   -0.02
    152 x         -2.537842     -2.544614    -0.006772    Cartesian    0.27
    152 y         -5.075684     -5.080806    -0.005122    Cartesian    0.10
    152 z          2.537842      2.540869     0.003028    Cartesian    0.12
    153 x          8.882446      8.882764     0.000318    Cartesian    0.00
    153 y         -1.268921     -1.270070    -0.001149    Cartesian    0.09
    153 z         -3.806763     -3.793497     0.013265    Cartesian   -0.35
    154 x          8.882446      8.886025     0.003578    Cartesian    0.04
    154 y          6.344605      6.359962     0.015357    Cartesian    0.24
    154 z         -1.268921     -1.266690     0.002230    Cartesian   -0.18
    155 x         -1.268921     -1.269088    -0.000167    Cartesian    0.01
    155 y         -6.344605     -6.328480     0.016125    Cartesian   -0.25
    155 z          1.268921      1.266317    -0.002603    Cartesian   -0.21
    156 x         -5.075684     -5.087754    -0.012071    Cartesian    0.24
    156 y          5.075684      5.081267     0.005583    Cartesian    0.11
    156 z         -0.000000     -0.000707    -0.000707    Cartesian *******
    157 x          6.344605      6.341964    -0.002641    Cartesian   -0.04
    157 y         -1.268921     -1.267925     0.000996    Cartesian   -0.08
    157 z          8.882446      8.868631    -0.013815    Cartesian   -0.16
    158 x          6.344605      6.340720    -0.003884    Cartesian   -0.06
    158 y          8.882446      8.892683     0.010236    Cartesian    0.12
    158 z          3.806763      3.805702    -0.001060    Cartesian   -0.03
    159 x         11.420288     11.180760    -0.239528    Cartesian   -2.10
    159 y          1.268921      1.268921     0.000000    Cartesian    0.00
    159 z          1.268921      1.268921     0.000000    Cartesian    0.00
    160 x         -2.537842     -2.541321    -0.003479    Cartesian    0.14
    160 y         -5.075684     -5.082936    -0.007252    Cartesian    0.14
    160 z         -2.537842     -2.542327    -0.004485    Cartesian    0.18
    161 x          2.537842      2.537842     0.000000    Cartesian    0.00
    161 y         -5.075684     -5.084530    -0.008846    Cartesian    0.17
    161 z          7.613525      7.622372     0.008846    Cartesian    0.12
    162 x          2.537842      2.537842     0.000000    Cartesian    0.00
    162 y          2.537842      2.539454     0.001613    Cartesian    0.06
    162 z         10.151367     10.154685     0.003318    Cartesian    0.03
    163 x          3.806763      3.808155     0.001392    Cartesian    0.04
    163 y         -6.344605     -6.336576     0.008028    Cartesian   -0.13
    163 z          6.344605      6.344509    -0.000095    Cartesian   -0.00
    164 x          3.806763      3.805308    -0.001454    Cartesian   -0.04
    164 y          6.344605      6.342778    -0.001827    Cartesian   -0.03
    164 z          8.882446      8.877852    -0.004594    Cartesian   -0.05
    165 x         -6.344605     -6.412373    -0.067769    Cartesian    1.07
    165 y         -1.268921     -1.266761     0.002160    Cartesian   -0.17
    165 z          1.268921      1.254328    -0.014593    Cartesian   -1.15
    166 x         -5.075684     -5.083565    -0.007881    Cartesian    0.16
    166 y          5.075684      5.086379     0.010696    Cartesian    0.21
    166 z          5.075684      5.086379     0.010696    Cartesian    0.21
    167 x          5.075684      5.074585    -0.001099    Cartesian   -0.02
    167 y          7.613525      7.620465     0.006940    Cartesian    0.09
    167 z          7.613525      7.620465     0.006940    Cartesian    0.09
    168 x          0.000000      0.001186     0.001186    Cartesian    0.00
    168 y         -7.613525     -7.615689    -0.002164    Cartesian    0.03
    168 z          2.537842      2.538988     0.001146    Cartesian    0.05
    169 x         -3.806763     -3.805114     0.001648    Cartesian   -0.04
    169 y         -3.806763     -3.808278    -0.001515    Cartesian    0.04
    169 z         -3.806763     -3.808278    -0.001515    Cartesian    0.04
    170 x         -3.806763     -3.802589     0.004174    Cartesian   -0.11
    170 y          6.344605      6.337687    -0.006917    Cartesian   -0.11
    170 z         -3.806763     -3.799845     0.006917    Cartesian   -0.18
    171 x         11.420288     11.384892    -0.035396    Cartesian   -0.31
    171 y          3.806763      3.806797     0.000034    Cartesian    0.00
    171 z          3.806763      3.806797     0.000034    Cartesian    0.00
    172 x         11.420288     11.394871    -0.025417    Cartesian   -0.22
    172 y          3.806763      3.795770    -0.010993    Cartesian   -0.29
    172 z         -1.268921     -1.257928     0.010993    Cartesian   -0.87
    173 x          2.537842      2.537842     0.000000    Cartesian    0.00
    173 y         -7.613525     -7.617324    -0.003799    Cartesian    0.05
    173 z          5.075684      5.075380    -0.000303    Cartesian   -0.01
    174 x          6.344605      6.347299     0.002694    Cartesian    0.04
    174 y          6.344605      6.344419    -0.000186    Cartesian   -0.00
    174 z          8.882446      8.872474    -0.009973    Cartesian   -0.11
    175 x          8.882446      8.880309    -0.002137    Cartesian   -0.02
    175 y          8.882446      8.868941    -0.013505    Cartesian   -0.15
    175 z          1.268921      1.268184    -0.000737    Cartesian   -0.06
    176 x         -1.268921     -1.267666     0.001255    Cartesian   -0.10
    176 y         -6.344605     -6.343387     0.001217    Cartesian   -0.02
    176 z          6.344605      6.341966    -0.002638    Cartesian   -0.04
    177 x         10.151367     10.156521     0.005153    Cartesian    0.05
    177 y          7.613525      7.618929     0.005404    Cartesian    0.07
    177 z          2.537842      2.538937     0.001095    Cartesian    0.04
    178 x          5.075684      5.076996     0.001313    Cartesian    0.03
    178 y          5.075684      5.074761    -0.000923    Cartesian   -0.02
    178 z         10.151367     10.155471     0.004104    Cartesian    0.04
    179 x         -3.806763     -3.802927     0.003835    Cartesian   -0.10
    179 y         -6.344605     -6.339197     0.005408    Cartesian   -0.09
    179 z         -1.268921     -1.270379    -0.001458    Cartesian    0.11
    180 x         -3.806763     -3.800558     0.006205    Cartesian   -0.16
    180 y          3.806763      3.805547    -0.001216    Cartesian   -0.03
    180 z         -6.344605     -6.349791    -0.005186    Cartesian    0.08
    181 x          1.268921      1.269641     0.000720    Cartesian    0.06
    181 y          1.268921      1.269118     0.000197    Cartesian    0.02
    181 z         11.420288     11.402615    -0.017673    Cartesian   -0.15
    182 x         11.420288     11.412558    -0.007730    Cartesian   -0.07
    182 y          1.268921      1.273706     0.004785    Cartesian    0.38
    182 z         -3.806763     -3.805409     0.001354    Cartesian   -0.04
    183 x          7.613525      7.613275    -0.000251    Cartesian   -0.00
    183 y         -5.075684     -5.081437    -0.005754    Cartesian    0.11
    183 z          7.613525      7.619279     0.005754    Cartesian    0.08
    184 x          7.613525      7.612665    -0.000860    Cartesian   -0.01
    184 y          2.537842      2.537863     0.000021    Cartesian    0.00
    184 z         10.151367     10.154269     0.002902    Cartesian    0.03
    185 x         -7.613525     -7.612892     0.000634    Cartesian   -0.01
    185 y         -0.000000     -0.012869    -0.012869    Cartesian *******
    185 z          2.537842      2.550711     0.012869    Cartesian    0.51
    186 x         -6.344605     -6.345031    -0.000426    Cartesian    0.01
    186 y         -1.268921     -1.271554    -0.002633    Cartesian    0.21
    186 z         -3.806763     -3.807250    -0.000487    Cartesian    0.01
    187 x          3.806763      3.807638     0.000875    Cartesian    0.02
    187 y         -1.268921     -1.267162     0.001759    Cartesian   -0.14
    187 z         11.420288     11.425262     0.004974    Cartesian    0.04
    188 x         -6.344605     -6.349443    -0.004839    Cartesian    0.08
    188 y          3.806763      3.806533    -0.000230    Cartesian   -0.01
    188 z         -3.806763     -3.799878     0.006884    Cartesian   -0.18
    189 x          3.806763      3.804228    -0.002535    Cartesian   -0.07
    189 y          3.806763      3.805488    -0.001274    Cartesian   -0.03
    189 z         11.420288     11.417997    -0.002291    Cartesian   -0.02
    190 x         10.151367     10.154430     0.003063    Cartesian    0.03
    190 y         -2.537842     -2.538984    -0.001142    Cartesian    0.05
    190 z          7.613525      7.619724     0.006199    Cartesian    0.08
    191 x          1.268921      1.272654     0.003733    Cartesian    0.29
    191 y         -6.344605     -6.343040     0.001564    Cartesian   -0.02
    191 z          8.882446      8.880882    -0.001564    Cartesian   -0.02
    192 x          1.268921      1.266956    -0.001965    Cartesian   -0.15
    192 y          8.882446      8.880535    -0.001911    Cartesian   -0.02
    192 z          8.882446      8.880535    -0.001911    Cartesian   -0.02
    193 x          6.344605      6.344233    -0.000371    Cartesian   -0.01
    193 y          1.268921      1.266004    -0.002917    Cartesian   -0.23
    193 z         11.420288     11.413102    -0.007186    Cartesian   -0.06
    194 x         12.689209     12.698622     0.009413    Cartesian    0.07
    194 y          5.075684      5.075779     0.000095    Cartesian    0.00
    194 z          2.537842      2.535834    -0.002007    Cartesian   -0.08
    195 x          7.613525      7.616340     0.002815    Cartesian    0.04
    195 y         -2.537842     -2.539350    -0.001508    Cartesian    0.06
    195 z         10.151367     10.155950     0.004583    Cartesian    0.05
    196 x          2.537842      2.537842     0.000000    Cartesian    0.00
    196 y          7.613525      7.616704     0.003179    Cartesian    0.04
    196 z         10.151367     10.158552     0.007185    Cartesian    0.07
    197 x          8.882446      8.879875    -0.002572    Cartesian   -0.03
    197 y         -6.344605     -6.343368     0.001236    Cartesian   -0.02
    197 z         -3.806763     -3.804293     0.002470    Cartesian   -0.06
    198 x          8.882446      8.882117    -0.000329    Cartesian   -0.00
    198 y         -3.806763     -3.805502     0.001261    Cartesian   -0.03
    198 z          8.882446      8.878600    -0.003847    Cartesian   -0.04
    199 x         -1.268921     -1.267307     0.001614    Cartesian   -0.13
    199 y          3.806763      3.804838    -0.001925    Cartesian   -0.05
    199 z         -8.882446     -8.873067     0.009379    Cartesian   -0.11
    200 x         -1.268921     -1.267560     0.001361    Cartesian   -0.11
    200 y          3.806763      3.802780    -0.003983    Cartesian   -0.10
    200 z         11.420288     11.423954     0.003666    Cartesian    0.03
    201 x          5.075684      5.076827     0.001143    Cartesian    0.02
    201 y         -7.613525     -7.620170    -0.006645    Cartesian    0.09
    201 z          7.613525      7.616987     0.003462    Cartesian    0.05
    202 x          6.344605      6.344994     0.000389    Cartesian    0.01
    202 y         -6.344605     -6.341501     0.003103    Cartesian   -0.05
    202 z          8.882446      8.879343    -0.003103    Cartesian   -0.03
    203 x          6.344605      6.339759    -0.004845    Cartesian   -0.08
    203 y          8.882446      8.876860    -0.005587    Cartesian   -0.06
    203 z          8.882446      8.876860    -0.005587    Cartesian   -0.06
    204 x          1.268921      1.270330     0.001409    Cartesian    0.11
    204 y         11.420288     11.415023    -0.005265    Cartesian   -0.05
    204 z          6.344605      6.343560    -0.001044    Cartesian   -0.02
    205 x         11.420288     11.413639    -0.006649    Cartesian   -0.06
    205 y         -3.806763     -3.802514     0.004248    Cartesian   -0.11
    205 z         -3.806763     -3.802514     0.004248    Cartesian   -0.11
    206 x          1.268921      1.269654     0.000733    Cartesian    0.06
    206 y         -8.882446     -8.875533     0.006914    Cartesian   -0.08
    206 z          6.344605      6.343106    -0.001498    Cartesian   -0.02
    207 x         -8.882446     -8.789380     0.093066    Cartesian   -1.05
    207 y          1.268921      1.268921     0.000000    Cartesian    0.00
    207 z          1.268921      1.268921     0.000000    Cartesian    0.00
    208 x         11.420288     11.420501     0.000213    Cartesian    0.00
    208 y          6.344605      6.343441    -0.001163    Cartesian   -0.02
    208 z         -3.806763     -3.805599     0.001163    Cartesian   -0.03
    209 x         -7.613525     -7.619798    -0.006273    Cartesian    0.08
    209 y         -2.537842     -2.546392    -0.008550    Cartesian    0.34
    209 z          5.075684      5.084234     0.008550    Cartesian    0.17
    210 x          2.537842      2.537842     0.000000    Cartesian    0.00
    210 y         -0.000000     -0.004092    -0.004092    Cartesian *******
    210 z         12.689209     12.696981     0.007772    Cartesian    0.06
    211 x         -6.344605     -6.340421     0.004183    Cartesian   -0.07
    211 y         -6.344605     -6.339929     0.004675    Cartesian   -0.07
    211 z          1.268921      1.267037    -0.001884    Cartesian   -0.15
    212 x         13.958130     13.986024     0.027894    Cartesian    0.20
    212 y          1.268921      1.273958     0.005037    Cartesian    0.40
    212 z         -1.268921     -1.261832     0.007089    Cartesian   -0.56
    213 x         -5.075684     -5.080898    -0.005215    Cartesian    0.10
    213 y         -5.075684     -5.083394    -0.007710    Cartesian    0.15
    213 z         -5.075684     -5.083394    -0.007710    Cartesian    0.15
    214 x         -5.075684     -5.078976    -0.003293    Cartesian    0.06
    214 y         -7.613525     -7.620339    -0.006814    Cartesian    0.09
    214 z          2.537842      2.539040     0.001198    Cartesian    0.05
    215 x          5.075684      5.078264     0.002580    Cartesian    0.05
    215 y          2.537842      2.540579     0.002737    Cartesian    0.11
    215 z         12.689209     12.698258     0.009049    Cartesian    0.07
    216 x         -8.882446     -8.862121     0.020326    Cartesian   -0.23
    216 y          3.806763      3.805326    -0.001436    Cartesian   -0.04
    216 z          3.806763      3.805326    -0.001436    Cartesian   -0.04
    217 x         11.420288     11.409962    -0.010326    Cartesian   -0.09
    217 y         -6.344605     -6.337781     0.006824    Cartesian   -0.11
    217 z         -1.268921     -1.264062     0.004859    Cartesian   -0.38
    218 x         11.420288     11.412485    -0.007803    Cartesian   -0.07
    218 y          8.882446      8.876111    -0.006335    Cartesian   -0.07
    218 z         -1.268921     -1.268819     0.000102    Cartesian   -0.01
    219 x         -3.806763     -3.803409     0.003354    Cartesian   -0.09
    219 y         -8.882446     -8.871467     0.010979    Cartesian   -0.12
    219 z          1.268921      1.269268     0.000347    Cartesian    0.03
    220 x          6.344605      6.342239    -0.002366    Cartesian   -0.04
    220 y         -3.806763     -3.804085     0.002678    Cartesian   -0.07
    220 z         11.420288     11.413842    -0.006446    Cartesian   -0.06
    221 x          6.344605      6.339754    -0.004851    Cartesian   -0.08
    221 y         11.420288     11.408435    -0.011853    Cartesian   -0.10
    221 z          6.344605      6.338166    -0.006439    Cartesian   -0.10
    222 x         -8.882446     -8.855441     0.027006    Cartesian   -0.30
    222 y         -1.268921     -1.268052     0.000869    Cartesian   -0.07
    222 z          3.806763      3.805894    -0.000869    Cartesian   -0.02
--------------------------------------------------------------------------------


  Time to end of optimisation  =       60.3210 seconds


  Peak dynamic memory used =     349.04 MB 


  Timing analysis for GULP :

--------------------------------------------------------------------------------
  Task / Subroutine                                          Time (Seconds)
--------------------------------------------------------------------------------
  Calculation of reciprocal space energy and derivatives          0.0002
  Calculation of reciprocal space energy using symmetry           0.0002
  Calculation of real space energy and derivatives                0.0020
  Calculation of real space energy using symmetry                 0.0069
  Calculation for region 1 energy and derivatives (2-b)          17.7659
  Calculation for region 2a energy                               40.4936
  Calculation for region 2b energy                                0.0002
  Calculation and manipulation of Hessian matrix                  1.5840
  Calculation of matrix inversion                                 0.1108
  Symmetry generation of equivalent positions                     0.0015
--------------------------------------------------------------------------------
  Total CPU time                                                 60.3210
--------------------------------------------------------------------------------


  Dump file written as ZrO2.grs


  Job Finished at 12:35.37 14th October    2020                               

