********************************************************************************
*                       GENERAL UTILITY LATTICE PROGRAM                        *
*                                 Julian Gale                                  *
*                       Curtin Institute for Computation                       *
*                    School of Molecular and Life Sciences                     *
*                    Curtin University, Western Australia                      *
********************************************************************************
* Version = 5.2.0 * Last modified =  10th September 2020                       *
********************************************************************************
* Zirconia doped with calcium                                                  *
*  optimise     - perform optimisation run                                     *
*  conp         - constant pressure calculation                                *
*  property     - calculate properties for final geometry                      *
*  defect       - perform defect calculation after bulk run                    *
*  distance     - calculate distances                                          *
*  compare      - compare initial and final structures                         *
********************************************************************************
* Zirconia doped with calcium                                                  *
********************************************************************************


  Job Started  at 12:37.42 14th October    2020                               

  Number of CPUs =     1


  Total number of configurations input =      1

********************************************************************************
*  Input for Configuration =   1 : ZrO2                                        *
********************************************************************************

  Formula = ZrO2                                                        

  Number of irreducible atoms/shells =       4


  Total number atoms/shells =       6

  Dimensionality = 3               :  Bulk   


  Symmetry :

  Crystal family                   :  Cubic       
  Crystal class  (Groth - 1921)    :  Cubic Hexakisoctahedral              

  Space group (centrosymmetric)    :  F M 3 M         

  Patterson group                  :  F m -3 m 

  Cartesian lattice vectors (Angstroms) :

        0.000000    2.535000    2.535000
        2.535000    0.000000    2.535000
        2.535000    2.535000    0.000000

  Primitive cell parameters :            Full cell parameters :

  a =   3.5850    alpha =  60.0000       a =   5.0700    alpha =  90.0000
  b =   3.5850    beta  =  60.0000       b =   5.0700    beta  =  90.0000
  c =   3.5850    gamma =  60.0000       c =   5.0700    gamma =  90.0000

  Initial volumes (Angstroms**3):

  Primitive cell =          32.580961    Full cell =         130.323843

  Temperature of configuration =   0.00     K 

  Pressure of configuration =         0.000 GPa 

  Fractional coordinates of asymmetric unit :

--------------------------------------------------------------------------------
   No.  Atomic       x           y          z         Charge      Occupancy
        Label      (Frac)      (Frac)     (Frac)        (e)         (Frac)  
--------------------------------------------------------------------------------
      1 Zr    c    0.000000    0.000000    0.000000     2.65000    1.000000    
      2 O     c    0.250000    0.250000    0.250000     0.07700    1.000000    
      3 Zr    s    0.000000    0.000000    0.000000     1.35000    1.000000    
      4 O     s    0.250000    0.250000    0.250000    -2.07700    1.000000    
--------------------------------------------------------------------------------


  Constraints : 

--------------------------------------------------------------------------------
  Constraint no.      Unconstrained     Constrained    Coefficient    Offset
                         Variable         Variable
--------------------------------------------------------------------------------
           1              Strain 1        Strain 2       1.00000      0.0000
           2              Strain 1        Strain 3       1.00000      0.0000
--------------------------------------------------------------------------------


  Distance calculation :


  Cutoff for distances  =      4.000000 Angstroms

--------------------------------------------------------------------------------
  Asymmetric unit site  Full lattice sites    No.  Distance      No.  Distance
      No.   At.No.            At.No.                (Angs)             (Angs) 
--------------------------------------------------------------------------------
       1   Zr    core        Zr    core        12    3.5850
                             Zr    shell       12    3.5850
                             O     core         8    2.1954
                             O     shell        8    2.1954
--------------------------------------------------------------------------------
       2   O     core        Zr    core         4    2.1954
                             Zr    shell        4    2.1954
                             O     core         6    2.5350       12    3.5850
                             O     shell        6    2.5350       12    3.5850
--------------------------------------------------------------------------------
       3   Zr    shell       Zr    core        12    3.5850
                             Zr    shell       12    3.5850
                             O     core         8    2.1954
                             O     shell        8    2.1954
--------------------------------------------------------------------------------
       4   O     shell       Zr    core         4    2.1954
                             Zr    shell        4    2.1954
                             O     core         6    2.5350       12    3.5850
                             O     shell        6    2.5350       12    3.5850
--------------------------------------------------------------------------------



********************************************************************************
*  General input information                                                   *
********************************************************************************

  Species output for all configurations : 

--------------------------------------------------------------------------------
  Species    Type    Atomic    Atomic    Charge       Radii (Angs)     Library
                     Number     Mass       (e)     Cova   Ionic  VDW   Symbol
--------------------------------------------------------------------------------
    Zr       Core       40      91.22   2.650000   1.560  0.000  2.330          
    Zr       Shell      40       0.00   1.350000   1.560  0.000  2.330          
    O        Core        8      16.00   0.077000   0.730  0.000  1.360          
    O        Shell       8       0.00  -2.077000   0.730  0.000  1.360          
--------------------------------------------------------------------------------


  Lattice summation method               =    Ewald          (3-D)
                                         =    Parry          (2-D)
                                         =    Saunders et al (1-D)
  Accuracy factor for lattice sums       =   12.000


  Analytic derivatives to be used

  Time limit = Infinity

  Maximum range for interatomic potentials =    100000.000000 Angstroms

  General interatomic potentials :

--------------------------------------------------------------------------------
Atom  Types   Potential      Parameter       Value         Units   Cutoffs(Ang)
  1     2                                                            Min /  Max 
--------------------------------------------------------------------------------
O    s Zr   s Buckingham    Buckingham A     985.86900    eV        0.000 12.000
                            Buckingham rho  0.37600000    Ang       
                            Buckingham C     0.0000000    eV*Ang^6  
--------------------------------------------------------------------------------
O    s O    s Buckingham    Buckingham A     22764.300    eV        0.000 12.000
                            Buckingham rho  0.14900000    Ang       
                            Buckingham C     27.890000    eV*Ang^6  
--------------------------------------------------------------------------------
Zr   c Zr   s Spring (c-s)  Spring k 2       169.61700    eV*Ang^-2 0.000  0.800
                            Spring k 4       0.0000000    eV*Ang^-4 
--------------------------------------------------------------------------------
O    c O    s Spring (c-s)  Spring k 2       27.290000    eV*Ang^-2 0.000  0.800
                            Spring k 4       0.0000000    eV*Ang^-4 
--------------------------------------------------------------------------------

********************************************************************************
*  Output for configuration   1 : ZrO2                                         *
********************************************************************************


  Components of energy : 

--------------------------------------------------------------------------------
  Interatomic potentials     =          22.43756329 eV    
  Monopole - monopole (real) =         -15.67991073 eV    
  Monopole - monopole (recip)=        -116.52038266 eV    
  Monopole - monopole (total)=        -132.20029339 eV    
--------------------------------------------------------------------------------
  Total lattice energy : 
    Primitive unit cell      =        -109.76273010 eV    
    Non-primitive unit cell  =        -439.05092039 eV    
--------------------------------------------------------------------------------
  Total lattice energy (in kJmol-1): 
    Primitive unit cell      =          -10590.4256 kJ/(mole unit cells)
    Non-primitive unit cell  =          -42361.7023 kJ/(mole unit cells)
--------------------------------------------------------------------------------


  Number of variables =        1

  Maximum number of calculations  =          1000
  Maximum Hessian update interval =            10
  Maximum step size               =   1.000000000
  Maximum parameter tolerance     =   0.000010000
  Maximum function  tolerance     =   0.000010000
  Maximum gradient  tolerance     =   0.001000000
  Maximum gradient  component     =   0.010000000

  Symmetry constrained optimisation

  Symmetry used for second derivatives

  Cell parameters to be optimised using strains

  Newton-Raphson optimiser to be used

  BFGS hessian update to be used

  Lower half triangular hessian to be used

  Start of bulk optimisation :

  Cycle:      0 Energy:      -109.762730  Gnorm:      0.588311  CPU:    0.006
  ** Hessian calculated **
  Cycle:      1 Energy:      -109.763059  Gnorm:      0.000316  CPU:    0.009


  **** Optimisation achieved ****


  Final energy =    -109.76305939 eV
  Final Gnorm  =       0.00000099

  Components of energy : 

--------------------------------------------------------------------------------
  Interatomic potentials     =          22.28919976 eV    
  Monopole - monopole (real) =         -15.66235280 eV    
  Monopole - monopole (recip)=        -116.38990634 eV    
  Monopole - monopole (total)=        -132.05225914 eV    
--------------------------------------------------------------------------------
  Total lattice energy : 
    Primitive unit cell      =        -109.76305939 eV    
    Non-primitive unit cell  =        -439.05223754 eV    
--------------------------------------------------------------------------------
  Total lattice energy (in kJmol-1): 
    Primitive unit cell      =          -10590.4573 kJ/(mole unit cells)
    Non-primitive unit cell  =          -42361.8294 kJ/(mole unit cells)
--------------------------------------------------------------------------------

  Final asymmetric unit coordinates :

--------------------------------------------------------------------------------
   No.  Atomic        x           y           z         Radius
        Label       (Frac)      (Frac)      (Frac)       (Angs) 
--------------------------------------------------------------------------------
     1  Zr    c     0.000000    0.000000    0.000000    0.000000
     2  O     c     0.250000    0.250000    0.250000    0.000000
     3  Zr    s     0.000000    0.000000    0.000000    0.000000
     4  O     s     0.250000    0.250000    0.250000    0.000000
--------------------------------------------------------------------------------

  Final Cartesian lattice vectors (Angstroms) :

        0.000000    2.537842    2.537842
        2.537842    0.000000    2.537842
        2.537842    2.537842    0.000000


  Final cell parameters and derivatives :

--------------------------------------------------------------------------------
       a            3.589050 Angstrom     dE/de1(xx)    -0.000001 eV/strain
       b            3.589050 Angstrom     dE/de2(yy)     0.000000 eV/strain
       c            3.589050 Angstrom     dE/de3(zz)     0.000000 eV/strain
       alpha       60.000000 Degrees      dE/de4(yz)     0.000000 eV/strain
       beta        60.000000 Degrees      dE/de5(xz)     0.000000 eV/strain
       gamma       60.000000 Degrees      dE/de6(xy)     0.000000 eV/strain
--------------------------------------------------------------------------------

  Primitive cell volume =            32.690656 Angs**3

  Density of cell =      6.259124 g/cm**3

  Non-primitive lattice parameters :

  a    =     5.075684  b   =     5.075684  c    =     5.075684
  alpha=    90.000000  beta=    90.000000  gamma=    90.000000

  Non-primitive cell volume =           130.762624 Angs**3


  Final internal derivatives :

--------------------------------------------------------------------------------
   No.  Atomic          a             b             c           Radius
        Label          (eV)          (eV)          (eV)        (eV/Angs)
--------------------------------------------------------------------------------
      1 Zr    c       0.000000      0.000000      0.000000      0.000000
      2 O     c       0.000000      0.000000      0.000000      0.000000
      3 Zr    s       0.000000      0.000000      0.000000      0.000000
      4 O     s       0.000000      0.000000      0.000000      0.000000
--------------------------------------------------------------------------------
  Maximum abs         0.000000      0.000000      0.000000      0.000000
--------------------------------------------------------------------------------

  Comparison of initial and final structures : 

--------------------------------------------------------------------------------
  Parameter   Initial value   Final value   Difference    Units      Percent
--------------------------------------------------------------------------------
    Volume       130.323843    130.762624     0.438781    Angs**3      0.34
    a              5.070000      5.075684     0.005684    Angstroms    0.11
    b              5.070000      5.075684     0.005684    Angstroms    0.11
    c              5.070000      5.075684     0.005684    Angstroms    0.11
    alpha         90.000000     90.000000     0.000000    Degrees      0.00
    beta          90.000000     90.000000     0.000000    Degrees      0.00
    gamma         90.000000     90.000000     0.000000    Degrees      0.00
      1 x          0.000000      0.000000     0.000000    Fractional   0.00
      1 y          0.000000      0.000000     0.000000    Fractional   0.00
      1 z          0.000000      0.000000     0.000000    Fractional   0.00
      2 x          0.250000      0.250000     0.000000    Fractional   0.00
      2 y          0.250000      0.250000     0.000000    Fractional   0.00
      2 z          0.250000      0.250000     0.000000    Fractional   0.00
      3 x          0.000000      0.000000     0.000000    Fractional   0.00
      3 y          0.000000      0.000000     0.000000    Fractional   0.00
      3 z          0.000000      0.000000     0.000000    Fractional   0.00
      4 x          0.250000      0.250000     0.000000    Fractional   0.00
      4 y          0.250000      0.250000     0.000000    Fractional   0.00
      4 z          0.250000      0.250000     0.000000    Fractional   0.00
--------------------------------------------------------------------------------


  Distance calculation :


  Cutoff for distances  =      4.000000 Angstroms

--------------------------------------------------------------------------------
  Asymmetric unit site  Full lattice sites    No.  Distance      No.  Distance
      No.   At.No.            At.No.                (Angs)             (Angs) 
--------------------------------------------------------------------------------
       1   Zr    core        Zr    core        12    3.5891
                             Zr    shell       12    3.5891
                             O     core         8    2.1978
                             O     shell        8    2.1978
--------------------------------------------------------------------------------
       2   O     core        Zr    core         4    2.1978
                             Zr    shell        4    2.1978
                             O     core         6    2.5378       12    3.5891
                             O     shell        6    2.5378       12    3.5891
--------------------------------------------------------------------------------
       3   Zr    shell       Zr    core        12    3.5891
                             Zr    shell       12    3.5891
                             O     core         8    2.1978
                             O     shell        8    2.1978
--------------------------------------------------------------------------------
       4   O     shell       Zr    core         4    2.1978
                             Zr    shell        4    2.1978
                             O     core         6    2.5378       12    3.5891
                             O     shell        6    2.5378       12    3.5891
--------------------------------------------------------------------------------



  Born effective charge tensors : 

-------------------------------------------------------------------------------
  Atom             x           y             z
-------------------------------------------------------------------------------
    1 Zr    x       3.6770      0.0000      0.0000
            y       0.0000      3.6770      0.0000
            z       0.0000      0.0000      3.6770
-------------------------------------------------------------------------------
    2 O     x      -1.8385      0.0000      0.0000
            y       0.0000     -1.8385     -0.0000
            z       0.0000     -0.0000     -1.8385
-------------------------------------------------------------------------------




  Elastic Constant Matrix: (Units=GPa)

-------------------------------------------------------------------------------
  Indices      1         2         3         4         5         6    
-------------------------------------------------------------------------------
       1    616.2933  119.6612  119.6612   -0.0000   -0.0000   -0.0000
       2    119.6612  616.2933  119.6612   -0.0000   -0.0000   -0.0000
       3    119.6612  119.6612  616.2933   -0.0000   -0.0000   -0.0000
       4     -0.0000   -0.0000   -0.0000  100.8598    0.0000   -0.0000
       5     -0.0000   -0.0000   -0.0000    0.0000  100.8598    0.0000
       6     -0.0000   -0.0000   -0.0000   -0.0000    0.0000  100.8598
-------------------------------------------------------------------------------


  Elastic Compliance Matrix: (Units=1/GPa)

-------------------------------------------------------------------------------
  Indices      1         2         3         4         5         6    
-------------------------------------------------------------------------------
       1    0.001732 -0.000282 -0.000282  0.000000  0.000000  0.000000
       2   -0.000282  0.001732 -0.000282 -0.000000  0.000000  0.000000
       3   -0.000282 -0.000282  0.001732  0.000000  0.000000  0.000000
       4    0.000000 -0.000000  0.000000  0.009915 -0.000000  0.000000
       5    0.000000  0.000000  0.000000 -0.000000  0.009915 -0.000000
       6    0.000000  0.000000  0.000000  0.000000 -0.000000  0.009915
-------------------------------------------------------------------------------

  Mechanical properties :

-------------------------------------------------------------------------------
  Convention :                    Reuss         Voigt         Hill
-------------------------------------------------------------------------------
  Bulk  Modulus (GPa)     =     285.20524     285.20524     285.20524
  Shear Modulus (GPa)     =     132.28031     159.84228     146.06129
-------------------------------------------------------------------------------
  Velocity S-wave (km/s)  =       4.59717       5.05346       4.83071
  Velocity P-wave (km/s)  =       8.58749       8.92280       8.75675
-------------------------------------------------------------------------------
  Compressibility (1/GPa) =    0.00350625
-------------------------------------------------------------------------------
  Stress axis :                     x             y             z
-------------------------------------------------------------------------------
  Youngs Moduli (GPa)     =     577.38110     577.38110     577.38110
-------------------------------------------------------------------------------
  Poissons Ratio (x)      =                     0.16259       0.16259
  Poissons Ratio (y)      =       0.16259                     0.16259
  Poissons Ratio (z)      =       0.16259       0.16259
-------------------------------------------------------------------------------


  Piezoelectric Strain Matrix: (Units=C/m**2)

-------------------------------------------------------------------------------
  Indices      1         2         3         4         5         6    
-------------------------------------------------------------------------------
       x    -0.00000   0.00000   0.00000   0.00000   0.00000   0.00000
       y    -0.00000  -0.00000  -0.00000   0.00000   0.00000   0.00000
       z    -0.00000  -0.00000  -0.00000   0.00000   0.00000   0.00000
-------------------------------------------------------------------------------


  Piezoelectric Stress Matrix: (Units=10**-11 C/N)

-------------------------------------------------------------------------------
  Indices      1         2         3         4         5         6    
-------------------------------------------------------------------------------
       x    -0.00000   0.00000   0.00000   0.00000   0.00000   0.00000
       y    -0.00000  -0.00000  -0.00000   0.00000   0.00000   0.00000
       z     0.00000   0.00000  -0.00000   0.00000   0.00000   0.00000
-------------------------------------------------------------------------------


  Static dielectric constant tensor : 

-------------------------------------------------------------------------------
              x         y         z
-------------------------------------------------------------------------------
       x    26.88485   0.00000   0.00000
       y     0.00000  26.88485   0.00000
       z     0.00000   0.00000  26.88485
--------------------------------------------------------------------------------

  High frequency dielectric constant tensor : 

-------------------------------------------------------------------------------
              x         y         z
-------------------------------------------------------------------------------
       x     2.63099   0.00000   0.00000
       y     0.00000   2.63099   0.00000
       z     0.00000   0.00000   2.63099
-------------------------------------------------------------------------------

  Static refractive indices : 

-------------------------------------------------------------------------------
    1 =    5.18506      2 =    5.18506      3 =    5.18506
-------------------------------------------------------------------------------

  High frequency refractive indices : 

-------------------------------------------------------------------------------
    1 =    1.62203      2 =    1.62203      3 =    1.62203
-------------------------------------------------------------------------------


  Time to end of optimisation =       0.0146 seconds

********************************************************************************
*  Defect calculation for configuration   1 :                                  *
********************************************************************************

  Total number of defects =      3

  Total charge on defect  =   2.00

  Defect centre is at   0.5200   0.2500   0.2500  Frac

  Region 1 radius =  12.0000      Number of ions =   1326

  Number of symmetry inequivalent region 1 ions  =    412

  Region 2 radius =  24.0000      Number of ions =   9292

  Number of symmetry inequivalent region 2a ions =   2546

  Region 2a mode = 4 : screened electrostatics due to region 1 
                       neglect correction to region 1 forces from 2a
                       region 2a displacements based on defects only

  Region 2a ions will only interact with defects in region 1

  Vacancies:

--------------------------------------------------------------------------------
    Specification type     Symbol/Number         x          y          z
--------------------------------------------------------------------------------
    Fractional                               0.250000   0.250000   0.250000
    Fractional                               0.750000   0.250000   0.250000
--------------------------------------------------------------------------------

  Interstitials:

--------------------------------------------------------------------------------
    Specification type     Symbol/Number         x          y          z
--------------------------------------------------------------------------------
    Atom/Fractional         O                0.520000   0.250000   0.250000
--------------------------------------------------------------------------------


  Symmetry reduced region 1 (Relative to defect centre) :

--------------------------------------------------------------------------------
   No.   Atomic       x            y             z       Radius  Multiplicity   
         Label      (Angs)       (Angs)        (Angs)    (Angs)     
--------------------------------------------------------------------------------
     1  O     c      0.0000       0.0000       0.0000    0.0000     1    Defect
     2  Zr    c     -0.1015 *    -1.2689 *     1.2689    0.0000     2          
     3  O     c      1.1674 *     2.5378 *     0.0000 *  0.0000     4          
     4  O     c     -1.3704 *    -0.0000 *     2.5378 *  0.0000     4          
     5  Zr    c      2.4363 *    -1.2689 *    -1.2689    0.0000     2          
     6  Zr    c     -2.6394 *    -1.2689 *    -1.2689    0.0000     2          
     7  O     c      3.7052 *     0.0000       0.0000    0.0000     1          
     8  O     c      1.1674 *     2.5378 *     2.5378    0.0000     2          
     9  O     c      1.1674 *    -2.5378 *     2.5378    0.0000     2          
    10  O     c     -1.3704 *     2.5378 *     2.5378    0.0000     2          
    11  O     c     -1.3704 *     2.5378 *    -2.5378    0.0000     2          
    12  O     c     -3.9083 *    -0.0000      -0.0000    0.0000     1          
    13  Zr    c     -0.1015 *    -1.2689 *    -3.8068 *  0.0000     4          
    14  O     c      3.7052 *     2.5378 *    -0.0000 *  0.0000     4          
    15  O     c     -3.9083 *    -2.5378 *     0.0000 *  0.0000     4          
    16  Zr    c      2.4363 *    -3.8068 *     1.2689 *  0.0000     4          
    17  Zr    c     -2.6394 *    -3.8068 *     1.2689 *  0.0000     4          
    18  O     c      3.7052 *     2.5378 *    -2.5378    0.0000     2          
    19  O     c      3.7052 *     2.5378 *     2.5378    0.0000     2          
    20  O     c      1.1674 *    -0.0000 *     5.0757 *  0.0000     4          
    21  O     c     -1.3704 *    -5.0757 *     0.0000 *  0.0000     4          
    22  Zr    c      4.9742 *     1.2689 *    -1.2689    0.0000     2          
    23  O     c     -3.9083 *     2.5378 *     2.5378    0.0000     2          
    24  O     c     -3.9083 *    -2.5378 *     2.5378    0.0000     2          
    25  Zr    c     -0.1015 *    -3.8068 *     3.8068    0.0000     2          
    26  Zr    c     -5.1772 *    -1.2689 *     1.2689    0.0000     2          
    27  O     c      1.1674 *    -5.0757 *     2.5378 *  0.0000     4          
    28  O     c      1.1674 *     2.5378 *     5.0757 *  0.0000     4          
    29  O     c     -1.3704 *     2.5378 *     5.0757 *  0.0000     4          
    30  O     c     -1.3704 *    -2.5378 *     5.0757 *  0.0000     4          
    31  Zr    c      2.4363 *     3.8068 *     3.8068    0.0000     2          
    32  Zr    c     -2.6394 *     3.8068 *     3.8068    0.0000     2          
    33  O     c      6.2431 *    -0.0000      -0.0000    0.0000     1          
    34  O     c      3.7052 *     5.0757 *     0.0000 *  0.0000     4          
    35  Zr    c      4.9742 *    -3.8068 *    -1.2689 *  0.0000     4          
    36  O     c     -3.9083 *    -0.0000 *     5.0757 *  0.0000     4          
    37  O     c     -6.4461 *     0.0000       0.0000    0.0000     1          
    38  Zr    c     -0.1015 *    -6.3446 *     1.2689 *  0.0000     4          
    39  Zr    c     -5.1772 *     3.8068 *     1.2689 *  0.0000     4          
    40  O     c      6.2431 *     2.5378 *     0.0000 *  0.0000     4          
    41  O     c      3.7052 *     5.0757 *     2.5378 *  0.0000     4          
    42  O     c      3.7052 *    -2.5378 *     5.0757 *  0.0000     4          
    43  O     c     -3.9083 *     5.0757 *     2.5378 *  0.0000     4          
    44  O     c     -3.9083 *    -5.0757 *     2.5378 *  0.0000     4          
    45  Zr    c      2.4363 *     6.3446 *     1.2689 *  0.0000     4          
    46  O     c     -6.4461 *    -0.0000 *     2.5378 *  0.0000     4          
    47  Zr    c     -2.6394 *     6.3446 *     1.2689 *  0.0000     4          
    48  O     c      6.2431 *     2.5378 *     2.5378    0.0000     2          
    49  O     c      6.2431 *     2.5378 *    -2.5378    0.0000     2          
    50  O     c      1.1674 *     5.0757 *     5.0757    0.0000     2          
    51  O     c      1.1674 *    -5.0757 *     5.0757    0.0000     2          
    52  O     c     -1.3704 *     5.0757 *    -5.0757    0.0000     2          
    53  O     c     -1.3704 *     5.0757 *     5.0757    0.0000     2          
    54  Zr    c      4.9742 *    -3.8068 *     3.8068    0.0000     2          
    55  O     c     -6.4461 *     2.5378 *     2.5378    0.0000     2          
    56  O     c     -6.4461 *    -2.5378 *     2.5378    0.0000     2          
    57  Zr    c     -0.1015 *     3.8068 *     6.3446 *  0.0000     4          
    58  Zr    c     -5.1772 *    -3.8068 *     3.8068    0.0000     2          
    59  O     c      1.1674 *     0.0000 *     7.6135 *  0.0000     4          
    60  Zr    c      7.5120 *    -1.2689 *    -1.2689    0.0000     2          
    61  O     c     -1.3704 *    -0.0000 *     7.6135 *  0.0000     4          
    62  Zr    c      2.4363 *    -6.3446 *     3.8068 *  0.0000     4          
    63  Zr    c     -2.6394 *    -6.3446 *     3.8068 *  0.0000     4          
    64  Zr    c     -7.7150 *     1.2689 *     1.2689    0.0000     2          
    65  O     c      6.2431 *     5.0757 *    -0.0000 *  0.0000     4          
    66  O     c      3.7052 *    -5.0757 *    -5.0757    0.0000     2          
    67  O     c      3.7052 *    -5.0757 *     5.0757    0.0000     2          
    68  O     c      1.1674 *     7.6135 *     2.5378 *  0.0000     4          
    69  O     c      1.1674 *    -2.5378 *     7.6135 *  0.0000     4          
    70  O     c     -1.3704 *     2.5378 *     7.6135 *  0.0000     4          
    71  O     c     -1.3704 *    -7.6135 *     2.5378 *  0.0000     4          
    72  Zr    c      4.9742 *    -1.2689 *     6.3446 *  0.0000     4          
    73  O     c     -3.9083 *     5.0757 *    -5.0757    0.0000     2          
    74  O     c     -3.9083 *     5.0757 *     5.0757    0.0000     2          
    75  O     c     -6.4461 *     5.0757 *     0.0000 *  0.0000     4          
    76  Zr    c     -5.1772 *    -6.3446 *     1.2689 *  0.0000     4          
    77  O     c      6.2431 *     5.0757 *    -2.5378 *  0.0000     4          
    78  O     c      6.2431 *     5.0757 *     2.5378 *  0.0000     4          
    79  O     c      3.7052 *    -0.0000 *     7.6135 *  0.0000     4          
    80  Zr    c      7.5120 *     3.8068 *    -1.2689 *  0.0000     4          
    81  O     c     -3.9083 *    -7.6135 *     0.0000 *  0.0000     4          
    82  O     c     -6.4461 *     5.0757 *    -2.5378 *  0.0000     4          
    83  O     c     -6.4461 *     2.5378 *     5.0757 *  0.0000     4          
    84  Zr    c     -7.7150 *    -1.2689 *     3.8068 *  0.0000     4          
    85  O     c      8.7809 *     0.0000       0.0000    0.0000     1          
    86  O     c      3.7052 *     2.5378 *     7.6135 *  0.0000     4          
    87  O     c      3.7052 *     2.5378 *    -7.6135 *  0.0000     4          
    88  Zr    c      4.9742 *     6.3446 *     3.8068 *  0.0000     4          
    89  O     c     -3.9083 *     7.6135 *    -2.5378 *  0.0000     4          
    90  O     c     -3.9083 *     2.5378 *     7.6135 *  0.0000     4          
    91  Zr    c     -0.1015 *    -6.3446 *     6.3446    0.0000     2          
    92  Zr    c     -0.1015 *     1.2689 *     8.8824 *  0.0000     4          
    93  O     c     -8.9840 *    -0.0000      -0.0000    0.0000     1          
    94  Zr    c     -5.1772 *    -6.3446 *    -3.8068 *  0.0000     4          
    95  O     c      8.7809 *     2.5378 *    -0.0000 *  0.0000     4          
    96  O     c      1.1674 *    -7.6135 *     5.0757 *  0.0000     4          
    97  O     c      1.1674 *     7.6135 *     5.0757 *  0.0000     4          
    98  Zr    c      7.5120 *     3.8068 *     3.8068    0.0000     2          
    99  O     c     -1.3704 *     5.0757 *     7.6135 *  0.0000     4          
   100  O     c     -1.3704 *    -5.0757 *     7.6135 *  0.0000     4          
   101  Zr    c      2.4363 *     6.3446 *     6.3446    0.0000     2          
   102  Zr    c      2.4363 *    -1.2689 *     8.8824 *  0.0000     4          
   103  O     c     -8.9840 *    -2.5378 *     0.0000 *  0.0000     4          
   104  Zr    c     -2.6394 *     6.3446 *     6.3446    0.0000     2          
   105  Zr    c     -2.6394 *    -8.8824 *     1.2689 *  0.0000     4          
   106  Zr    c     -7.7150 *    -3.8068 *    -3.8068    0.0000     2          
   107  O     c      8.7809 *     2.5378 *     2.5378    0.0000     2          
   108  O     c      8.7809 *     2.5378 *    -2.5378    0.0000     2          
   109  O     c      6.2431 *     5.0757 *     5.0757    0.0000     2          
   110  O     c      6.2431 *     5.0757 *    -5.0757    0.0000     2          
   111  O     c     -6.4461 *     5.0757 *     5.0757    0.0000     2          
   112  O     c     -6.4461 *    -5.0757 *     5.0757    0.0000     2          
   113  Zr    c     -0.1015 *    -8.8824 *     3.8068 *  0.0000     4          
   114  O     c     -8.9840 *    -2.5378 *    -2.5378    0.0000     2          
   115  O     c     -8.9840 *    -2.5378 *     2.5378    0.0000     2          
   116  O     c      6.2431 *     7.6135 *     0.0000 *  0.0000     4          
   117  O     c      3.7052 *     7.6135 *     5.0757 *  0.0000     4          
   118  O     c      3.7052 *    -5.0757 *     7.6135 *  0.0000     4          
   119  Zr    c      7.5120 *     6.3446 *     1.2689 *  0.0000     4          
   120  O     c     -3.9083 *    -7.6135 *     5.0757 *  0.0000     4          
   121  O     c     -3.9083 *     5.0757 *     7.6135 *  0.0000     4          
   122  Zr    c      2.4363 *     3.8068 *     8.8824 *  0.0000     4          
   123  O     c     -6.4461 *     7.6135 *    -0.0000 *  0.0000     4          
   124  Zr    c     -2.6394 *     3.8068 *     8.8824 *  0.0000     4          
   125  Zr    c     -7.7150 *     1.2689 *     6.3446 *  0.0000     4          
   126  O     c      8.7809 *     0.0000 *    -5.0757 *  0.0000     4          
   127  O     c      6.2431 *     7.6135 *    -2.5378 *  0.0000     4          
   128  O     c      6.2431 *     7.6135 *     2.5378 *  0.0000     4          
   129  Zr    c     10.0499 *     1.2689 *    -1.2689    0.0000     2          
   130  O     c      1.1674 *    -0.0000 *    10.1514 *  0.0000     4          
   131  O     c     -1.3704 *    -0.0000 *    10.1514 *  0.0000     4          
   132  Zr    c      4.9742 *    -6.3446 *     6.3446    0.0000     2          
   133  Zr    c      4.9742 *     1.2689 *     8.8824 *  0.0000     4          
   134  O     c     -6.4461 *     2.5378 *     7.6135 *  0.0000     4          
   135  O     c     -6.4461 *     2.5378 *    -7.6135 *  0.0000     4          
   136  O     c     -8.9840 *    -0.0000 *     5.0757 *  0.0000     4          
   137  Zr    c     -5.1772 *    -6.3446 *     6.3446    0.0000     2          
   138  Zr    c     -5.1772 *    -8.8824 *    -1.2689 *  0.0000     4          
   139  Zr    c    -10.2529 *    -1.2689 *     1.2689    0.0000     2          
   140  O     c      8.7809 *     5.0757 *     2.5378 *  0.0000     4          
   141  O     c      8.7809 *     5.0757 *    -2.5378 *  0.0000     4          
   142  O     c      1.1674 *    -2.5378 *    10.1514 *  0.0000     4          
   143  O     c      1.1674 *     2.5378 *    10.1514 *  0.0000     4          
   144  Zr    c      7.5120 *    -3.8068 *     6.3446 *  0.0000     4          
   145  O     c     -1.3704 *    10.1514 *    -2.5378 *  0.0000     4          
   146  O     c     -1.3704 *     2.5378 *    10.1514 *  0.0000     4          
   147  O     c     -8.9840 *    -5.0757 *    -2.5378 *  0.0000     4          
   148  O     c     -8.9840 *    -5.0757 *     2.5378 *  0.0000     4          
   149  Zr    c     -7.7150 *    -6.3446 *     3.8068 *  0.0000     4          
   150  O     c      3.7052 *     0.0000 *    10.1514 *  0.0000     4          
   151  Zr    c     10.0499 *     3.8068 *     1.2689 *  0.0000     4          
   152  O     c      1.1674 *     7.6135 *     7.6135    0.0000     2          
   153  O     c      1.1674 *    -7.6135 *     7.6135    0.0000     2          
   154  O     c     -1.3704 *     7.6135 *    -7.6135    0.0000     2          
   155  O     c     -1.3704 *     7.6135 *     7.6135    0.0000     2          
   156  Zr    c      4.9742 *    -3.8068 *     8.8824 *  0.0000     4          
   157  O     c     -3.9083 *    10.1514 *    -0.0000 *  0.0000     4          
   158  Zr    c     -0.1015 *     6.3446 *     8.8824 *  0.0000     4          
   159  Zr    c     -5.1772 *     3.8068 *    -8.8824 *  0.0000     4          
   160  Zr    c    -10.2529 *     1.2689 *     3.8068 *  0.0000     4          
   161  O     c      6.2431 *    -5.0757 *     7.6135 *  0.0000     4          
   162  O     c      6.2431 *     7.6135 *     5.0757 *  0.0000     4          
   163  O     c      3.7052 *    10.1514 *    -2.5378 *  0.0000     4          
   164  O     c      3.7052 *     2.5378 *    10.1514 *  0.0000     4          
   165  O     c     -3.9083 *     2.5378 *   -10.1514 *  0.0000     4          
   166  O     c     -3.9083 *    10.1514 *     2.5378 *  0.0000     4          
   167  Zr    c      2.4363 *    -6.3446 *     8.8824 *  0.0000     4          
   168  O     c     -6.4461 *     7.6135 *    -5.0757 *  0.0000     4          
   169  O     c     -6.4461 *     7.6135 *     5.0757 *  0.0000     4          
   170  Zr    c     -2.6394 *    -8.8824 *     6.3446 *  0.0000     4          
   171  O     c     11.3188 *    -0.0000      -0.0000    0.0000     1          
   172  O     c      8.7809 *     5.0757 *     5.0757    0.0000     2          
   173  O     c      8.7809 *     5.0757 *    -5.0757    0.0000     2          
   174  O     c      3.7052 *    -7.6135 *     7.6135    0.0000     2          
   175  O     c      3.7052 *     7.6135 *     7.6135    0.0000     2          
   176  Zr    c     10.0499 *     3.8068 *    -3.8068    0.0000     2          
   177  O     c      1.1674 *     5.0757 *    10.1514 *  0.0000     4          
   178  O     c      1.1674 *    -5.0757 *    10.1514 *  0.0000     4          
   179  O     c     -1.3704 *   -10.1514 *     5.0757 *  0.0000     4          
   180  O     c     -1.3704 *     5.0757 *    10.1514 *  0.0000     4          
   181  O     c     -3.9083 *     7.6135 *     7.6135    0.0000     2          
   182  O     c     -3.9083 *    -7.6135 *     7.6135    0.0000     2          
   183  Zr    c     -0.1015 *    -1.2689 *    11.4203 *  0.0000     4          
   184  O     c     -8.9840 *     5.0757 *     5.0757    0.0000     2          
   185  O     c     -8.9840 *    -5.0757 *     5.0757    0.0000     2          
   186  O     c    -11.5218 *    -0.0000       0.0000    0.0000     1          
   187  Zr    c    -10.2529 *     3.8068 *    -3.8068    0.0000     2          
   188  O     c     11.3188 *     2.5378 *     0.0000 *  0.0000     4          
   189  O     c      8.7809 *     7.6135 *    -0.0000 *  0.0000     4          
   190  Zr    c      7.5120 *     6.3446 *     6.3446    0.0000     2          
   191  Zr    c      7.5120 *    -1.2689 *     8.8824 *  0.0000     4          
   192  Zr    c      2.4363 *     1.2689 *    11.4203 *  0.0000     4          
   193  O     c     -8.9840 *    -7.6135 *     0.0000 *  0.0000     4          
   194  Zr    c     -2.6394 *     1.2689 *    11.4203 *  0.0000     4          
   195  O     c    -11.5218 *    -0.0000 *     2.5378 *  0.0000     4          
   196  Zr    c     -7.7150 *    -6.3446 *    -6.3446    0.0000     2          
   197  Zr    c     -7.7150 *     1.2689 *    -8.8824 *  0.0000     4          
   198  O     c     11.3188 *     2.5378 *     2.5378    0.0000     2          
   199  O     c     11.3188 *     2.5378 *    -2.5378    0.0000     2          
   200  O     c      8.7809 *     7.6135 *     2.5378 *  0.0000     4          
   201  O     c      8.7809 *     7.6135 *    -2.5378 *  0.0000     4          
   202  O     c      6.2431 *    -0.0000 *    10.1514 *  0.0000     4          
   203  O     c      3.7052 *    -5.0757 *    10.1514 *  0.0000     4          
   204  O     c      3.7052 *    10.1514 *     5.0757 *  0.0000     4          
   205  Zr    c     10.0499 *    -1.2689 *     6.3446 *  0.0000     4          
   206  Zr    c      4.9742 *     8.8824 *     6.3446 *  0.0000     4          
   207  O     s      0.0000       0.0000       0.0000    0.0000     1    Defect
   208  Zr    s     -0.1015 *    -1.2689 *     1.2689    0.0000     2          
   209  O     s      1.1674 *     2.5378 *     0.0000 *  0.0000     4          
   210  O     s     -1.3704 *    -0.0000 *     2.5378 *  0.0000     4          
   211  Zr    s      2.4363 *    -1.2689 *    -1.2689    0.0000     2          
   212  Zr    s     -2.6394 *    -1.2689 *    -1.2689    0.0000     2          
   213  O     s      3.7052 *     0.0000       0.0000    0.0000     1          
   214  O     s      1.1674 *     2.5378 *     2.5378    0.0000     2          
   215  O     s      1.1674 *    -2.5378 *     2.5378    0.0000     2          
   216  O     s     -1.3704 *     2.5378 *     2.5378    0.0000     2          
   217  O     s     -1.3704 *     2.5378 *    -2.5378    0.0000     2          
   218  O     s     -3.9083 *    -0.0000      -0.0000    0.0000     1          
   219  Zr    s     -0.1015 *    -1.2689 *    -3.8068 *  0.0000     4          
   220  O     s      3.7052 *     2.5378 *    -0.0000 *  0.0000     4          
   221  O     s     -3.9083 *    -2.5378 *     0.0000 *  0.0000     4          
   222  Zr    s      2.4363 *    -3.8068 *     1.2689 *  0.0000     4          
   223  Zr    s     -2.6394 *    -3.8068 *     1.2689 *  0.0000     4          
   224  O     s      3.7052 *     2.5378 *    -2.5378    0.0000     2          
   225  O     s      3.7052 *     2.5378 *     2.5378    0.0000     2          
   226  O     s      1.1674 *    -0.0000 *     5.0757 *  0.0000     4          
   227  O     s     -1.3704 *    -5.0757 *     0.0000 *  0.0000     4          
   228  Zr    s      4.9742 *     1.2689 *    -1.2689    0.0000     2          
   229  O     s     -3.9083 *     2.5378 *     2.5378    0.0000     2          
   230  O     s     -3.9083 *    -2.5378 *     2.5378    0.0000     2          
   231  Zr    s     -0.1015 *    -3.8068 *     3.8068    0.0000     2          
   232  Zr    s     -5.1772 *    -1.2689 *     1.2689    0.0000     2          
   233  O     s      1.1674 *    -5.0757 *     2.5378 *  0.0000     4          
   234  O     s      1.1674 *     2.5378 *     5.0757 *  0.0000     4          
   235  O     s     -1.3704 *     2.5378 *     5.0757 *  0.0000     4          
   236  O     s     -1.3704 *    -2.5378 *     5.0757 *  0.0000     4          
   237  Zr    s      2.4363 *     3.8068 *     3.8068    0.0000     2          
   238  Zr    s     -2.6394 *     3.8068 *     3.8068    0.0000     2          
   239  O     s      6.2431 *    -0.0000      -0.0000    0.0000     1          
   240  O     s      3.7052 *     5.0757 *     0.0000 *  0.0000     4          
   241  Zr    s      4.9742 *    -3.8068 *    -1.2689 *  0.0000     4          
   242  O     s     -3.9083 *    -0.0000 *     5.0757 *  0.0000     4          
   243  O     s     -6.4461 *     0.0000       0.0000    0.0000     1          
   244  Zr    s     -0.1015 *    -6.3446 *     1.2689 *  0.0000     4          
   245  Zr    s     -5.1772 *     3.8068 *     1.2689 *  0.0000     4          
   246  O     s      6.2431 *     2.5378 *     0.0000 *  0.0000     4          
   247  O     s      3.7052 *     5.0757 *     2.5378 *  0.0000     4          
   248  O     s      3.7052 *    -2.5378 *     5.0757 *  0.0000     4          
   249  O     s     -3.9083 *     5.0757 *     2.5378 *  0.0000     4          
   250  O     s     -3.9083 *    -5.0757 *     2.5378 *  0.0000     4          
   251  Zr    s      2.4363 *     6.3446 *     1.2689 *  0.0000     4          
   252  O     s     -6.4461 *    -0.0000 *     2.5378 *  0.0000     4          
   253  Zr    s     -2.6394 *     6.3446 *     1.2689 *  0.0000     4          
   254  O     s      6.2431 *     2.5378 *     2.5378    0.0000     2          
   255  O     s      6.2431 *     2.5378 *    -2.5378    0.0000     2          
   256  O     s      1.1674 *     5.0757 *     5.0757    0.0000     2          
   257  O     s      1.1674 *    -5.0757 *     5.0757    0.0000     2          
   258  O     s     -1.3704 *     5.0757 *    -5.0757    0.0000     2          
   259  O     s     -1.3704 *     5.0757 *     5.0757    0.0000     2          
   260  Zr    s      4.9742 *    -3.8068 *     3.8068    0.0000     2          
   261  O     s     -6.4461 *     2.5378 *     2.5378    0.0000     2          
   262  O     s     -6.4461 *    -2.5378 *     2.5378    0.0000     2          
   263  Zr    s     -0.1015 *     3.8068 *     6.3446 *  0.0000     4          
   264  Zr    s     -5.1772 *    -3.8068 *     3.8068    0.0000     2          
   265  O     s      1.1674 *     0.0000 *     7.6135 *  0.0000     4          
   266  Zr    s      7.5120 *    -1.2689 *    -1.2689    0.0000     2          
   267  O     s     -1.3704 *    -0.0000 *     7.6135 *  0.0000     4          
   268  Zr    s      2.4363 *    -6.3446 *     3.8068 *  0.0000     4          
   269  Zr    s     -2.6394 *    -6.3446 *     3.8068 *  0.0000     4          
   270  Zr    s     -7.7150 *     1.2689 *     1.2689    0.0000     2          
   271  O     s      6.2431 *     5.0757 *    -0.0000 *  0.0000     4          
   272  O     s      3.7052 *    -5.0757 *    -5.0757    0.0000     2          
   273  O     s      3.7052 *    -5.0757 *     5.0757    0.0000     2          
   274  O     s      1.1674 *     7.6135 *     2.5378 *  0.0000     4          
   275  O     s      1.1674 *    -2.5378 *     7.6135 *  0.0000     4          
   276  O     s     -1.3704 *     2.5378 *     7.6135 *  0.0000     4          
   277  O     s     -1.3704 *    -7.6135 *     2.5378 *  0.0000     4          
   278  Zr    s      4.9742 *    -1.2689 *     6.3446 *  0.0000     4          
   279  O     s     -3.9083 *     5.0757 *    -5.0757    0.0000     2          
   280  O     s     -3.9083 *     5.0757 *     5.0757    0.0000     2          
   281  O     s     -6.4461 *     5.0757 *     0.0000 *  0.0000     4          
   282  Zr    s     -5.1772 *    -6.3446 *     1.2689 *  0.0000     4          
   283  O     s      6.2431 *     5.0757 *    -2.5378 *  0.0000     4          
   284  O     s      6.2431 *     5.0757 *     2.5378 *  0.0000     4          
   285  O     s      3.7052 *    -0.0000 *     7.6135 *  0.0000     4          
   286  Zr    s      7.5120 *     3.8068 *    -1.2689 *  0.0000     4          
   287  O     s     -3.9083 *    -7.6135 *     0.0000 *  0.0000     4          
   288  O     s     -6.4461 *     5.0757 *    -2.5378 *  0.0000     4          
   289  O     s     -6.4461 *     2.5378 *     5.0757 *  0.0000     4          
   290  Zr    s     -7.7150 *    -1.2689 *     3.8068 *  0.0000     4          
   291  O     s      8.7809 *     0.0000       0.0000    0.0000     1          
   292  O     s      3.7052 *     2.5378 *     7.6135 *  0.0000     4          
   293  O     s      3.7052 *     2.5378 *    -7.6135 *  0.0000     4          
   294  Zr    s      4.9742 *     6.3446 *     3.8068 *  0.0000     4          
   295  O     s     -3.9083 *     7.6135 *    -2.5378 *  0.0000     4          
   296  O     s     -3.9083 *     2.5378 *     7.6135 *  0.0000     4          
   297  Zr    s     -0.1015 *    -6.3446 *     6.3446    0.0000     2          
   298  Zr    s     -0.1015 *     1.2689 *     8.8824 *  0.0000     4          
   299  O     s     -8.9840 *    -0.0000      -0.0000    0.0000     1          
   300  Zr    s     -5.1772 *    -6.3446 *    -3.8068 *  0.0000     4          
   301  O     s      8.7809 *     2.5378 *    -0.0000 *  0.0000     4          
   302  O     s      1.1674 *    -7.6135 *     5.0757 *  0.0000     4          
   303  O     s      1.1674 *     7.6135 *     5.0757 *  0.0000     4          
   304  Zr    s      7.5120 *     3.8068 *     3.8068    0.0000     2          
   305  O     s     -1.3704 *     5.0757 *     7.6135 *  0.0000     4          
   306  O     s     -1.3704 *    -5.0757 *     7.6135 *  0.0000     4          
   307  Zr    s      2.4363 *     6.3446 *     6.3446    0.0000     2          
   308  Zr    s      2.4363 *    -1.2689 *     8.8824 *  0.0000     4          
   309  O     s     -8.9840 *    -2.5378 *     0.0000 *  0.0000     4          
   310  Zr    s     -2.6394 *     6.3446 *     6.3446    0.0000     2          
   311  Zr    s     -2.6394 *    -8.8824 *     1.2689 *  0.0000     4          
   312  Zr    s     -7.7150 *    -3.8068 *    -3.8068    0.0000     2          
   313  O     s      8.7809 *     2.5378 *     2.5378    0.0000     2          
   314  O     s      8.7809 *     2.5378 *    -2.5378    0.0000     2          
   315  O     s      6.2431 *     5.0757 *     5.0757    0.0000     2          
   316  O     s      6.2431 *     5.0757 *    -5.0757    0.0000     2          
   317  O     s     -6.4461 *     5.0757 *     5.0757    0.0000     2          
   318  O     s     -6.4461 *    -5.0757 *     5.0757    0.0000     2          
   319  Zr    s     -0.1015 *    -8.8824 *     3.8068 *  0.0000     4          
   320  O     s     -8.9840 *    -2.5378 *    -2.5378    0.0000     2          
   321  O     s     -8.9840 *    -2.5378 *     2.5378    0.0000     2          
   322  O     s      6.2431 *     7.6135 *     0.0000 *  0.0000     4          
   323  O     s      3.7052 *     7.6135 *     5.0757 *  0.0000     4          
   324  O     s      3.7052 *    -5.0757 *     7.6135 *  0.0000     4          
   325  Zr    s      7.5120 *     6.3446 *     1.2689 *  0.0000     4          
   326  O     s     -3.9083 *    -7.6135 *     5.0757 *  0.0000     4          
   327  O     s     -3.9083 *     5.0757 *     7.6135 *  0.0000     4          
   328  Zr    s      2.4363 *     3.8068 *     8.8824 *  0.0000     4          
   329  O     s     -6.4461 *     7.6135 *    -0.0000 *  0.0000     4          
   330  Zr    s     -2.6394 *     3.8068 *     8.8824 *  0.0000     4          
   331  Zr    s     -7.7150 *     1.2689 *     6.3446 *  0.0000     4          
   332  O     s      8.7809 *     0.0000 *    -5.0757 *  0.0000     4          
   333  O     s      6.2431 *     7.6135 *    -2.5378 *  0.0000     4          
   334  O     s      6.2431 *     7.6135 *     2.5378 *  0.0000     4          
   335  Zr    s     10.0499 *     1.2689 *    -1.2689    0.0000     2          
   336  O     s      1.1674 *    -0.0000 *    10.1514 *  0.0000     4          
   337  O     s     -1.3704 *    -0.0000 *    10.1514 *  0.0000     4          
   338  Zr    s      4.9742 *    -6.3446 *     6.3446    0.0000     2          
   339  Zr    s      4.9742 *     1.2689 *     8.8824 *  0.0000     4          
   340  O     s     -6.4461 *     2.5378 *     7.6135 *  0.0000     4          
   341  O     s     -6.4461 *     2.5378 *    -7.6135 *  0.0000     4          
   342  O     s     -8.9840 *    -0.0000 *     5.0757 *  0.0000     4          
   343  Zr    s     -5.1772 *    -6.3446 *     6.3446    0.0000     2          
   344  Zr    s     -5.1772 *    -8.8824 *    -1.2689 *  0.0000     4          
   345  Zr    s    -10.2529 *    -1.2689 *     1.2689    0.0000     2          
   346  O     s      8.7809 *     5.0757 *     2.5378 *  0.0000     4          
   347  O     s      8.7809 *     5.0757 *    -2.5378 *  0.0000     4          
   348  O     s      1.1674 *    -2.5378 *    10.1514 *  0.0000     4          
   349  O     s      1.1674 *     2.5378 *    10.1514 *  0.0000     4          
   350  Zr    s      7.5120 *    -3.8068 *     6.3446 *  0.0000     4          
   351  O     s     -1.3704 *    10.1514 *    -2.5378 *  0.0000     4          
   352  O     s     -1.3704 *     2.5378 *    10.1514 *  0.0000     4          
   353  O     s     -8.9840 *    -5.0757 *    -2.5378 *  0.0000     4          
   354  O     s     -8.9840 *    -5.0757 *     2.5378 *  0.0000     4          
   355  Zr    s     -7.7150 *    -6.3446 *     3.8068 *  0.0000     4          
   356  O     s      3.7052 *     0.0000 *    10.1514 *  0.0000     4          
   357  Zr    s     10.0499 *     3.8068 *     1.2689 *  0.0000     4          
   358  O     s      1.1674 *     7.6135 *     7.6135    0.0000     2          
   359  O     s      1.1674 *    -7.6135 *     7.6135    0.0000     2          
   360  O     s     -1.3704 *     7.6135 *    -7.6135    0.0000     2          
   361  O     s     -1.3704 *     7.6135 *     7.6135    0.0000     2          
   362  Zr    s      4.9742 *    -3.8068 *     8.8824 *  0.0000     4          
   363  O     s     -3.9083 *    10.1514 *    -0.0000 *  0.0000     4          
   364  Zr    s     -0.1015 *     6.3446 *     8.8824 *  0.0000     4          
   365  Zr    s     -5.1772 *     3.8068 *    -8.8824 *  0.0000     4          
   366  Zr    s    -10.2529 *     1.2689 *     3.8068 *  0.0000     4          
   367  O     s      6.2431 *    -5.0757 *     7.6135 *  0.0000     4          
   368  O     s      6.2431 *     7.6135 *     5.0757 *  0.0000     4          
   369  O     s      3.7052 *    10.1514 *    -2.5378 *  0.0000     4          
   370  O     s      3.7052 *     2.5378 *    10.1514 *  0.0000     4          
   371  O     s     -3.9083 *     2.5378 *   -10.1514 *  0.0000     4          
   372  O     s     -3.9083 *    10.1514 *     2.5378 *  0.0000     4          
   373  Zr    s      2.4363 *    -6.3446 *     8.8824 *  0.0000     4          
   374  O     s     -6.4461 *     7.6135 *    -5.0757 *  0.0000     4          
   375  O     s     -6.4461 *     7.6135 *     5.0757 *  0.0000     4          
   376  Zr    s     -2.6394 *    -8.8824 *     6.3446 *  0.0000     4          
   377  O     s     11.3188 *    -0.0000      -0.0000    0.0000     1          
   378  O     s      8.7809 *     5.0757 *     5.0757    0.0000     2          
   379  O     s      8.7809 *     5.0757 *    -5.0757    0.0000     2          
   380  O     s      3.7052 *    -7.6135 *     7.6135    0.0000     2          
   381  O     s      3.7052 *     7.6135 *     7.6135    0.0000     2          
   382  Zr    s     10.0499 *     3.8068 *    -3.8068    0.0000     2          
   383  O     s      1.1674 *     5.0757 *    10.1514 *  0.0000     4          
   384  O     s      1.1674 *    -5.0757 *    10.1514 *  0.0000     4          
   385  O     s     -1.3704 *   -10.1514 *     5.0757 *  0.0000     4          
   386  O     s     -1.3704 *     5.0757 *    10.1514 *  0.0000     4          
   387  O     s     -3.9083 *     7.6135 *     7.6135    0.0000     2          
   388  O     s     -3.9083 *    -7.6135 *     7.6135    0.0000     2          
   389  Zr    s     -0.1015 *    -1.2689 *    11.4203 *  0.0000     4          
   390  O     s     -8.9840 *     5.0757 *     5.0757    0.0000     2          
   391  O     s     -8.9840 *    -5.0757 *     5.0757    0.0000     2          
   392  O     s    -11.5218 *    -0.0000       0.0000    0.0000     1          
   393  Zr    s    -10.2529 *     3.8068 *    -3.8068    0.0000     2          
   394  O     s     11.3188 *     2.5378 *     0.0000 *  0.0000     4          
   395  O     s      8.7809 *     7.6135 *    -0.0000 *  0.0000     4          
   396  Zr    s      7.5120 *     6.3446 *     6.3446    0.0000     2          
   397  Zr    s      7.5120 *    -1.2689 *     8.8824 *  0.0000     4          
   398  Zr    s      2.4363 *     1.2689 *    11.4203 *  0.0000     4          
   399  O     s     -8.9840 *    -7.6135 *     0.0000 *  0.0000     4          
   400  Zr    s     -2.6394 *     1.2689 *    11.4203 *  0.0000     4          
   401  O     s    -11.5218 *    -0.0000 *     2.5378 *  0.0000     4          
   402  Zr    s     -7.7150 *    -6.3446 *    -6.3446    0.0000     2          
   403  Zr    s     -7.7150 *     1.2689 *    -8.8824 *  0.0000     4          
   404  O     s     11.3188 *     2.5378 *     2.5378    0.0000     2          
   405  O     s     11.3188 *     2.5378 *    -2.5378    0.0000     2          
   406  O     s      8.7809 *     7.6135 *     2.5378 *  0.0000     4          
   407  O     s      8.7809 *     7.6135 *    -2.5378 *  0.0000     4          
   408  O     s      6.2431 *    -0.0000 *    10.1514 *  0.0000     4          
   409  O     s      3.7052 *    -5.0757 *    10.1514 *  0.0000     4          
   410  O     s      3.7052 *    10.1514 *     5.0757 *  0.0000     4          
   411  Zr    s     10.0499 *    -1.2689 *     6.3446 *  0.0000     4          
   412  Zr    s      4.9742 *     8.8824 *     6.3446 *  0.0000     4          
--------------------------------------------------------------------------------


  Constraints on symmetry reduced coordinates :

--------------------------------------------------------------------------------
  Constraint no.      Unconstrained     Constrained    Coefficient    
                         Variable         Variable
--------------------------------------------------------------------------------
           1                 2 y             2 z        -1.00000
           2                 5 y             5 z         1.00000
           3                 6 y             6 z         1.00000
           4                 8 y             8 z         1.00000
           5                 9 y             9 z        -1.00000
           6                10 y            10 z         1.00000
           7                11 y            11 z        -1.00000
           8                18 y            18 z        -1.00000
           9                19 y            19 z         1.00000
          10                22 y            22 z        -1.00000
          11                23 y            23 z         1.00000
          12                24 y            24 z        -1.00000
          13                25 y            25 z        -1.00000
          14                26 y            26 z        -1.00000
          15                31 y            31 z         1.00000
          16                32 y            32 z         1.00000
          17                48 y            48 z         1.00000
          18                49 y            49 z        -1.00000
          19                50 y            50 z         1.00000
          20                51 y            51 z        -1.00000
          21                52 y            52 z        -1.00000
          22                53 y            53 z         1.00000
          23                54 y            54 z        -1.00000
          24                55 y            55 z         1.00000
          25                56 y            56 z        -1.00000
          26                58 y            58 z        -1.00000
          27                60 y            60 z         1.00000
          28                64 y            64 z         1.00000
          29                66 y            66 z         1.00000
          30                67 y            67 z        -1.00000
          31                73 y            73 z        -1.00000
          32                74 y            74 z         1.00000
          33                91 y            91 z        -1.00000
          34                98 y            98 z         1.00000
          35               101 y           101 z         1.00000
          36               104 y           104 z         1.00000
          37               106 y           106 z         1.00000
          38               107 y           107 z         1.00000
          39               108 y           108 z        -1.00000
          40               109 y           109 z         1.00000
          41               110 y           110 z        -1.00000
          42               111 y           111 z         1.00000
          43               112 y           112 z        -1.00000
          44               114 y           114 z         1.00000
          45               115 y           115 z        -1.00000
          46               129 y           129 z        -1.00000
          47               132 y           132 z        -1.00000
          48               137 y           137 z        -1.00000
          49               139 y           139 z        -1.00000
          50               152 y           152 z         1.00000
          51               153 y           153 z        -1.00000
          52               154 y           154 z        -1.00000
          53               155 y           155 z         1.00000
          54               172 y           172 z         1.00000
          55               173 y           173 z        -1.00000
          56               174 y           174 z        -1.00000
          57               175 y           175 z         1.00000
          58               176 y           176 z        -1.00000
          59               181 y           181 z         1.00000
          60               182 y           182 z        -1.00000
          61               184 y           184 z         1.00000
          62               185 y           185 z        -1.00000
          63               187 y           187 z        -1.00000
          64               190 y           190 z         1.00000
          65               196 y           196 z         1.00000
          66               198 y           198 z         1.00000
          67               199 y           199 z        -1.00000
          68               208 y           208 z        -1.00000
          69               211 y           211 z         1.00000
          70               212 y           212 z         1.00000
          71               214 y           214 z         1.00000
          72               215 y           215 z        -1.00000
          73               216 y           216 z         1.00000
          74               217 y           217 z        -1.00000
          75               224 y           224 z        -1.00000
          76               225 y           225 z         1.00000
          77               228 y           228 z        -1.00000
          78               229 y           229 z         1.00000
          79               230 y           230 z        -1.00000
          80               231 y           231 z        -1.00000
          81               232 y           232 z        -1.00000
          82               237 y           237 z         1.00000
          83               238 y           238 z         1.00000
          84               254 y           254 z         1.00000
          85               255 y           255 z        -1.00000
          86               256 y           256 z         1.00000
          87               257 y           257 z        -1.00000
          88               258 y           258 z        -1.00000
          89               259 y           259 z         1.00000
          90               260 y           260 z        -1.00000
          91               261 y           261 z         1.00000
          92               262 y           262 z        -1.00000
          93               264 y           264 z        -1.00000
          94               266 y           266 z         1.00000
          95               270 y           270 z         1.00000
          96               272 y           272 z         1.00000
          97               273 y           273 z        -1.00000
          98               279 y           279 z        -1.00000
          99               280 y           280 z         1.00000
         100               297 y           297 z        -1.00000
         101               304 y           304 z         1.00000
         102               307 y           307 z         1.00000
         103               310 y           310 z         1.00000
         104               312 y           312 z         1.00000
         105               313 y           313 z         1.00000
         106               314 y           314 z        -1.00000
         107               315 y           315 z         1.00000
         108               316 y           316 z        -1.00000
         109               317 y           317 z         1.00000
         110               318 y           318 z        -1.00000
         111               320 y           320 z         1.00000
         112               321 y           321 z        -1.00000
         113               335 y           335 z        -1.00000
         114               338 y           338 z        -1.00000
         115               343 y           343 z        -1.00000
         116               345 y           345 z        -1.00000
         117               358 y           358 z         1.00000
         118               359 y           359 z        -1.00000
         119               360 y           360 z        -1.00000
         120               361 y           361 z         1.00000
         121               378 y           378 z         1.00000
         122               379 y           379 z        -1.00000
         123               380 y           380 z        -1.00000
         124               381 y           381 z         1.00000
         125               382 y           382 z        -1.00000
         126               387 y           387 z         1.00000
         127               388 y           388 z        -1.00000
         128               390 y           390 z         1.00000
         129               391 y           391 z        -1.00000
         130               393 y           393 z        -1.00000
         131               396 y           396 z         1.00000
         132               402 y           402 z         1.00000
         133               404 y           404 z         1.00000
         134               405 y           405 z        -1.00000
--------------------------------------------------------------------------------


  Components of defect energy : 

--------------------------------------------------------------------------------
  Region 1 - region 1                   =     39.84349711 eV
  Region 1 - region 2a (unrelaxed)      =     -8.79686430 eV
  Region 1 - 2a (relaxed - correction)  =     -2.31559954 eV
  Region 1 (Total)                      =     28.73103327 eV
  Region 2a                             =      1.15778841 eV
  Region 2b                             =     -1.15551253 eV
--------------------------------------------------------------------------------
  Total defect energy                   =     28.73330915 eV
--------------------------------------------------------------------------------

  Largest displacement in region 2 =   0.0050 Angstroms


  Number of variables =     1064

  Maximum number of calculations  =        1000
  Maximum Hessian update interval =          10
  Maximum step size               =   1.0000000
  Maximum parameter tolerance     =   0.0000100
  Maximum function  tolerance     =   0.0000100
  Maximum gradient  tolerance     =   0.0010000

  Symmetry adapted optimisation

  Symmetry to be used for second derivatives

  Newton-Raphson optimiser to be used

  BFGS hessian update to be used

  Lower half triangular hessian to be used

  Start of defect optimisation :

  Cycle:      0 Defect Energy:  28.733309  Gnorm:     0.084031  CPU:    4.858
  ** Hessian calculated **
  Cycle:      1 Defect Energy:  20.974314  Gnorm:     0.032094  CPU:   14.794
  Cycle:      2 Defect Energy:  16.967390  Gnorm:     0.016852  CPU:   23.456
  Cycle:      3 Defect Energy:  16.486877  Gnorm:     0.012826  CPU:   29.307
  Cycle:      4 Defect Energy:  15.920845  Gnorm:     0.008321  CPU:   37.964
  Cycle:      5 Defect Energy:  15.550111  Gnorm:     0.006578  CPU:   45.197
  Cycle:      6 Defect Energy:  15.399977  Gnorm:     0.007092  CPU:   52.448
  Cycle:      7 Defect Energy:  15.267366  Gnorm:     0.005244  CPU:   59.700
  Cycle:      8 Defect Energy:  15.144245  Gnorm:     0.004308  CPU:   66.938
  Cycle:      9 Defect Energy:  15.057158  Gnorm:     0.004037  CPU:   74.197
  Cycle:     10 Defect Energy:  14.967834  Gnorm:     0.003434  CPU:   81.476
  ** Hessian calculated **
  Cycle:     11 Defect Energy:  14.922540  Gnorm:     0.003216  CPU:   88.782
  Cycle:     12 Defect Energy:  14.860324  Gnorm:     0.002891  CPU:   90.353
  Cycle:     13 Defect Energy:  14.780137  Gnorm:     0.002409  CPU:   91.916
  Cycle:     14 Defect Energy:  14.689380  Gnorm:     0.001724  CPU:   93.479
  Cycle:     15 Defect Energy:  14.646784  Gnorm:     0.001256  CPU:   95.041
  Cycle:     16 Defect Energy:  14.627003  Gnorm:     0.000908  CPU:   96.602
  Cycle:     17 Defect Energy:  14.617613  Gnorm:     0.000656  CPU:   98.175
  Cycle:     18 Defect Energy:  14.613176  Gnorm:     0.000470  CPU:   99.737
  Cycle:     19 Defect Energy:  14.611008  Gnorm:     0.000336  CPU:  101.313
  Cycle:     20 Defect Energy:  14.610082  Gnorm:     0.000239  CPU:  102.876
  ** Hessian calculated **
  Cycle:     21 Defect Energy:  14.609584  Gnorm:     0.000168  CPU:  110.149
  Cycle:     22 Defect Energy:  14.609349  Gnorm:     0.000118  CPU:  111.717
  Cycle:     23 Defect Energy:  14.609240  Gnorm:     0.000083  CPU:  113.282
  Cycle:     24 Defect Energy:  14.609191  Gnorm:     0.000058  CPU:  114.854
  Cycle:     25 Defect Energy:  14.609170  Gnorm:     0.000041  CPU:  116.423


  **** Optimisation achieved ****


  Final defect energy  =       14.60916114
  Final defect Gnorm   =        0.00002877

  Components of defect energy : 

--------------------------------------------------------------------------------
  Region 1 - region 1                   =     32.93947115 eV
  Region 1 - region 2a (unrelaxed)      =    -16.14548567 eV
  Region 1 - 2a (relaxed - correction)  =     -2.05830090 eV
  Region 1 (Total)                      =     14.73568457 eV
  Region 2a                             =      1.02900483 eV
  Region 2b                             =     -1.15552827 eV
--------------------------------------------------------------------------------
  Total defect energy                   =     14.60916114 eV
--------------------------------------------------------------------------------

  Largest displacement in region 2 =   0.0050 Angstroms

  Final coordinates of region 1 :

--------------------------------------------------------------------------------
   No.  Atomic        x           y           z          Radius      Charge
        Label       (Angs)      (Angs)      (Angs)       (Angs)       (e) 
--------------------------------------------------------------------------------
     1  O     c     2.639355    1.268921    1.268921    0.000000    0.077000
     2  Zr    c     2.549504   -0.038423    2.576265    0.000000    2.650000
     3  Zr    c     2.549504    2.576265   -0.038423    0.000000    2.650000
     4  O     c     3.869282    3.726457    1.232874    0.000000    0.077000
     5  O     c     3.869282    1.232874    3.726457    0.000000    0.077000
     6  O     c     3.869282    1.304967   -1.188615    0.000000    0.077000
     7  O     c     3.869282   -1.188615    1.304967    0.000000    0.077000
     8  O     c     1.240090    1.252696    3.706032    0.000000    0.077000
     9  O     c     1.240090    3.706032    1.252696    0.000000    0.077000
    10  O     c     1.240090   -1.168190    1.285145    0.000000    0.077000
    11  O     c     1.240090    1.285145   -1.168190    0.000000    0.077000
    12  Zr    c     5.123672   -0.043995   -0.043995    0.000000    2.650000
    13  Zr    c     5.123672    2.581837    2.581837    0.000000    2.650000
    14  Zr    c    -0.044852   -0.043496   -0.043496    0.000000    2.650000
    15  Zr    c    -0.044852    2.581338    2.581338    0.000000    2.650000
    16  O     c     5.644688    1.268921    1.268921    0.000000    0.077000
    17  O     c     3.783530    3.807973    3.807973    0.000000    0.077000
    18  O     c     3.783530   -1.270131   -1.270131    0.000000    0.077000
    19  O     c     3.792312   -1.313570    3.851412    0.000000    0.077000
    20  O     c     3.792312    3.851412   -1.313570    0.000000    0.077000
    21  O     c     1.266821    3.826536    3.826536    0.000000    0.077000
    22  O     c     1.266821   -1.288694   -1.288694    0.000000    0.077000
    23  O     c     1.258182    3.844041   -1.306199    0.000000    0.077000
    24  O     c     1.258182   -1.306199    3.844041    0.000000    0.077000
    25  O     c    -0.445313    1.268921    1.268921    0.000000    0.077000
    26  Zr    c     2.537888   -0.028632   -2.560131    0.000000    2.650000
    27  Zr    c     2.537888    2.566473    5.097973    0.000000    2.650000
    28  Zr    c     2.537888    5.097973    2.566473    0.000000    2.650000
    29  Zr    c     2.537888   -2.560131   -0.028632    0.000000    2.650000
    30  O     c     6.447908    3.766613    1.321837    0.000000    0.077000
    31  O     c     6.447908    1.321837    3.766613    0.000000    0.077000
    32  O     c     6.447908    1.216005   -1.228771    0.000000    0.077000
    33  O     c     6.447908   -1.228771    1.216005    0.000000    0.077000
    34  O     c    -1.357988   -1.218065    1.220590    0.000000    0.077000
    35  O     c    -1.357988    1.220590   -1.218065    0.000000    0.077000
    36  O     c    -1.357988    1.317252    3.755907    0.000000    0.077000
    37  O     c    -1.357988    3.755907    1.317252    0.000000    0.077000
    38  Zr    c     5.082353   -2.556580    2.557103    0.000000    2.650000
    39  Zr    c     5.082353    2.557103   -2.556580    0.000000    2.650000
    40  Zr    c     5.082353   -0.019261    5.094422    0.000000    2.650000
    41  Zr    c     5.082353    5.094422   -0.019261    0.000000    2.650000
    42  Zr    c    -0.006293   -2.557906    2.560817    0.000000    2.650000
    43  Zr    c    -0.006293    2.560817   -2.557906    0.000000    2.650000
    44  Zr    c    -0.006293    5.095748   -0.022975    0.000000    2.650000
    45  Zr    c    -0.006293   -0.022975    5.095748    0.000000    2.650000
    46  O     c     6.316768    3.783997   -1.246155    0.000000    0.077000
    47  O     c     6.316768   -1.246155    3.783997    0.000000    0.077000
    48  O     c     6.309912    3.842493    3.842493    0.000000    0.077000
    49  O     c     6.309912   -1.304651   -1.304651    0.000000    0.077000
    50  O     c     3.790781    1.275501    6.288195    0.000000    0.077000
    51  O     c     3.790781    6.288195    1.275501    0.000000    0.077000
    52  O     c     3.790781   -3.750353    1.262341    0.000000    0.077000
    53  O     c     3.790781    1.262341   -3.750353    0.000000    0.077000
    54  O     c     1.263667   -3.735441    1.265595    0.000000    0.077000
    55  O     c     1.263667    1.265595   -3.735441    0.000000    0.077000
    56  O     c     1.263667    1.272246    6.273283    0.000000    0.077000
    57  O     c     1.263667    6.273283    1.272246    0.000000    0.077000
    58  Zr    c     7.646727    2.574860   -0.037018    0.000000    2.650000
    59  Zr    c     7.646727   -0.037018    2.574860    0.000000    2.650000
    60  O     c    -1.261409    3.843370    3.843370    0.000000    0.077000
    61  O     c    -1.261409   -1.305528   -1.305528    0.000000    0.077000
    62  O     c    -1.263856   -1.253582    3.791424    0.000000    0.077000
    63  O     c    -1.263856    3.791424   -1.253582    0.000000    0.077000
    64  Zr    c     2.538126   -2.560626    5.098468    0.000000    2.650000
    65  Zr    c     2.538126    5.098468   -2.560626    0.000000    2.650000
    66  Zr    c    -2.579787   -0.042291    2.580132    0.000000    2.650000
    67  Zr    c    -2.579787    2.580132   -0.042291    0.000000    2.650000
    68  O     c     3.815619   -3.831496    3.792469    0.000000    0.077000
    69  O     c     3.815619    3.792469   -3.831496    0.000000    0.077000
    70  O     c     3.815619   -1.254627    6.369338    0.000000    0.077000
    71  O     c     3.815619    6.369338   -1.254627    0.000000    0.077000
    72  O     c     3.806873    3.802026    6.336614    0.000000    0.077000
    73  O     c     3.806873    6.336614    3.802026    0.000000    0.077000
    74  O     c     3.806873   -1.264184   -3.798773    0.000000    0.077000
    75  O     c     3.806873   -3.798773   -1.264184    0.000000    0.077000
    76  O     c     1.280000    3.796999    6.350213    0.000000    0.077000
    77  O     c     1.280000    6.350213    3.796999    0.000000    0.077000
    78  O     c     1.280000   -3.812371   -1.259157    0.000000    0.077000
    79  O     c     1.280000   -1.259157   -3.812371    0.000000    0.077000
    80  O     c     1.269548   -1.255725    6.362936    0.000000    0.077000
    81  O     c     1.269548    6.362936   -1.255725    0.000000    0.077000
    82  O     c     1.269548   -3.825095    3.793567    0.000000    0.077000
    83  O     c     1.269548    3.793567   -3.825095    0.000000    0.077000
    84  Zr    c     5.085200    5.097435    5.097435    0.000000    2.650000
[...]
    332 y          1.268921      1.270762     0.001841    Cartesian    0.15
    332 z         -3.806763     -3.804647     0.002116    Cartesian   -0.06
    333 x          8.882446      8.877388    -0.005058    Cartesian   -0.06
    333 y          8.882446      8.887543     0.005096    Cartesian    0.06
    333 z         -1.268921     -1.267611     0.001310    Cartesian   -0.10
    334 x          8.882446      8.875984    -0.006462    Cartesian   -0.07
    334 y          8.882446      8.877937    -0.004510    Cartesian   -0.05
    334 z          3.806763      3.808202     0.001439    Cartesian    0.04
    335 x         12.689209     12.688828    -0.000381    Cartesian   -0.00
    335 y          2.537842      2.549307     0.011465    Cartesian    0.45
    335 z          0.000000     -0.011465    -0.011465    Cartesian *******
    336 x          3.806763      3.804035    -0.002728    Cartesian   -0.07
    336 y          1.268921      1.269161     0.000240    Cartesian    0.02
    336 z         11.420288     11.404654    -0.015634    Cartesian   -0.14
    337 x          1.268921      1.267186    -0.001735    Cartesian   -0.14
    337 y          1.268921      1.268775    -0.000146    Cartesian   -0.01
    337 z         11.420288     11.400697    -0.019591    Cartesian   -0.17
    338 x          7.613525      7.614211     0.000686    Cartesian    0.01
    338 y         -5.075684     -5.080815    -0.005132    Cartesian    0.10
    338 z          7.613525      7.618657     0.005132    Cartesian    0.07
    339 x          7.613525      7.613333    -0.000192    Cartesian   -0.00
    339 y          2.537842      2.537975     0.000133    Cartesian    0.01
    339 z         10.151367     10.154095     0.002727    Cartesian    0.03
    340 x         -3.806763     -3.810022    -0.003259    Cartesian    0.09
    340 y          3.806763      3.808064     0.001302    Cartesian    0.03
    340 z          8.882446      8.875764    -0.006682    Cartesian   -0.08
    341 x         -3.806763     -3.806956    -0.000193    Cartesian    0.01
    341 y          3.806763      3.805812    -0.000950    Cartesian   -0.02
    341 z         -6.344605     -6.349060    -0.004455    Cartesian    0.07
    342 x         -6.344605     -6.341072     0.003533    Cartesian   -0.06
    342 y          1.268921      1.263043    -0.005877    Cartesian   -0.46
    342 z          6.344605      6.341118    -0.003486    Cartesian   -0.05
    343 x         -2.537842     -2.537804     0.000037    Cartesian   -0.00
    343 y         -5.075684     -5.082254    -0.006570    Cartesian    0.13
    343 z          7.613525      7.620096     0.006570    Cartesian    0.09
    344 x         -2.537842     -2.537676     0.000166    Cartesian   -0.01
    344 y         -7.613525     -7.617721    -0.004195    Cartesian    0.06
    344 z          0.000000      0.000064     0.000064    Cartesian    0.00
    345 x         -7.613525     -7.615263    -0.001738    Cartesian    0.02
    345 y         -0.000000     -0.013895    -0.013895    Cartesian *******
    345 z          2.537842      2.551737     0.013895    Cartesian    0.55
    346 x         11.420288     11.422973     0.002685    Cartesian    0.02
    346 y          6.344605      6.345353     0.000748    Cartesian    0.01
    346 z          3.806763      3.809972     0.003209    Cartesian    0.08
    347 x         11.420288     11.426845     0.006557    Cartesian    0.06
    347 y          6.344605      6.338561    -0.006044    Cartesian   -0.10
    347 z         -1.268921     -1.271104    -0.002183    Cartesian    0.17
    348 x          3.806763      3.807905     0.001143    Cartesian    0.03
    348 y         -1.268921     -1.267275     0.001646    Cartesian   -0.13
    348 z         11.420288     11.425913     0.005625    Cartesian    0.05
    349 x          3.806763      3.804116    -0.002646    Cartesian   -0.07
    349 y          3.806763      3.805357    -0.001406    Cartesian   -0.04
    349 z         11.420288     11.416005    -0.004283    Cartesian   -0.04
    350 x         10.151367     10.156022     0.004655    Cartesian    0.05
    350 y         -2.537842     -2.537907    -0.000065    Cartesian    0.00
    350 z          7.613525      7.618779     0.005254    Cartesian    0.07
    351 x          1.268921      1.268358    -0.000563    Cartesian   -0.04
    351 y         11.420288     11.424164     0.003875    Cartesian    0.03
    351 z         -1.268921     -1.267201     0.001720    Cartesian   -0.14
    352 x          1.268921      1.271553     0.002632    Cartesian    0.21
    352 y          3.806763      3.804987    -0.001776    Cartesian   -0.05
    352 z         11.420288     11.420747     0.000459    Cartesian    0.00
    353 x         -6.344605     -6.341442     0.003162    Cartesian   -0.05
    353 y         -3.806763     -3.809990    -0.003227    Cartesian    0.08
    353 z         -1.268921     -1.270121    -0.001200    Cartesian    0.09
    354 x         -6.344605     -6.346582    -0.001978    Cartesian    0.03
    354 y         -3.806763     -3.803058     0.003704    Cartesian   -0.10
    354 z          3.806763      3.805691    -0.001072    Cartesian   -0.03
    355 x         -5.075684     -5.079773    -0.004089    Cartesian    0.08
    355 y         -5.075684     -5.082899    -0.007216    Cartesian    0.14
    355 z          5.075684      5.077391     0.001708    Cartesian    0.03
    356 x          6.344605      6.342681    -0.001923    Cartesian   -0.03
    356 y          1.268921      1.267367    -0.001554    Cartesian   -0.12
    356 z         11.420288     11.413956    -0.006332    Cartesian   -0.06
    357 x         12.689209     12.697571     0.008362    Cartesian    0.07
    357 y          5.075684      5.075802     0.000118    Cartesian    0.00
    357 z          2.537842      2.535275    -0.002567    Cartesian   -0.10
    358 x          3.806763      3.808751     0.001989    Cartesian    0.05
    358 y          8.882446      8.880651    -0.001796    Cartesian   -0.02
    358 z          8.882446      8.880651    -0.001796    Cartesian   -0.02
    359 x          3.806763      3.802034    -0.004728    Cartesian   -0.12
    359 y         -6.344605     -6.342931     0.001674    Cartesian   -0.03
    359 z          8.882446      8.880773    -0.001674    Cartesian   -0.02
    360 x          1.268921      1.271559     0.002638    Cartesian    0.21
    360 y          8.882446      8.881039    -0.001408    Cartesian   -0.02
    360 z         -6.344605     -6.343197     0.001408    Cartesian   -0.02
    361 x          1.268921      1.266899    -0.002022    Cartesian   -0.16
    361 y          8.882446      8.880662    -0.001785    Cartesian   -0.02
    361 z          8.882446      8.880662    -0.001785    Cartesian   -0.02
    362 x          7.613525      7.616915     0.003389    Cartesian    0.04
    362 y         -2.537842     -2.539479    -0.001637    Cartesian    0.06
    362 z         10.151367     10.155709     0.004342    Cartesian    0.04
    363 x         -1.268921     -1.270958    -0.002037    Cartesian    0.16
    363 y         11.420288     11.410346    -0.009942    Cartesian   -0.09
    363 z          1.268921      1.266109    -0.002812    Cartesian   -0.22
    364 x          2.537842      2.538394     0.000553    Cartesian    0.02
    364 y          7.613525      7.616810     0.003285    Cartesian    0.04
    364 z         10.151367     10.158132     0.006764    Cartesian    0.07
    365 x         -2.537842     -2.541172    -0.003330    Cartesian    0.13
    365 y          5.075684      5.077691     0.002007    Cartesian    0.04
    365 z         -7.613525     -7.619290    -0.005764    Cartesian    0.08
    366 x         -7.613525     -7.626405    -0.012880    Cartesian    0.17
    366 y          2.537842      2.535990    -0.001851    Cartesian   -0.07
    366 z          5.075684      5.076925     0.001242    Cartesian    0.02
    367 x          8.882446      8.881780    -0.000666    Cartesian   -0.01
    367 y         -3.806763     -3.805677     0.001086    Cartesian   -0.03
    367 z          8.882446      8.878923    -0.003523    Cartesian   -0.04
    368 x          8.882446      8.882198    -0.000249    Cartesian   -0.00
    368 y          8.882446      8.883113     0.000667    Cartesian    0.01
    368 z          6.344605      6.342080    -0.002524    Cartesian   -0.04
    369 x          6.344605      6.343355    -0.001250    Cartesian   -0.02
    369 y         11.420288     11.410755    -0.009534    Cartesian   -0.08
    369 z         -1.268921     -1.266299     0.002622    Cartesian   -0.21
    370 x          6.344605      6.343451    -0.001154    Cartesian   -0.02
    370 y          3.806763      3.805456    -0.001306    Cartesian   -0.03
    370 z         11.420288     11.424397     0.004109    Cartesian    0.04
    371 x         -1.268921     -1.266587     0.002333    Cartesian   -0.18
    371 y          3.806763      3.805470    -0.001293    Cartesian   -0.03
    371 z         -8.882446     -8.872217     0.010229    Cartesian   -0.12
    372 x         -1.268921     -1.266715     0.002206    Cartesian   -0.17
    372 y         11.420288     11.421544     0.001256    Cartesian    0.01
    372 z          3.806763      3.804020    -0.002742    Cartesian   -0.07
    373 x          5.075684      5.077097     0.001414    Cartesian    0.03
    373 y         -5.075684     -5.079053    -0.003370    Cartesian    0.07
    373 z         10.151367     10.157625     0.006257    Cartesian    0.06
    374 x         -3.806763     -3.806281     0.000482    Cartesian   -0.01
    374 y          8.882446      8.878233    -0.004213    Cartesian   -0.05
    374 z         -3.806763     -3.805692     0.001071    Cartesian   -0.03
    375 x         -3.806763     -3.802398     0.004365    Cartesian   -0.11
    375 y          8.882446      8.879030    -0.003416    Cartesian   -0.04
    375 z          6.344605      6.341993    -0.002611    Cartesian   -0.04
    376 x         -0.000000     -0.001465    -0.001465    Cartesian *******
    376 y         -7.613525     -7.621425    -0.007899    Cartesian    0.10
    376 z          7.613525      7.617540     0.004015    Cartesian    0.05
    377 x         13.958130     13.870057    -0.088073    Cartesian   -0.63
    377 y          1.268921      1.268921     0.000000    Cartesian    0.00
    377 z          1.268921      1.268921     0.000000    Cartesian    0.00
    378 x         11.420288     11.412379    -0.007909    Cartesian   -0.07
    378 y          6.344605      6.340793    -0.003812    Cartesian   -0.06
    378 z          6.344605      6.340793    -0.003812    Cartesian   -0.06
    379 x         11.420288     11.419118    -0.001170    Cartesian   -0.01
    379 y          6.344605      6.344337    -0.000268    Cartesian   -0.00
    379 z         -3.806763     -3.806495     0.000268    Cartesian   -0.01
    380 x          6.344605      6.344163    -0.000441    Cartesian   -0.01
    380 y         -6.344605     -6.341520     0.003085    Cartesian   -0.05
    380 z          8.882446      8.879362    -0.003085    Cartesian   -0.03
    381 x          6.344605      6.340450    -0.004155    Cartesian   -0.07
    381 y          8.882446      8.881006    -0.001441    Cartesian   -0.02
    381 z          8.882446      8.881006    -0.001441    Cartesian   -0.02
    382 x         12.689209     12.694096     0.004887    Cartesian    0.04
    382 y          5.075684      5.083223     0.007540    Cartesian    0.15
    382 z         -2.537842     -2.545382    -0.007540    Cartesian    0.30
    383 x          3.806763      3.806500    -0.000263    Cartesian   -0.01
    383 y          6.344605      6.343808    -0.000797    Cartesian   -0.01
    383 z         11.420288     11.416261    -0.004027    Cartesian   -0.04
    384 x          3.806763      3.805003    -0.001759    Cartesian   -0.05
    384 y         -3.806763     -3.805002     0.001761    Cartesian   -0.05
    384 z         11.420288     11.413157    -0.007131    Cartesian   -0.06
    385 x          1.268921      1.268561    -0.000360    Cartesian   -0.03
    385 y         -8.882446     -8.874687     0.007759    Cartesian   -0.09
    385 z          6.344605      6.343050    -0.001555    Cartesian   -0.02
    386 x          1.268921      1.270138     0.001217    Cartesian    0.10
    386 y          6.344605      6.342041    -0.002564    Cartesian   -0.04
    386 z         11.420288     11.412210    -0.008078    Cartesian   -0.07
    387 x         -1.268921     -1.263756     0.005165    Cartesian   -0.41
    387 y          8.882446      8.874706    -0.007741    Cartesian   -0.09
    387 z          8.882446      8.874706    -0.007741    Cartesian   -0.09
    388 x         -1.268921     -1.270210    -0.001289    Cartesian    0.10
    388 y         -6.344605     -6.341349     0.003255    Cartesian   -0.05
    388 z          8.882446      8.879191    -0.003255    Cartesian   -0.04
    389 x          2.537842      2.538379     0.000537    Cartesian    0.02
    389 y         -0.000000     -0.004120    -0.004120    Cartesian *******
    389 z         12.689209     12.697042     0.007833    Cartesian    0.06
    390 x         -6.344605     -6.338248     0.006356    Cartesian   -0.10
    390 y          6.344605      6.338568    -0.006037    Cartesian   -0.10
    390 z          6.344605      6.338568    -0.006037    Cartesian   -0.10
    391 x         -6.344605     -6.348008    -0.003403    Cartesian    0.05
    391 y         -3.806763     -3.805091     0.001671    Cartesian   -0.04
    391 z          6.344605      6.342933    -0.001671    Cartesian   -0.03
    392 x         -8.882446     -8.786503     0.095943    Cartesian   -1.08
    392 y          1.268921      1.268921     0.000000    Cartesian    0.00
    392 z          1.268921      1.268921     0.000000    Cartesian    0.00
    393 x         -7.613525     -7.624654    -0.011129    Cartesian    0.15
    393 y          5.075684      5.085405     0.009721    Cartesian    0.19
    393 z         -2.537842     -2.547563    -0.009721    Cartesian    0.38
    394 x         13.958130     13.986502     0.028372    Cartesian    0.20
    394 y          3.806763      3.800338    -0.006425    Cartesian   -0.17
    394 z          1.268921      1.263962    -0.004959    Cartesian   -0.39
    395 x         11.420288     11.421239     0.000951    Cartesian    0.01
    395 y          8.882446      8.879910    -0.002536    Cartesian   -0.03
    395 z          1.268921      1.270473     0.001552    Cartesian    0.12
    396 x         10.151367     10.155701     0.004333    Cartesian    0.04
    396 y          7.613525      7.620521     0.006996    Cartesian    0.09
    396 z          7.613525      7.620521     0.006996    Cartesian    0.09
    397 x         10.151367     10.155351     0.003984    Cartesian    0.04
    397 y          0.000000     -0.000712    -0.000712    Cartesian    0.00
    397 z         10.151367     10.157882     0.006515    Cartesian    0.06
    398 x          5.075684      5.078422     0.002738    Cartesian    0.05
    398 y          2.537842      2.540691     0.002849    Cartesian    0.11
    398 z         12.689209     12.698187     0.008978    Cartesian    0.07
    399 x         -6.344605     -6.336360     0.008245    Cartesian   -0.13
    399 y         -6.344605     -6.337219     0.007385    Cartesian   -0.12
    399 z          1.268921      1.265555    -0.003365    Cartesian   -0.27
    400 x          0.000000     -0.002217    -0.002217    Cartesian    0.00
    400 y          2.537842      2.541190     0.003348    Cartesian    0.13
    400 z         12.689209     12.698813     0.009604    Cartesian    0.08
    401 x         -8.882446     -8.902550    -0.020104    Cartesian    0.23
    401 y          1.268921      1.264356    -0.004565    Cartesian   -0.36
    401 z          3.806763      3.798933    -0.007830    Cartesian   -0.21
    402 x         -5.075684     -5.081723    -0.006039    Cartesian    0.12
    402 y         -5.075684     -5.083887    -0.008203    Cartesian    0.16
    402 z         -5.075684     -5.083887    -0.008203    Cartesian    0.16
    403 x         -5.075684     -5.081022    -0.005338    Cartesian    0.11
    403 y          2.537842      2.539898     0.002056    Cartesian    0.08
    403 z         -7.613525     -7.623535    -0.010010    Cartesian    0.13
    404 x         13.958130     13.936673    -0.021457    Cartesian   -0.15
    404 y          3.806763      3.805252    -0.001511    Cartesian   -0.04
    404 z          3.806763      3.805252    -0.001511    Cartesian   -0.04
    405 x         13.958130     13.931368    -0.026762    Cartesian   -0.19
    405 y          3.806763      3.806495    -0.000268    Cartesian   -0.01
    405 z         -1.268921     -1.268653     0.000268    Cartesian   -0.02
    406 x         11.420288     11.409447    -0.010841    Cartesian   -0.09
    406 y          8.882446      8.876123    -0.006323    Cartesian   -0.07
    406 z          3.806763      3.801815    -0.004948    Cartesian   -0.13
    407 x         11.420288     11.417373    -0.002915    Cartesian   -0.03
    407 y          8.882446      8.877935    -0.004511    Cartesian   -0.05
    407 z         -1.268921     -1.269086    -0.000165    Cartesian    0.01
    408 x          8.882446      8.878487    -0.003959    Cartesian   -0.04
    408 y          1.268921      1.268830    -0.000091    Cartesian   -0.01
    408 z         11.420288     11.409981    -0.010307    Cartesian   -0.09
    409 x          6.344605      6.341853    -0.002752    Cartesian   -0.04
    409 y         -3.806763     -3.803932     0.002830    Cartesian   -0.07
    409 z         11.420288     11.414028    -0.006260    Cartesian   -0.05
    410 x          6.344605      6.342509    -0.002095    Cartesian   -0.03
    410 y         11.420288     11.410694    -0.009594    Cartesian   -0.08
    410 z          6.344605      6.341846    -0.002759    Cartesian   -0.04
    411 x         12.689209     12.698977     0.009768    Cartesian    0.08
    411 y          0.000000     -0.001811    -0.001811    Cartesian    0.00
    411 z          7.613525      7.619845     0.006320    Cartesian    0.08
    412 x          7.613525      7.617779     0.004254    Cartesian    0.06
    412 y         10.151367     10.159554     0.008186    Cartesian    0.08
    412 z          7.613525      7.618601     0.005075    Cartesian    0.07
--------------------------------------------------------------------------------


  Time to end of optimisation  =      118.0036 seconds


  Peak dynamic memory used =     401.95 MB 


  Timing analysis for GULP :

--------------------------------------------------------------------------------
  Task / Subroutine                                          Time (Seconds)
--------------------------------------------------------------------------------
  Calculation of reciprocal space energy and derivatives          0.0002
  Calculation of reciprocal space energy using symmetry           0.0002
  Calculation of real space energy and derivatives                0.0020
  Calculation of real space energy using symmetry                 0.0071
  Calculation for region 1 energy and derivatives (2-b)          29.9643
  Calculation for region 2a energy                               75.4539
  Calculation for region 2b energy                                0.0104
  Calculation and manipulation of Hessian matrix                 11.3107
  Calculation of matrix inversion                                 0.8307
  Symmetry generation of equivalent positions                     0.0015
--------------------------------------------------------------------------------
  Total CPU time                                                118.0036
--------------------------------------------------------------------------------


  Dump file written as ZrO2.grs


  Job Finished at 12:39.40 14th October    2020                               

