********************************************************************************
*                       GENERAL UTILITY LATTICE PROGRAM                        *
*                                 Julian Gale                                  *
*                       Curtin Institute for Computation                       *
*                    School of Molecular and Life Sciences                     *
*                    Curtin University, Western Australia                      *
********************************************************************************
* Version = 5.2.0 * Last modified =  10th September 2020                       *
********************************************************************************
* Zirconia doped with calcium                                                  *
*  optimise     - perform optimisation run                                     *
*  conp         - constant pressure calculation                                *
*  property     - calculate properties for final geometry                      *
*  defect       - perform defect calculation after bulk run                    *
*  distance     - calculate distances                                          *
*  compare      - compare initial and final structures                         *
********************************************************************************
* Zirconia doped with calcium                                                  *
********************************************************************************


  Job Started  at 12:41.37 14th October    2020                               

  Number of CPUs =     1


  Total number of configurations input =      1

********************************************************************************
*  Input for Configuration =   1 : ZrO2                                        *
********************************************************************************

  Formula = ZrO2                                                        

  Number of irreducible atoms/shells =       4


  Total number atoms/shells =       6

  Dimensionality = 3               :  Bulk   


  Symmetry :

  Crystal family                   :  Cubic       
  Crystal class  (Groth - 1921)    :  Cubic Hexakisoctahedral              

  Space group (centrosymmetric)    :  F M 3 M         

  Patterson group                  :  F m -3 m 

  Cartesian lattice vectors (Angstroms) :

        0.000000    2.535000    2.535000
        2.535000    0.000000    2.535000
        2.535000    2.535000    0.000000

  Primitive cell parameters :            Full cell parameters :

  a =   3.5850    alpha =  60.0000       a =   5.0700    alpha =  90.0000
  b =   3.5850    beta  =  60.0000       b =   5.0700    beta  =  90.0000
  c =   3.5850    gamma =  60.0000       c =   5.0700    gamma =  90.0000

  Initial volumes (Angstroms**3):

  Primitive cell =          32.580961    Full cell =         130.323843

  Temperature of configuration =   0.00     K 

  Pressure of configuration =         0.000 GPa 

  Fractional coordinates of asymmetric unit :

--------------------------------------------------------------------------------
   No.  Atomic       x           y          z         Charge      Occupancy
        Label      (Frac)      (Frac)     (Frac)        (e)         (Frac)  
--------------------------------------------------------------------------------
      1 Zr    c    0.000000    0.000000    0.000000     2.65000    1.000000    
      2 O     c    0.250000    0.250000    0.250000     0.07700    1.000000    
      3 Zr    s    0.000000    0.000000    0.000000     1.35000    1.000000    
      4 O     s    0.250000    0.250000    0.250000    -2.07700    1.000000    
--------------------------------------------------------------------------------


  Constraints : 

--------------------------------------------------------------------------------
  Constraint no.      Unconstrained     Constrained    Coefficient    Offset
                         Variable         Variable
--------------------------------------------------------------------------------
           1              Strain 1        Strain 2       1.00000      0.0000
           2              Strain 1        Strain 3       1.00000      0.0000
--------------------------------------------------------------------------------


  Distance calculation :


  Cutoff for distances  =      4.000000 Angstroms

--------------------------------------------------------------------------------
  Asymmetric unit site  Full lattice sites    No.  Distance      No.  Distance
      No.   At.No.            At.No.                (Angs)             (Angs) 
--------------------------------------------------------------------------------
       1   Zr    core        Zr    core        12    3.5850
                             Zr    shell       12    3.5850
                             O     core         8    2.1954
                             O     shell        8    2.1954
--------------------------------------------------------------------------------
       2   O     core        Zr    core         4    2.1954
                             Zr    shell        4    2.1954
                             O     core         6    2.5350       12    3.5850
                             O     shell        6    2.5350       12    3.5850
--------------------------------------------------------------------------------
       3   Zr    shell       Zr    core        12    3.5850
                             Zr    shell       12    3.5850
                             O     core         8    2.1954
                             O     shell        8    2.1954
--------------------------------------------------------------------------------
       4   O     shell       Zr    core         4    2.1954
                             Zr    shell        4    2.1954
                             O     core         6    2.5350       12    3.5850
                             O     shell        6    2.5350       12    3.5850
--------------------------------------------------------------------------------



********************************************************************************
*  General input information                                                   *
********************************************************************************

  Species output for all configurations : 

--------------------------------------------------------------------------------
  Species    Type    Atomic    Atomic    Charge       Radii (Angs)     Library
                     Number     Mass       (e)     Cova   Ionic  VDW   Symbol
--------------------------------------------------------------------------------
    Zr       Core       40      91.22   2.650000   1.560  0.000  2.330          
    Zr       Shell      40       0.00   1.350000   1.560  0.000  2.330          
    O        Core        8      16.00   0.077000   0.730  0.000  1.360          
    O        Shell       8       0.00  -2.077000   0.730  0.000  1.360          
--------------------------------------------------------------------------------


  Lattice summation method               =    Ewald          (3-D)
                                         =    Parry          (2-D)
                                         =    Saunders et al (1-D)
  Accuracy factor for lattice sums       =   12.000


  Analytic derivatives to be used

  Time limit = Infinity

  Maximum range for interatomic potentials =    100000.000000 Angstroms

  General interatomic potentials :

--------------------------------------------------------------------------------
Atom  Types   Potential      Parameter       Value         Units   Cutoffs(Ang)
  1     2                                                            Min /  Max 
--------------------------------------------------------------------------------
O    s Zr   s Buckingham    Buckingham A     985.86900    eV        0.000 12.000
                            Buckingham rho  0.37600000    Ang       
                            Buckingham C     0.0000000    eV*Ang^6  
--------------------------------------------------------------------------------
O    s O    s Buckingham    Buckingham A     22764.300    eV        0.000 12.000
                            Buckingham rho  0.14900000    Ang       
                            Buckingham C     27.890000    eV*Ang^6  
--------------------------------------------------------------------------------
Zr   c Zr   s Spring (c-s)  Spring k 2       169.61700    eV*Ang^-2 0.000  0.800
                            Spring k 4       0.0000000    eV*Ang^-4 
--------------------------------------------------------------------------------
O    c O    s Spring (c-s)  Spring k 2       27.290000    eV*Ang^-2 0.000  0.800
                            Spring k 4       0.0000000    eV*Ang^-4 
--------------------------------------------------------------------------------

********************************************************************************
*  Output for configuration   1 : ZrO2                                         *
********************************************************************************


  Components of energy : 

--------------------------------------------------------------------------------
  Interatomic potentials     =          22.43756329 eV    
  Monopole - monopole (real) =         -15.67991073 eV    
  Monopole - monopole (recip)=        -116.52038266 eV    
  Monopole - monopole (total)=        -132.20029339 eV    
--------------------------------------------------------------------------------
  Total lattice energy : 
    Primitive unit cell      =        -109.76273010 eV    
    Non-primitive unit cell  =        -439.05092039 eV    
--------------------------------------------------------------------------------
  Total lattice energy (in kJmol-1): 
    Primitive unit cell      =          -10590.4256 kJ/(mole unit cells)
    Non-primitive unit cell  =          -42361.7023 kJ/(mole unit cells)
--------------------------------------------------------------------------------


  Number of variables =        1

  Maximum number of calculations  =          1000
  Maximum Hessian update interval =            10
  Maximum step size               =   1.000000000
  Maximum parameter tolerance     =   0.000010000
  Maximum function  tolerance     =   0.000010000
  Maximum gradient  tolerance     =   0.001000000
  Maximum gradient  component     =   0.010000000

  Symmetry constrained optimisation

  Symmetry used for second derivatives

  Cell parameters to be optimised using strains

  Newton-Raphson optimiser to be used

  BFGS hessian update to be used

  Lower half triangular hessian to be used

  Start of bulk optimisation :

  Cycle:      0 Energy:      -109.762730  Gnorm:      0.588311  CPU:    0.006
  ** Hessian calculated **
  Cycle:      1 Energy:      -109.763059  Gnorm:      0.000316  CPU:    0.009


  **** Optimisation achieved ****


  Final energy =    -109.76305939 eV
  Final Gnorm  =       0.00000099

  Components of energy : 

--------------------------------------------------------------------------------
  Interatomic potentials     =          22.28919976 eV    
  Monopole - monopole (real) =         -15.66235280 eV    
  Monopole - monopole (recip)=        -116.38990634 eV    
  Monopole - monopole (total)=        -132.05225914 eV    
--------------------------------------------------------------------------------
  Total lattice energy : 
    Primitive unit cell      =        -109.76305939 eV    
    Non-primitive unit cell  =        -439.05223754 eV    
--------------------------------------------------------------------------------
  Total lattice energy (in kJmol-1): 
    Primitive unit cell      =          -10590.4573 kJ/(mole unit cells)
    Non-primitive unit cell  =          -42361.8294 kJ/(mole unit cells)
--------------------------------------------------------------------------------

  Final asymmetric unit coordinates :

--------------------------------------------------------------------------------
   No.  Atomic        x           y           z         Radius
        Label       (Frac)      (Frac)      (Frac)       (Angs) 
--------------------------------------------------------------------------------
     1  Zr    c     0.000000    0.000000    0.000000    0.000000
     2  O     c     0.250000    0.250000    0.250000    0.000000
     3  Zr    s     0.000000    0.000000    0.000000    0.000000
     4  O     s     0.250000    0.250000    0.250000    0.000000
--------------------------------------------------------------------------------

  Final Cartesian lattice vectors (Angstroms) :

        0.000000    2.537842    2.537842
        2.537842    0.000000    2.537842
        2.537842    2.537842    0.000000


  Final cell parameters and derivatives :

--------------------------------------------------------------------------------
       a            3.589050 Angstrom     dE/de1(xx)    -0.000001 eV/strain
       b            3.589050 Angstrom     dE/de2(yy)     0.000000 eV/strain
       c            3.589050 Angstrom     dE/de3(zz)     0.000000 eV/strain
       alpha       60.000000 Degrees      dE/de4(yz)     0.000000 eV/strain
       beta        60.000000 Degrees      dE/de5(xz)     0.000000 eV/strain
       gamma       60.000000 Degrees      dE/de6(xy)     0.000000 eV/strain
--------------------------------------------------------------------------------

  Primitive cell volume =            32.690656 Angs**3

  Density of cell =      6.259124 g/cm**3

  Non-primitive lattice parameters :

  a    =     5.075684  b   =     5.075684  c    =     5.075684
  alpha=    90.000000  beta=    90.000000  gamma=    90.000000

  Non-primitive cell volume =           130.762624 Angs**3


  Final internal derivatives :

--------------------------------------------------------------------------------
   No.  Atomic          a             b             c           Radius
        Label          (eV)          (eV)          (eV)        (eV/Angs)
--------------------------------------------------------------------------------
      1 Zr    c       0.000000      0.000000      0.000000      0.000000
      2 O     c       0.000000      0.000000      0.000000      0.000000
      3 Zr    s       0.000000      0.000000      0.000000      0.000000
      4 O     s       0.000000      0.000000      0.000000      0.000000
--------------------------------------------------------------------------------
  Maximum abs         0.000000      0.000000      0.000000      0.000000
--------------------------------------------------------------------------------

  Comparison of initial and final structures : 

--------------------------------------------------------------------------------
  Parameter   Initial value   Final value   Difference    Units      Percent
--------------------------------------------------------------------------------
    Volume       130.323843    130.762624     0.438781    Angs**3      0.34
    a              5.070000      5.075684     0.005684    Angstroms    0.11
    b              5.070000      5.075684     0.005684    Angstroms    0.11
    c              5.070000      5.075684     0.005684    Angstroms    0.11
    alpha         90.000000     90.000000     0.000000    Degrees      0.00
    beta          90.000000     90.000000     0.000000    Degrees      0.00
    gamma         90.000000     90.000000     0.000000    Degrees      0.00
      1 x          0.000000      0.000000     0.000000    Fractional   0.00
      1 y          0.000000      0.000000     0.000000    Fractional   0.00
      1 z          0.000000      0.000000     0.000000    Fractional   0.00
      2 x          0.250000      0.250000     0.000000    Fractional   0.00
      2 y          0.250000      0.250000     0.000000    Fractional   0.00
      2 z          0.250000      0.250000     0.000000    Fractional   0.00
      3 x          0.000000      0.000000     0.000000    Fractional   0.00
      3 y          0.000000      0.000000     0.000000    Fractional   0.00
      3 z          0.000000      0.000000     0.000000    Fractional   0.00
      4 x          0.250000      0.250000     0.000000    Fractional   0.00
      4 y          0.250000      0.250000     0.000000    Fractional   0.00
      4 z          0.250000      0.250000     0.000000    Fractional   0.00
--------------------------------------------------------------------------------


  Distance calculation :


  Cutoff for distances  =      4.000000 Angstroms

--------------------------------------------------------------------------------
  Asymmetric unit site  Full lattice sites    No.  Distance      No.  Distance
      No.   At.No.            At.No.                (Angs)             (Angs) 
--------------------------------------------------------------------------------
       1   Zr    core        Zr    core        12    3.5891
                             Zr    shell       12    3.5891
                             O     core         8    2.1978
                             O     shell        8    2.1978
--------------------------------------------------------------------------------
       2   O     core        Zr    core         4    2.1978
                             Zr    shell        4    2.1978
                             O     core         6    2.5378       12    3.5891
                             O     shell        6    2.5378       12    3.5891
--------------------------------------------------------------------------------
       3   Zr    shell       Zr    core        12    3.5891
                             Zr    shell       12    3.5891
                             O     core         8    2.1978
                             O     shell        8    2.1978
--------------------------------------------------------------------------------
       4   O     shell       Zr    core         4    2.1978
                             Zr    shell        4    2.1978
                             O     core         6    2.5378       12    3.5891
                             O     shell        6    2.5378       12    3.5891
--------------------------------------------------------------------------------



  Born effective charge tensors : 

-------------------------------------------------------------------------------
  Atom             x           y             z
-------------------------------------------------------------------------------
    1 Zr    x       3.6770      0.0000      0.0000
            y       0.0000      3.6770      0.0000
            z       0.0000      0.0000      3.6770
-------------------------------------------------------------------------------
    2 O     x      -1.8385      0.0000      0.0000
            y       0.0000     -1.8385     -0.0000
            z       0.0000     -0.0000     -1.8385
-------------------------------------------------------------------------------




  Elastic Constant Matrix: (Units=GPa)

-------------------------------------------------------------------------------
  Indices      1         2         3         4         5         6    
-------------------------------------------------------------------------------
       1    616.2933  119.6612  119.6612   -0.0000   -0.0000   -0.0000
       2    119.6612  616.2933  119.6612   -0.0000   -0.0000   -0.0000
       3    119.6612  119.6612  616.2933   -0.0000   -0.0000   -0.0000
       4     -0.0000   -0.0000   -0.0000  100.8598    0.0000   -0.0000
       5     -0.0000   -0.0000   -0.0000    0.0000  100.8598    0.0000
       6     -0.0000   -0.0000   -0.0000   -0.0000    0.0000  100.8598
-------------------------------------------------------------------------------


  Elastic Compliance Matrix: (Units=1/GPa)

-------------------------------------------------------------------------------
  Indices      1         2         3         4         5         6    
-------------------------------------------------------------------------------
       1    0.001732 -0.000282 -0.000282  0.000000  0.000000  0.000000
       2   -0.000282  0.001732 -0.000282 -0.000000  0.000000  0.000000
       3   -0.000282 -0.000282  0.001732  0.000000  0.000000  0.000000
       4    0.000000 -0.000000  0.000000  0.009915 -0.000000  0.000000
       5    0.000000  0.000000  0.000000 -0.000000  0.009915 -0.000000
       6    0.000000  0.000000  0.000000  0.000000 -0.000000  0.009915
-------------------------------------------------------------------------------

  Mechanical properties :

-------------------------------------------------------------------------------
  Convention :                    Reuss         Voigt         Hill
-------------------------------------------------------------------------------
  Bulk  Modulus (GPa)     =     285.20524     285.20524     285.20524
  Shear Modulus (GPa)     =     132.28031     159.84228     146.06129
-------------------------------------------------------------------------------
  Velocity S-wave (km/s)  =       4.59717       5.05346       4.83071
  Velocity P-wave (km/s)  =       8.58749       8.92280       8.75675
-------------------------------------------------------------------------------
  Compressibility (1/GPa) =    0.00350625
-------------------------------------------------------------------------------
  Stress axis :                     x             y             z
-------------------------------------------------------------------------------
  Youngs Moduli (GPa)     =     577.38110     577.38110     577.38110
-------------------------------------------------------------------------------
  Poissons Ratio (x)      =                     0.16259       0.16259
  Poissons Ratio (y)      =       0.16259                     0.16259
  Poissons Ratio (z)      =       0.16259       0.16259
-------------------------------------------------------------------------------


  Piezoelectric Strain Matrix: (Units=C/m**2)

-------------------------------------------------------------------------------
  Indices      1         2         3         4         5         6    
-------------------------------------------------------------------------------
       x    -0.00000   0.00000   0.00000   0.00000   0.00000   0.00000
       y    -0.00000  -0.00000  -0.00000   0.00000   0.00000   0.00000
       z    -0.00000  -0.00000  -0.00000   0.00000   0.00000   0.00000
-------------------------------------------------------------------------------


  Piezoelectric Stress Matrix: (Units=10**-11 C/N)

-------------------------------------------------------------------------------
  Indices      1         2         3         4         5         6    
-------------------------------------------------------------------------------
       x    -0.00000   0.00000   0.00000   0.00000   0.00000   0.00000
       y    -0.00000  -0.00000  -0.00000   0.00000   0.00000   0.00000
       z     0.00000   0.00000  -0.00000   0.00000   0.00000   0.00000
-------------------------------------------------------------------------------


  Static dielectric constant tensor : 

-------------------------------------------------------------------------------
              x         y         z
-------------------------------------------------------------------------------
       x    26.88485   0.00000   0.00000
       y     0.00000  26.88485   0.00000
       z     0.00000   0.00000  26.88485
--------------------------------------------------------------------------------

  High frequency dielectric constant tensor : 

-------------------------------------------------------------------------------
              x         y         z
-------------------------------------------------------------------------------
       x     2.63099   0.00000   0.00000
       y     0.00000   2.63099   0.00000
       z     0.00000   0.00000   2.63099
-------------------------------------------------------------------------------

  Static refractive indices : 

-------------------------------------------------------------------------------
    1 =    5.18506      2 =    5.18506      3 =    5.18506
-------------------------------------------------------------------------------

  High frequency refractive indices : 

-------------------------------------------------------------------------------
    1 =    1.62203      2 =    1.62203      3 =    1.62203
-------------------------------------------------------------------------------


  Time to end of optimisation =       0.0142 seconds

********************************************************************************
*  Defect calculation for configuration   1 :                                  *
********************************************************************************

  Total number of defects =      3

  Total charge on defect  =   2.00

  Defect centre is at   0.5400   0.2500   0.2500  Frac

  Region 1 radius =  12.0000      Number of ions =   1326

  Number of symmetry inequivalent region 1 ions  =    412

  Region 2 radius =  24.0000      Number of ions =   9306

  Number of symmetry inequivalent region 2a ions =   2550

  Region 2a mode = 4 : screened electrostatics due to region 1 
                       neglect correction to region 1 forces from 2a
                       region 2a displacements based on defects only

  Region 2a ions will only interact with defects in region 1

  Vacancies:

--------------------------------------------------------------------------------
    Specification type     Symbol/Number         x          y          z
--------------------------------------------------------------------------------
    Fractional                               0.250000   0.250000   0.250000
    Fractional                               0.750000   0.250000   0.250000
--------------------------------------------------------------------------------

  Interstitials:

--------------------------------------------------------------------------------
    Specification type     Symbol/Number         x          y          z
--------------------------------------------------------------------------------
    Atom/Fractional         O                0.540000   0.250000   0.250000
--------------------------------------------------------------------------------


  Symmetry reduced region 1 (Relative to defect centre) :

--------------------------------------------------------------------------------
   No.   Atomic       x            y             z       Radius  Multiplicity   
         Label      (Angs)       (Angs)        (Angs)    (Angs)     
--------------------------------------------------------------------------------
     1  O     c      0.0000       0.0000       0.0000    0.0000     1    Defect
     2  Zr    c     -0.2030 *    -1.2689 *     1.2689    0.0000     2          
     3  O     c      1.0659 *     2.5378 *     0.0000 *  0.0000     4          
     4  O     c     -1.4719 *    -0.0000 *     2.5378 *  0.0000     4          
     5  Zr    c      2.3348 *    -1.2689 *    -1.2689    0.0000     2          
     6  Zr    c     -2.7409 *     1.2689 *     1.2689    0.0000     2          
     7  O     c      3.6037 *     0.0000       0.0000    0.0000     1          
     8  O     c      1.0659 *     2.5378 *     2.5378    0.0000     2          
     9  O     c      1.0659 *     2.5378 *    -2.5378    0.0000     2          
    10  O     c     -1.4719 *     2.5378 *     2.5378    0.0000     2          
    11  O     c     -1.4719 *     2.5378 *    -2.5378    0.0000     2          
    12  O     c     -4.0098 *    -0.0000      -0.0000    0.0000     1          
    13  Zr    c     -0.2030 *    -3.8068 *    -1.2689 *  0.0000     4          
    14  O     c      3.6037 *     2.5378 *    -0.0000 *  0.0000     4          
    15  Zr    c      2.3348 *    -3.8068 *     1.2689 *  0.0000     4          
    16  O     c     -4.0098 *    -2.5378 *     0.0000 *  0.0000     4          
    17  Zr    c     -2.7409 *    -3.8068 *     1.2689 *  0.0000     4          
    18  O     c      3.6037 *     2.5378 *    -2.5378    0.0000     2          
    19  O     c      3.6037 *     2.5378 *     2.5378    0.0000     2          
    20  O     c      1.0659 *    -0.0000 *     5.0757 *  0.0000     4          
    21  Zr    c      4.8727 *     1.2689 *    -1.2689    0.0000     2          
    22  O     c     -1.4719 *    -5.0757 *     0.0000 *  0.0000     4          
    23  O     c     -4.0098 *     2.5378 *     2.5378    0.0000     2          
    24  O     c     -4.0098 *    -2.5378 *     2.5378    0.0000     2          
    25  Zr    c     -0.2030 *    -3.8068 *     3.8068    0.0000     2          
    26  Zr    c     -5.2787 *    -1.2689 *     1.2689    0.0000     2          
    27  O     c      1.0659 *    -5.0757 *     2.5378 *  0.0000     4          
    28  O     c      1.0659 *     5.0757 *     2.5378 *  0.0000     4          
    29  O     c     -1.4719 *     2.5378 *     5.0757 *  0.0000     4          
    30  O     c     -1.4719 *    -2.5378 *     5.0757 *  0.0000     4          
    31  Zr    c      2.3348 *     3.8068 *     3.8068    0.0000     2          
    32  Zr    c     -2.7409 *     3.8068 *     3.8068    0.0000     2          
    33  O     c      6.1416 *    -0.0000      -0.0000    0.0000     1          
    34  O     c      3.6037 *     5.0757 *     0.0000 *  0.0000     4          
    35  Zr    c      4.8727 *     1.2689 *     3.8068 *  0.0000     4          
    36  O     c     -4.0098 *    -0.0000 *     5.0757 *  0.0000     4          
    37  Zr    c     -0.2030 *     1.2689 *    -6.3446 *  0.0000     4          
    38  O     c     -6.5476 *     0.0000       0.0000    0.0000     1          
    39  Zr    c     -5.2787 *     3.8068 *     1.2689 *  0.0000     4          
    40  O     c      6.1416 *     2.5378 *     0.0000 *  0.0000     4          
    41  O     c      3.6037 *    -2.5378 *     5.0757 *  0.0000     4          
    42  O     c      3.6037 *     5.0757 *     2.5378 *  0.0000     4          
    43  Zr    c      2.3348 *     1.2689 *     6.3446 *  0.0000     4          
    44  O     c     -4.0098 *     5.0757 *     2.5378 *  0.0000     4          
    45  O     c     -4.0098 *     2.5378 *    -5.0757 *  0.0000     4          
    46  O     c     -6.5476 *    -0.0000 *     2.5378 *  0.0000     4          
    47  Zr    c     -2.7409 *     6.3446 *     1.2689 *  0.0000     4          
    48  O     c      6.1416 *     2.5378 *     2.5378    0.0000     2          
    49  O     c      6.1416 *     2.5378 *    -2.5378    0.0000     2          
    50  O     c      1.0659 *     5.0757 *     5.0757    0.0000     2          
    51  O     c      1.0659 *    -5.0757 *     5.0757    0.0000     2          
    52  Zr    c      4.8727 *    -3.8068 *     3.8068    0.0000     2          
    53  O     c     -1.4719 *    -5.0757 *     5.0757    0.0000     2          
    54  O     c     -1.4719 *     5.0757 *     5.0757    0.0000     2          
    55  Zr    c     -0.2030 *     3.8068 *     6.3446 *  0.0000     4          
    56  O     c     -6.5476 *     2.5378 *     2.5378    0.0000     2          
    57  O     c     -6.5476 *    -2.5378 *     2.5378    0.0000     2          
    58  Zr    c     -5.2787 *    -3.8068 *     3.8068    0.0000     2          
    59  Zr    c      7.4105 *    -1.2689 *    -1.2689    0.0000     2          
    60  O     c      1.0659 *     0.0000 *     7.6135 *  0.0000     4          
    61  O     c     -1.4719 *    -0.0000 *     7.6135 *  0.0000     4          
    62  Zr    c      2.3348 *    -6.3446 *     3.8068 *  0.0000     4          
    63  Zr    c     -2.7409 *    -6.3446 *     3.8068 *  0.0000     4          
    64  O     c      6.1416 *     5.0757 *    -0.0000 *  0.0000     4          
    65  Zr    c     -7.8166 *     1.2689 *     1.2689    0.0000     2          
    66  O     c      3.6037 *    -5.0757 *     5.0757    0.0000     2          
    67  O     c      3.6037 *     5.0757 *     5.0757    0.0000     2          
    68  O     c      1.0659 *     7.6135 *     2.5378 *  0.0000     4          
    69  O     c      1.0659 *    -2.5378 *     7.6135 *  0.0000     4          
    70  Zr    c      4.8727 *    -1.2689 *     6.3446 *  0.0000     4          
    71  O     c     -1.4719 *     2.5378 *     7.6135 *  0.0000     4          
    72  O     c     -1.4719 *    -7.6135 *     2.5378 *  0.0000     4          
    73  O     c     -4.0098 *     5.0757 *     5.0757    0.0000     2          
    74  O     c     -4.0098 *    -5.0757 *     5.0757    0.0000     2          
    75  O     c     -6.5476 *    -5.0757 *     0.0000 *  0.0000     4          
    76  Zr    c     -5.2787 *    -6.3446 *     1.2689 *  0.0000     4          
    77  O     c      6.1416 *    -2.5378 *     5.0757 *  0.0000     4          
    78  O     c      6.1416 *     5.0757 *     2.5378 *  0.0000     4          
    79  O     c      3.6037 *    -0.0000 *     7.6135 *  0.0000     4          
    80  Zr    c      7.4105 *     3.8068 *    -1.2689 *  0.0000     4          
    81  O     c     -4.0098 *     0.0000 *    -7.6135 *  0.0000     4          
    82  O     c     -6.5476 *    -2.5378 *     5.0757 *  0.0000     4          
    83  O     c     -6.5476 *     2.5378 *     5.0757 *  0.0000     4          
    84  O     c      8.6794 *     0.0000       0.0000    0.0000     1          
    85  Zr    c     -7.8166 *    -1.2689 *     3.8068 *  0.0000     4          
    86  O     c      3.6037 *     7.6135 *    -2.5378 *  0.0000     4          
    87  O     c      3.6037 *     7.6135 *     2.5378 *  0.0000     4          
    88  Zr    c      4.8727 *     6.3446 *     3.8068 *  0.0000     4          
    89  O     c     -4.0098 *     2.5378 *     7.6135 *  0.0000     4          
    90  O     c     -4.0098 *    -2.5378 *     7.6135 *  0.0000     4          
    91  Zr    c     -0.2030 *    -6.3446 *     6.3446    0.0000     2          
    92  Zr    c     -0.2030 *     1.2689 *     8.8824 *  0.0000     4          
    93  O     c      8.6794 *     2.5378 *    -0.0000 *  0.0000     4          
    94  O     c     -9.0855 *    -0.0000      -0.0000    0.0000     1          
    95  Zr    c     -5.2787 *    -6.3446 *    -3.8068 *  0.0000     4          
    96  Zr    c      7.4105 *     3.8068 *     3.8068    0.0000     2          
    97  O     c      1.0659 *     5.0757 *     7.6135 *  0.0000     4          
    98  O     c      1.0659 *    -7.6135 *     5.0757 *  0.0000     4          
    99  O     c     -1.4719 *     5.0757 *     7.6135 *  0.0000     4          
   100  O     c     -1.4719 *    -7.6135 *     5.0757 *  0.0000     4          
   101  Zr    c      2.3348 *     6.3446 *     6.3446    0.0000     2          
   102  Zr    c      2.3348 *    -1.2689 *     8.8824 *  0.0000     4          
   103  Zr    c     -2.7409 *     6.3446 *     6.3446    0.0000     2          
   104  Zr    c     -2.7409 *    -8.8824 *     1.2689 *  0.0000     4          
   105  O     c      8.6794 *     2.5378 *     2.5378    0.0000     2          
   106  O     c      8.6794 *     2.5378 *    -2.5378    0.0000     2          
   107  O     c     -9.0855 *    -2.5378 *     0.0000 *  0.0000     4          
   108  O     c      6.1416 *     5.0757 *     5.0757    0.0000     2          
   109  O     c      6.1416 *    -5.0757 *     5.0757    0.0000     2          
   110  Zr    c     -7.8166 *    -3.8068 *    -3.8068    0.0000     2          
   111  Zr    c     -0.2030 *    -8.8824 *     3.8068 *  0.0000     4          
   112  O     c     -6.5476 *    -5.0757 *    -5.0757    0.0000     2          
   113  O     c     -6.5476 *     5.0757 *    -5.0757    0.0000     2          
   114  O     c     -9.0855 *    -2.5378 *    -2.5378    0.0000     2          
   115  O     c     -9.0855 *    -2.5378 *     2.5378    0.0000     2          
   116  O     c      6.1416 *     7.6135 *     0.0000 *  0.0000     4          
   117  O     c      3.6037 *     7.6135 *     5.0757 *  0.0000     4          
   118  O     c      3.6037 *     7.6135 *    -5.0757 *  0.0000     4          
   119  Zr    c      7.4105 *     6.3446 *     1.2689 *  0.0000     4          
   120  Zr    c      2.3348 *     3.8068 *     8.8824 *  0.0000     4          
   121  O     c     -4.0098 *     7.6135 *    -5.0757 *  0.0000     4          
   122  O     c     -4.0098 *     5.0757 *     7.6135 *  0.0000     4          
   123  O     c     -6.5476 *    -0.0000 *     7.6135 *  0.0000     4          
   124  Zr    c     -2.7409 *     3.8068 *     8.8824 *  0.0000     4          
   125  O     c      8.6794 *     5.0757 *     0.0000 *  0.0000     4          
   126  O     c      6.1416 *     7.6135 *    -2.5378 *  0.0000     4          
   127  O     c      6.1416 *     7.6135 *     2.5378 *  0.0000     4          
   128  Zr    c      9.9483 *     1.2689 *    -1.2689    0.0000     2          
   129  Zr    c     -7.8166 *     1.2689 *     6.3446 *  0.0000     4          
   130  O     c      1.0659 *    -0.0000 *    10.1514 *  0.0000     4          
   131  Zr    c      4.8727 *    -6.3446 *     6.3446    0.0000     2          
   132  Zr    c      4.8727 *     8.8824 *     1.2689 *  0.0000     4          
   133  O     c     -1.4719 *    -0.0000 *    10.1514 *  0.0000     4          
   134  O     c     -6.5476 *    -7.6135 *    -2.5378 *  0.0000     4          
   135  O     c     -6.5476 *     2.5378 *    -7.6135 *  0.0000     4          
   136  O     c      8.6794 *     5.0757 *     2.5378 *  0.0000     4          
   137  O     c      8.6794 *     5.0757 *    -2.5378 *  0.0000     4          
   138  O     c     -9.0855 *    -0.0000 *     5.0757 *  0.0000     4          
   139  Zr    c     -5.2787 *    -6.3446 *     6.3446    0.0000     2          
   140  Zr    c     -5.2787 *    -8.8824 *    -1.2689 *  0.0000     4          
   141  Zr    c      7.4105 *    -3.8068 *     6.3446 *  0.0000     4          
   142  Zr    c    -10.3544 *    -1.2689 *     1.2689    0.0000     2          
   143  O     c      1.0659 *    -2.5378 *    10.1514 *  0.0000     4          
   144  O     c      1.0659 *     2.5378 *    10.1514 *  0.0000     4          
   145  O     c     -1.4719 *    -2.5378 *    10.1514 *  0.0000     4          
   146  O     c     -1.4719 *     2.5378 *    10.1514 *  0.0000     4          
   147  O     c     -9.0855 *    -2.5378 *    -5.0757 *  0.0000     4          
   148  O     c     -9.0855 *     2.5378 *    -5.0757 *  0.0000     4          
   149  Zr    c      9.9483 *     3.8068 *     1.2689 *  0.0000     4          
   150  Zr    c     -7.8166 *    -6.3446 *     3.8068 *  0.0000     4          
   151  O     c      3.6037 *     0.0000 *    10.1514 *  0.0000     4          
   152  O     c      1.0659 *     7.6135 *     7.6135    0.0000     2          
   153  O     c      1.0659 *    -7.6135 *     7.6135    0.0000     2          
   154  Zr    c      4.8727 *     8.8824 *    -3.8068 *  0.0000     4          
   155  O     c     -1.4719 *    -7.6135 *     7.6135    0.0000     2          
   156  O     c     -1.4719 *     7.6135 *     7.6135    0.0000     2          
   157  O     c     -4.0098 *    -0.0000 *    10.1514 *  0.0000     4          
   158  Zr    c     -0.2030 *     6.3446 *     8.8824 *  0.0000     4          
   159  Zr    c     -5.2787 *     3.8068 *    -8.8824 *  0.0000     4          
   160  O     c      6.1416 *     7.6135 *    -5.0757 *  0.0000     4          
   161  O     c      6.1416 *     7.6135 *     5.0757 *  0.0000     4          
   162  O     c      3.6037 *    -2.5378 *    10.1514 *  0.0000     4          
   163  O     c      3.6037 *     2.5378 *    10.1514 *  0.0000     4          
   164  Zr    c    -10.3544 *     1.2689 *     3.8068 *  0.0000     4          
   165  Zr    c      2.3348 *    -6.3446 *     8.8824 *  0.0000     4          
   166  O     c     -4.0098 *     2.5378 *   -10.1514 *  0.0000     4          
   167  O     c     -4.0098 *    -2.5378 *   -10.1514 *  0.0000     4          
   168  O     c     11.2173 *    -0.0000      -0.0000    0.0000     1          
   169  O     c     -6.5476 *     5.0757 *     7.6135 *  0.0000     4          
   170  O     c     -6.5476 *     7.6135 *    -5.0757 *  0.0000     4          
   171  Zr    c     -2.7409 *     6.3446 *    -8.8824 *  0.0000     4          
   172  O     c      8.6794 *     5.0757 *     5.0757    0.0000     2          
   173  O     c      8.6794 *     5.0757 *    -5.0757    0.0000     2          
   174  Zr    c      9.9483 *     3.8068 *    -3.8068    0.0000     2          
   175  O     c      3.6037 *    -7.6135 *     7.6135    0.0000     2          
   176  O     c      3.6037 *     7.6135 *     7.6135    0.0000     2          
   177  O     c      1.0659 *    -5.0757 *    10.1514 *  0.0000     4          
   178  O     c      1.0659 *     5.0757 *    10.1514 *  0.0000     4          
   179  O     c     -1.4719 *   -10.1514 *     5.0757 *  0.0000     4          
   180  O     c     -1.4719 *     5.0757 *    10.1514 *  0.0000     4          
   181  O     c     -4.0098 *     7.6135 *     7.6135    0.0000     2          
   182  O     c     -4.0098 *    -7.6135 *     7.6135    0.0000     2          
   183  Zr    c     -0.2030 *    -1.2689 *    11.4203 *  0.0000     4          
   184  O     c     11.2173 *     2.5378 *     0.0000 *  0.0000     4          
   185  O     c      8.6794 *     7.6135 *    -0.0000 *  0.0000     4          
   186  O     c     -9.0855 *     5.0757 *     5.0757    0.0000     2          
   187  O     c     -9.0855 *    -5.0757 *     5.0757    0.0000     2          
   188  O     c    -11.6233 *    -0.0000       0.0000    0.0000     1          
   189  Zr    c      7.4105 *     6.3446 *     6.3446    0.0000     2          
   190  Zr    c      7.4105 *    -1.2689 *     8.8824 *  0.0000     4          
   191  Zr    c    -10.3544 *    -3.8068 *     3.8068    0.0000     2          
   192  Zr    c      2.3348 *     1.2689 *    11.4203 *  0.0000     4          
   193  O     c     11.2173 *     2.5378 *     2.5378    0.0000     2          
   194  O     c     11.2173 *     2.5378 *    -2.5378    0.0000     2          
   195  Zr    c     -2.7409 *     1.2689 *    11.4203 *  0.0000     4          
   196  O     c      8.6794 *    -2.5378 *     7.6135 *  0.0000     4          
   197  O     c      8.6794 *     7.6135 *     2.5378 *  0.0000     4          
   198  O     c     -9.0855 *    -7.6135 *     0.0000 *  0.0000     4          
   199  O     c      6.1416 *    -0.0000 *    10.1514 *  0.0000     4          
   200  Zr    c      9.9483 *    -1.2689 *     6.3446 *  0.0000     4          
   201  O     c    -11.6233 *    -0.0000 *     2.5378 *  0.0000     4          
   202  Zr    c     -7.8166 *    -6.3446 *    -6.3446    0.0000     2          
   203  Zr    c     -7.8166 *     1.2689 *    -8.8824 *  0.0000     4          
   204  O     c      3.6037 *     5.0757 *    10.1514 *  0.0000     4          
   205  O     c      3.6037 *    -5.0757 *    10.1514 *  0.0000     4          
   206  Zr    c      4.8727 *     8.8824 *     6.3446 *  0.0000     4          
   207  O     s      0.0000       0.0000       0.0000    0.0000     1    Defect
   208  Zr    s     -0.2030 *    -1.2689 *     1.2689    0.0000     2          
   209  O     s      1.0659 *     2.5378 *     0.0000 *  0.0000     4          
   210  O     s     -1.4719 *    -0.0000 *     2.5378 *  0.0000     4          
   211  Zr    s      2.3348 *    -1.2689 *    -1.2689    0.0000     2          
   212  Zr    s     -2.7409 *     1.2689 *     1.2689    0.0000     2          
   213  O     s      3.6037 *     0.0000       0.0000    0.0000     1          
   214  O     s      1.0659 *     2.5378 *     2.5378    0.0000     2          
   215  O     s      1.0659 *     2.5378 *    -2.5378    0.0000     2          
   216  O     s     -1.4719 *     2.5378 *     2.5378    0.0000     2          
   217  O     s     -1.4719 *     2.5378 *    -2.5378    0.0000     2          
   218  O     s     -4.0098 *    -0.0000      -0.0000    0.0000     1          
   219  Zr    s     -0.2030 *    -3.8068 *    -1.2689 *  0.0000     4          
   220  O     s      3.6037 *     2.5378 *    -0.0000 *  0.0000     4          
   221  Zr    s      2.3348 *    -3.8068 *     1.2689 *  0.0000     4          
   222  O     s     -4.0098 *    -2.5378 *     0.0000 *  0.0000     4          
   223  Zr    s     -2.7409 *    -3.8068 *     1.2689 *  0.0000     4          
   224  O     s      3.6037 *     2.5378 *    -2.5378    0.0000     2          
   225  O     s      3.6037 *     2.5378 *     2.5378    0.0000     2          
   226  O     s      1.0659 *    -0.0000 *     5.0757 *  0.0000     4          
   227  Zr    s      4.8727 *     1.2689 *    -1.2689    0.0000     2          
   228  O     s     -1.4719 *    -5.0757 *     0.0000 *  0.0000     4          
   229  O     s     -4.0098 *     2.5378 *     2.5378    0.0000     2          
   230  O     s     -4.0098 *    -2.5378 *     2.5378    0.0000     2          
   231  Zr    s     -0.2030 *    -3.8068 *     3.8068    0.0000     2          
   232  Zr    s     -5.2787 *    -1.2689 *     1.2689    0.0000     2          
   233  O     s      1.0659 *    -5.0757 *     2.5378 *  0.0000     4          
   234  O     s      1.0659 *     5.0757 *     2.5378 *  0.0000     4          
   235  O     s     -1.4719 *     2.5378 *     5.0757 *  0.0000     4          
   236  O     s     -1.4719 *    -2.5378 *     5.0757 *  0.0000     4          
   237  Zr    s      2.3348 *     3.8068 *     3.8068    0.0000     2          
   238  Zr    s     -2.7409 *     3.8068 *     3.8068    0.0000     2          
   239  O     s      6.1416 *    -0.0000      -0.0000    0.0000     1          
   240  O     s      3.6037 *     5.0757 *     0.0000 *  0.0000     4          
   241  Zr    s      4.8727 *     1.2689 *     3.8068 *  0.0000     4          
   242  O     s     -4.0098 *    -0.0000 *     5.0757 *  0.0000     4          
   243  Zr    s     -0.2030 *     1.2689 *    -6.3446 *  0.0000     4          
   244  O     s     -6.5476 *     0.0000       0.0000    0.0000     1          
   245  Zr    s     -5.2787 *     3.8068 *     1.2689 *  0.0000     4          
   246  O     s      6.1416 *     2.5378 *     0.0000 *  0.0000     4          
   247  O     s      3.6037 *    -2.5378 *     5.0757 *  0.0000     4          
   248  O     s      3.6037 *     5.0757 *     2.5378 *  0.0000     4          
   249  Zr    s      2.3348 *     1.2689 *     6.3446 *  0.0000     4          
   250  O     s     -4.0098 *     5.0757 *     2.5378 *  0.0000     4          
   251  O     s     -4.0098 *     2.5378 *    -5.0757 *  0.0000     4          
   252  O     s     -6.5476 *    -0.0000 *     2.5378 *  0.0000     4          
   253  Zr    s     -2.7409 *     6.3446 *     1.2689 *  0.0000     4          
   254  O     s      6.1416 *     2.5378 *     2.5378    0.0000     2          
   255  O     s      6.1416 *     2.5378 *    -2.5378    0.0000     2          
   256  O     s      1.0659 *     5.0757 *     5.0757    0.0000     2          
   257  O     s      1.0659 *    -5.0757 *     5.0757    0.0000     2          
   258  Zr    s      4.8727 *    -3.8068 *     3.8068    0.0000     2          
   259  O     s     -1.4719 *    -5.0757 *     5.0757    0.0000     2          
   260  O     s     -1.4719 *     5.0757 *     5.0757    0.0000     2          
   261  Zr    s     -0.2030 *     3.8068 *     6.3446 *  0.0000     4          
   262  O     s     -6.5476 *     2.5378 *     2.5378    0.0000     2          
   263  O     s     -6.5476 *    -2.5378 *     2.5378    0.0000     2          
   264  Zr    s     -5.2787 *    -3.8068 *     3.8068    0.0000     2          
   265  Zr    s      7.4105 *    -1.2689 *    -1.2689    0.0000     2          
   266  O     s      1.0659 *     0.0000 *     7.6135 *  0.0000     4          
   267  O     s     -1.4719 *    -0.0000 *     7.6135 *  0.0000     4          
   268  Zr    s      2.3348 *    -6.3446 *     3.8068 *  0.0000     4          
   269  Zr    s     -2.7409 *    -6.3446 *     3.8068 *  0.0000     4          
   270  O     s      6.1416 *     5.0757 *    -0.0000 *  0.0000     4          
   271  Zr    s     -7.8166 *     1.2689 *     1.2689    0.0000     2          
   272  O     s      3.6037 *    -5.0757 *     5.0757    0.0000     2          
   273  O     s      3.6037 *     5.0757 *     5.0757    0.0000     2          
   274  O     s      1.0659 *     7.6135 *     2.5378 *  0.0000     4          
   275  O     s      1.0659 *    -2.5378 *     7.6135 *  0.0000     4          
   276  Zr    s      4.8727 *    -1.2689 *     6.3446 *  0.0000     4          
   277  O     s     -1.4719 *     2.5378 *     7.6135 *  0.0000     4          
   278  O     s     -1.4719 *    -7.6135 *     2.5378 *  0.0000     4          
   279  O     s     -4.0098 *     5.0757 *     5.0757    0.0000     2          
   280  O     s     -4.0098 *    -5.0757 *     5.0757    0.0000     2          
   281  O     s     -6.5476 *    -5.0757 *     0.0000 *  0.0000     4          
   282  Zr    s     -5.2787 *    -6.3446 *     1.2689 *  0.0000     4          
   283  O     s      6.1416 *    -2.5378 *     5.0757 *  0.0000     4          
   284  O     s      6.1416 *     5.0757 *     2.5378 *  0.0000     4          
   285  O     s      3.6037 *    -0.0000 *     7.6135 *  0.0000     4          
   286  Zr    s      7.4105 *     3.8068 *    -1.2689 *  0.0000     4          
   287  O     s     -4.0098 *     0.0000 *    -7.6135 *  0.0000     4          
   288  O     s     -6.5476 *    -2.5378 *     5.0757 *  0.0000     4          
   289  O     s     -6.5476 *     2.5378 *     5.0757 *  0.0000     4          
   290  O     s      8.6794 *     0.0000       0.0000    0.0000     1          
   291  Zr    s     -7.8166 *    -1.2689 *     3.8068 *  0.0000     4          
   292  O     s      3.6037 *     7.6135 *    -2.5378 *  0.0000     4          
   293  O     s      3.6037 *     7.6135 *     2.5378 *  0.0000     4          
   294  Zr    s      4.8727 *     6.3446 *     3.8068 *  0.0000     4          
   295  O     s     -4.0098 *     2.5378 *     7.6135 *  0.0000     4          
   296  O     s     -4.0098 *    -2.5378 *     7.6135 *  0.0000     4          
   297  Zr    s     -0.2030 *    -6.3446 *     6.3446    0.0000     2          
   298  Zr    s     -0.2030 *     1.2689 *     8.8824 *  0.0000     4          
   299  O     s      8.6794 *     2.5378 *    -0.0000 *  0.0000     4          
   300  O     s     -9.0855 *    -0.0000      -0.0000    0.0000     1          
   301  Zr    s     -5.2787 *    -6.3446 *    -3.8068 *  0.0000     4          
   302  Zr    s      7.4105 *     3.8068 *     3.8068    0.0000     2          
   303  O     s      1.0659 *     5.0757 *     7.6135 *  0.0000     4          
   304  O     s      1.0659 *    -7.6135 *     5.0757 *  0.0000     4          
   305  O     s     -1.4719 *     5.0757 *     7.6135 *  0.0000     4          
   306  O     s     -1.4719 *    -7.6135 *     5.0757 *  0.0000     4          
   307  Zr    s      2.3348 *     6.3446 *     6.3446    0.0000     2          
   308  Zr    s      2.3348 *    -1.2689 *     8.8824 *  0.0000     4          
   309  Zr    s     -2.7409 *     6.3446 *     6.3446    0.0000     2          
   310  Zr    s     -2.7409 *    -8.8824 *     1.2689 *  0.0000     4          
   311  O     s      8.6794 *     2.5378 *     2.5378    0.0000     2          
   312  O     s      8.6794 *     2.5378 *    -2.5378    0.0000     2          
   313  O     s     -9.0855 *    -2.5378 *     0.0000 *  0.0000     4          
   314  O     s      6.1416 *     5.0757 *     5.0757    0.0000     2          
   315  O     s      6.1416 *    -5.0757 *     5.0757    0.0000     2          
   316  Zr    s     -7.8166 *    -3.8068 *    -3.8068    0.0000     2          
   317  Zr    s     -0.2030 *    -8.8824 *     3.8068 *  0.0000     4          
   318  O     s     -6.5476 *    -5.0757 *    -5.0757    0.0000     2          
   319  O     s     -6.5476 *     5.0757 *    -5.0757    0.0000     2          
   320  O     s     -9.0855 *    -2.5378 *    -2.5378    0.0000     2          
   321  O     s     -9.0855 *    -2.5378 *     2.5378    0.0000     2          
   322  O     s      6.1416 *     7.6135 *     0.0000 *  0.0000     4          
   323  O     s      3.6037 *     7.6135 *     5.0757 *  0.0000     4          
   324  O     s      3.6037 *     7.6135 *    -5.0757 *  0.0000     4          
   325  Zr    s      7.4105 *     6.3446 *     1.2689 *  0.0000     4          
   326  Zr    s      2.3348 *     3.8068 *     8.8824 *  0.0000     4          
   327  O     s     -4.0098 *     7.6135 *    -5.0757 *  0.0000     4          
   328  O     s     -4.0098 *     5.0757 *     7.6135 *  0.0000     4          
   329  O     s     -6.5476 *    -0.0000 *     7.6135 *  0.0000     4          
   330  Zr    s     -2.7409 *     3.8068 *     8.8824 *  0.0000     4          
   331  O     s      8.6794 *     5.0757 *     0.0000 *  0.0000     4          
   332  O     s      6.1416 *     7.6135 *    -2.5378 *  0.0000     4          
   333  O     s      6.1416 *     7.6135 *     2.5378 *  0.0000     4          
   334  Zr    s      9.9483 *     1.2689 *    -1.2689    0.0000     2          
   335  Zr    s     -7.8166 *     1.2689 *     6.3446 *  0.0000     4          
   336  O     s      1.0659 *    -0.0000 *    10.1514 *  0.0000     4          
   337  Zr    s      4.8727 *    -6.3446 *     6.3446    0.0000     2          
   338  Zr    s      4.8727 *     8.8824 *     1.2689 *  0.0000     4          
   339  O     s     -1.4719 *    -0.0000 *    10.1514 *  0.0000     4          
   340  O     s     -6.5476 *    -7.6135 *    -2.5378 *  0.0000     4          
   341  O     s     -6.5476 *     2.5378 *    -7.6135 *  0.0000     4          
   342  O     s      8.6794 *     5.0757 *     2.5378 *  0.0000     4          
   343  O     s      8.6794 *     5.0757 *    -2.5378 *  0.0000     4          
   344  O     s     -9.0855 *    -0.0000 *     5.0757 *  0.0000     4          
   345  Zr    s     -5.2787 *    -6.3446 *     6.3446    0.0000     2          
   346  Zr    s     -5.2787 *    -8.8824 *    -1.2689 *  0.0000     4          
   347  Zr    s      7.4105 *    -3.8068 *     6.3446 *  0.0000     4          
   348  Zr    s    -10.3544 *    -1.2689 *     1.2689    0.0000     2          
   349  O     s      1.0659 *    -2.5378 *    10.1514 *  0.0000     4          
   350  O     s      1.0659 *     2.5378 *    10.1514 *  0.0000     4          
   351  O     s     -1.4719 *    -2.5378 *    10.1514 *  0.0000     4          
   352  O     s     -1.4719 *     2.5378 *    10.1514 *  0.0000     4          
   353  O     s     -9.0855 *    -2.5378 *    -5.0757 *  0.0000     4          
   354  O     s     -9.0855 *     2.5378 *    -5.0757 *  0.0000     4          
   355  Zr    s      9.9483 *     3.8068 *     1.2689 *  0.0000     4          
   356  Zr    s     -7.8166 *    -6.3446 *     3.8068 *  0.0000     4          
   357  O     s      3.6037 *     0.0000 *    10.1514 *  0.0000     4          
   358  O     s      1.0659 *     7.6135 *     7.6135    0.0000     2          
   359  O     s      1.0659 *    -7.6135 *     7.6135    0.0000     2          
   360  Zr    s      4.8727 *     8.8824 *    -3.8068 *  0.0000     4          
   361  O     s     -1.4719 *    -7.6135 *     7.6135    0.0000     2          
   362  O     s     -1.4719 *     7.6135 *     7.6135    0.0000     2          
   363  O     s     -4.0098 *    -0.0000 *    10.1514 *  0.0000     4          
   364  Zr    s     -0.2030 *     6.3446 *     8.8824 *  0.0000     4          
   365  Zr    s     -5.2787 *     3.8068 *    -8.8824 *  0.0000     4          
   366  O     s      6.1416 *     7.6135 *    -5.0757 *  0.0000     4          
   367  O     s      6.1416 *     7.6135 *     5.0757 *  0.0000     4          
   368  O     s      3.6037 *    -2.5378 *    10.1514 *  0.0000     4          
   369  O     s      3.6037 *     2.5378 *    10.1514 *  0.0000     4          
   370  Zr    s    -10.3544 *     1.2689 *     3.8068 *  0.0000     4          
   371  Zr    s      2.3348 *    -6.3446 *     8.8824 *  0.0000     4          
   372  O     s     -4.0098 *     2.5378 *   -10.1514 *  0.0000     4          
   373  O     s     -4.0098 *    -2.5378 *   -10.1514 *  0.0000     4          
   374  O     s     11.2173 *    -0.0000      -0.0000    0.0000     1          
   375  O     s     -6.5476 *     5.0757 *     7.6135 *  0.0000     4          
   376  O     s     -6.5476 *     7.6135 *    -5.0757 *  0.0000     4          
   377  Zr    s     -2.7409 *     6.3446 *    -8.8824 *  0.0000     4          
   378  O     s      8.6794 *     5.0757 *     5.0757    0.0000     2          
   379  O     s      8.6794 *     5.0757 *    -5.0757    0.0000     2          
   380  Zr    s      9.9483 *     3.8068 *    -3.8068    0.0000     2          
   381  O     s      3.6037 *    -7.6135 *     7.6135    0.0000     2          
   382  O     s      3.6037 *     7.6135 *     7.6135    0.0000     2          
   383  O     s      1.0659 *    -5.0757 *    10.1514 *  0.0000     4          
   384  O     s      1.0659 *     5.0757 *    10.1514 *  0.0000     4          
   385  O     s     -1.4719 *   -10.1514 *     5.0757 *  0.0000     4          
   386  O     s     -1.4719 *     5.0757 *    10.1514 *  0.0000     4          
   387  O     s     -4.0098 *     7.6135 *     7.6135    0.0000     2          
   388  O     s     -4.0098 *    -7.6135 *     7.6135    0.0000     2          
   389  Zr    s     -0.2030 *    -1.2689 *    11.4203 *  0.0000     4          
   390  O     s     11.2173 *     2.5378 *     0.0000 *  0.0000     4          
   391  O     s      8.6794 *     7.6135 *    -0.0000 *  0.0000     4          
   392  O     s     -9.0855 *     5.0757 *     5.0757    0.0000     2          
   393  O     s     -9.0855 *    -5.0757 *     5.0757    0.0000     2          
   394  O     s    -11.6233 *    -0.0000       0.0000    0.0000     1          
   395  Zr    s      7.4105 *     6.3446 *     6.3446    0.0000     2          
   396  Zr    s      7.4105 *    -1.2689 *     8.8824 *  0.0000     4          
   397  Zr    s    -10.3544 *    -3.8068 *     3.8068    0.0000     2          
   398  Zr    s      2.3348 *     1.2689 *    11.4203 *  0.0000     4          
   399  O     s     11.2173 *     2.5378 *     2.5378    0.0000     2          
   400  O     s     11.2173 *     2.5378 *    -2.5378    0.0000     2          
   401  Zr    s     -2.7409 *     1.2689 *    11.4203 *  0.0000     4          
   402  O     s      8.6794 *    -2.5378 *     7.6135 *  0.0000     4          
   403  O     s      8.6794 *     7.6135 *     2.5378 *  0.0000     4          
   404  O     s     -9.0855 *    -7.6135 *     0.0000 *  0.0000     4          
   405  O     s      6.1416 *    -0.0000 *    10.1514 *  0.0000     4          
   406  Zr    s      9.9483 *    -1.2689 *     6.3446 *  0.0000     4          
   407  O     s    -11.6233 *    -0.0000 *     2.5378 *  0.0000     4          
   408  Zr    s     -7.8166 *    -6.3446 *    -6.3446    0.0000     2          
   409  Zr    s     -7.8166 *     1.2689 *    -8.8824 *  0.0000     4          
   410  O     s      3.6037 *     5.0757 *    10.1514 *  0.0000     4          
   411  O     s      3.6037 *    -5.0757 *    10.1514 *  0.0000     4          
   412  Zr    s      4.8727 *     8.8824 *     6.3446 *  0.0000     4          
--------------------------------------------------------------------------------


  Constraints on symmetry reduced coordinates :

--------------------------------------------------------------------------------
  Constraint no.      Unconstrained     Constrained    Coefficient    
                         Variable         Variable
--------------------------------------------------------------------------------
           1                 2 y             2 z        -1.00000
           2                 5 y             5 z         1.00000
           3                 6 y             6 z         1.00000
           4                 8 y             8 z         1.00000
           5                 9 y             9 z        -1.00000
           6                10 y            10 z         1.00000
           7                11 y            11 z        -1.00000
           8                18 y            18 z        -1.00000
           9                19 y            19 z         1.00000
          10                21 y            21 z        -1.00000
          11                23 y            23 z         1.00000
          12                24 y            24 z        -1.00000
          13                25 y            25 z        -1.00000
          14                26 y            26 z        -1.00000
          15                31 y            31 z         1.00000
          16                32 y            32 z         1.00000
          17                48 y            48 z         1.00000
          18                49 y            49 z        -1.00000
          19                50 y            50 z         1.00000
          20                51 y            51 z        -1.00000
          21                52 y            52 z        -1.00000
          22                53 y            53 z        -1.00000
          23                54 y            54 z         1.00000
          24                56 y            56 z         1.00000
          25                57 y            57 z        -1.00000
          26                58 y            58 z        -1.00000
          27                59 y            59 z         1.00000
          28                65 y            65 z         1.00000
          29                66 y            66 z        -1.00000
          30                67 y            67 z         1.00000
          31                73 y            73 z         1.00000
          32                74 y            74 z        -1.00000
          33                91 y            91 z        -1.00000
          34                96 y            96 z         1.00000
          35               101 y           101 z         1.00000
          36               103 y           103 z         1.00000
          37               105 y           105 z         1.00000
          38               106 y           106 z        -1.00000
          39               108 y           108 z         1.00000
          40               109 y           109 z        -1.00000
          41               110 y           110 z         1.00000
          42               112 y           112 z         1.00000
          43               113 y           113 z        -1.00000
          44               114 y           114 z         1.00000
          45               115 y           115 z        -1.00000
          46               128 y           128 z        -1.00000
          47               131 y           131 z        -1.00000
          48               139 y           139 z        -1.00000
          49               142 y           142 z        -1.00000
          50               152 y           152 z         1.00000
          51               153 y           153 z        -1.00000
          52               155 y           155 z        -1.00000
          53               156 y           156 z         1.00000
          54               172 y           172 z         1.00000
          55               173 y           173 z        -1.00000
          56               174 y           174 z        -1.00000
          57               175 y           175 z        -1.00000
          58               176 y           176 z         1.00000
          59               181 y           181 z         1.00000
          60               182 y           182 z        -1.00000
          61               186 y           186 z         1.00000
          62               187 y           187 z        -1.00000
          63               189 y           189 z         1.00000
          64               191 y           191 z        -1.00000
          65               193 y           193 z         1.00000
          66               194 y           194 z        -1.00000
          67               202 y           202 z         1.00000
          68               208 y           208 z        -1.00000
          69               211 y           211 z         1.00000
          70               212 y           212 z         1.00000
          71               214 y           214 z         1.00000
          72               215 y           215 z        -1.00000
          73               216 y           216 z         1.00000
          74               217 y           217 z        -1.00000
          75               224 y           224 z        -1.00000
          76               225 y           225 z         1.00000
          77               227 y           227 z        -1.00000
          78               229 y           229 z         1.00000
          79               230 y           230 z        -1.00000
          80               231 y           231 z        -1.00000
          81               232 y           232 z        -1.00000
          82               237 y           237 z         1.00000
          83               238 y           238 z         1.00000
          84               254 y           254 z         1.00000
          85               255 y           255 z        -1.00000
          86               256 y           256 z         1.00000
          87               257 y           257 z        -1.00000
          88               258 y           258 z        -1.00000
          89               259 y           259 z        -1.00000
          90               260 y           260 z         1.00000
          91               262 y           262 z         1.00000
          92               263 y           263 z        -1.00000
          93               264 y           264 z        -1.00000
          94               265 y           265 z         1.00000
          95               271 y           271 z         1.00000
          96               272 y           272 z        -1.00000
          97               273 y           273 z         1.00000
          98               279 y           279 z         1.00000
          99               280 y           280 z        -1.00000
         100               297 y           297 z        -1.00000
         101               302 y           302 z         1.00000
         102               307 y           307 z         1.00000
         103               309 y           309 z         1.00000
         104               311 y           311 z         1.00000
         105               312 y           312 z        -1.00000
         106               314 y           314 z         1.00000
         107               315 y           315 z        -1.00000
         108               316 y           316 z         1.00000
         109               318 y           318 z         1.00000
         110               319 y           319 z        -1.00000
         111               320 y           320 z         1.00000
         112               321 y           321 z        -1.00000
         113               334 y           334 z        -1.00000
         114               337 y           337 z        -1.00000
         115               345 y           345 z        -1.00000
         116               348 y           348 z        -1.00000
         117               358 y           358 z         1.00000
         118               359 y           359 z        -1.00000
         119               361 y           361 z        -1.00000
         120               362 y           362 z         1.00000
         121               378 y           378 z         1.00000
         122               379 y           379 z        -1.00000
         123               380 y           380 z        -1.00000
         124               381 y           381 z        -1.00000
         125               382 y           382 z         1.00000
         126               387 y           387 z         1.00000
         127               388 y           388 z        -1.00000
         128               392 y           392 z         1.00000
         129               393 y           393 z        -1.00000
         130               395 y           395 z         1.00000
         131               397 y           397 z        -1.00000
         132               399 y           399 z         1.00000
         133               400 y           400 z        -1.00000
         134               408 y           408 z         1.00000
--------------------------------------------------------------------------------


  Components of defect energy : 

--------------------------------------------------------------------------------
  Region 1 - region 1                   =     40.07469519 eV
  Region 1 - region 2a (unrelaxed)      =     -8.97538126 eV
  Region 1 - 2a (relaxed - correction)  =     -2.31838074 eV
  Region 1 (Total)                      =     28.78093320 eV
  Region 2a                             =      1.15921649 eV
  Region 2b                             =     -1.15516929 eV
--------------------------------------------------------------------------------
  Total defect energy                   =     28.78498040 eV
--------------------------------------------------------------------------------

  Largest displacement in region 2 =   0.0051 Angstroms


  Number of variables =     1064

  Maximum number of calculations  =        1000
  Maximum Hessian update interval =          10
  Maximum step size               =   1.0000000
  Maximum parameter tolerance     =   0.0000100
  Maximum function  tolerance     =   0.0000100
  Maximum gradient  tolerance     =   0.0010000

  Symmetry adapted optimisation

  Symmetry to be used for second derivatives

  Newton-Raphson optimiser to be used

  BFGS hessian update to be used

  Lower half triangular hessian to be used

  Start of defect optimisation :

  Cycle:      0 Defect Energy:  28.784980  Gnorm:     0.083891  CPU:    4.812
  ** Hessian calculated **
  Cycle:      1 Defect Energy:  21.002165  Gnorm:     0.032144  CPU:   14.617
  Cycle:      2 Defect Energy:  16.967028  Gnorm:     0.016785  CPU:   23.132
  Cycle:      3 Defect Energy:  16.481269  Gnorm:     0.012906  CPU:   28.864
  Cycle:      4 Defect Energy:  15.906334  Gnorm:     0.008295  CPU:   37.396
  Cycle:      5 Defect Energy:  15.536848  Gnorm:     0.006828  CPU:   44.530
  Cycle:      6 Defect Energy:  15.390116  Gnorm:     0.007083  CPU:   51.655
  Cycle:      7 Defect Energy:  15.256237  Gnorm:     0.005091  CPU:   58.785
  Cycle:      8 Defect Energy:  15.135914  Gnorm:     0.004210  CPU:   65.915
  Cycle:      9 Defect Energy:  15.050243  Gnorm:     0.004013  CPU:   73.030
  Cycle:     10 Defect Energy:  14.961941  Gnorm:     0.003376  CPU:   80.160
  ** Hessian calculated **
  Cycle:     11 Defect Energy:  14.917403  Gnorm:     0.003156  CPU:   87.343
  Cycle:     12 Defect Energy:  14.856630  Gnorm:     0.002828  CPU:   88.859
  Cycle:     13 Defect Energy:  14.779345  Gnorm:     0.002352  CPU:   90.374
  Cycle:     14 Defect Energy:  14.692509  Gnorm:     0.001696  CPU:   91.909
  Cycle:     15 Defect Energy:  14.650832  Gnorm:     0.001261  CPU:   93.443
  Cycle:     16 Defect Energy:  14.630975  Gnorm:     0.000935  CPU:   94.964
  Cycle:     17 Defect Energy:  14.621379  Gnorm:     0.000698  CPU:   96.482
  Cycle:     18 Defect Energy:  14.616642  Gnorm:     0.000514  CPU:   97.995
  Cycle:     19 Defect Energy:  14.614348  Gnorm:     0.000382  CPU:   99.506
  Cycle:     20 Defect Energy:  14.613239  Gnorm:     0.000276  CPU:  101.026
  ** Hessian calculated **
  Cycle:     21 Defect Energy:  14.612660  Gnorm:     0.000195  CPU:  108.217
  Cycle:     22 Defect Energy:  14.612382  Gnorm:     0.000140  CPU:  109.729
  Cycle:     23 Defect Energy:  14.612250  Gnorm:     0.000099  CPU:  111.247
  Cycle:     24 Defect Energy:  14.612188  Gnorm:     0.000070  CPU:  112.762
  Cycle:     25 Defect Energy:  14.612159  Gnorm:     0.000049  CPU:  114.289
  Cycle:     26 Defect Energy:  14.612147  Gnorm:     0.000035  CPU:  115.805


  **** Optimisation achieved ****


  Final defect energy  =       14.61214175
  Final defect Gnorm   =        0.00002429

  Components of defect energy : 

--------------------------------------------------------------------------------
  Region 1 - region 1                   =     32.99060153 eV
  Region 1 - region 2a (unrelaxed)      =    -16.19360295 eV
  Region 1 - 2a (relaxed - correction)  =     -2.05956932 eV
  Region 1 (Total)                      =     14.73742926 eV
  Region 2a                             =      1.02971297 eV
  Region 2b                             =     -1.15500048 eV
--------------------------------------------------------------------------------
  Total defect energy                   =     14.61214175 eV
--------------------------------------------------------------------------------

  Largest displacement in region 2 =   0.0051 Angstroms

  Final coordinates of region 1 :

--------------------------------------------------------------------------------
   No.  Atomic        x           y           z          Radius      Charge
        Label       (Angs)      (Angs)      (Angs)       (Angs)       (e) 
--------------------------------------------------------------------------------
     1  O     c     2.740869    1.268921    1.268921    0.000000    0.077000
     2  Zr    c     2.561380   -0.039513    2.577355    0.000000    2.650000
     3  Zr    c     2.561380    2.577355   -0.039513    0.000000    2.650000
     4  O     c     3.881811    3.737091    1.226181    0.000000    0.077000
     5  O     c     3.881811    1.226181    3.737091    0.000000    0.077000
     6  O     c     3.881811    1.311661   -1.199249    0.000000    0.077000
     7  O     c     3.881811   -1.199249    1.311661    0.000000    0.077000
     8  O     c     1.257308    1.262350    3.697501    0.000000    0.077000
     9  O     c     1.257308    3.697501    1.262350    0.000000    0.077000
    10  O     c     1.257308   -1.159659    1.275492    0.000000    0.077000
    11  O     c     1.257308    1.275492   -1.159659    0.000000    0.077000
    12  Zr    c     5.123007   -0.043508   -0.043508    0.000000    2.650000
    13  Zr    c     5.123007    2.581349    2.581349    0.000000    2.650000
    14  Zr    c    -0.039312    2.580216    2.580216    0.000000    2.650000
    15  Zr    c    -0.039312   -0.042374   -0.042374    0.000000    2.650000
    16  O     c     5.704741    1.268921    1.268921    0.000000    0.077000
    17  O     c     3.778404    3.800698    3.800698    0.000000    0.077000
    18  O     c     3.778404   -1.262856   -1.262856    0.000000    0.077000
    19  O     c     3.786697    3.852073   -1.314231    0.000000    0.077000
    20  O     c     3.786697   -1.314231    3.852073    0.000000    0.077000
    21  O     c     1.261358    3.833940    3.833940    0.000000    0.077000
    22  O     c     1.261358   -1.296098   -1.296098    0.000000    0.077000
    23  O     c     1.253603    3.839809   -1.301967    0.000000    0.077000
    24  O     c     1.253603   -1.301967    3.839809    0.000000    0.077000
    25  O     c    -0.375447    1.268921    1.268921    0.000000    0.077000
    26  Zr    c     2.539099   -2.559689   -0.027819    0.000000    2.650000
    27  Zr    c     2.539099   -0.027819   -2.559689    0.000000    2.650000
    28  Zr    c     2.539099    2.565661    5.097531    0.000000    2.650000
    29  Zr    c     2.539099    5.097531    2.565661    0.000000    2.650000
    30  O     c     6.450899    3.771857    1.320615    0.000000    0.077000
    31  O     c     6.450899    1.320615    3.771857    0.000000    0.077000
    32  O     c     6.450899    1.217226   -1.234015    0.000000    0.077000
    33  O     c     6.450899   -1.234015    1.217226    0.000000    0.077000
    34  Zr    c     5.084279   -2.556410    2.555079    0.000000    2.650000
    35  Zr    c     5.084279    2.555079   -2.556410    0.000000    2.650000
    36  Zr    c     5.084279   -0.017238    5.094252    0.000000    2.650000
    37  Zr    c     5.084279    5.094252   -0.017238    0.000000    2.650000
    38  O     c    -1.351143   -1.211994    1.223337    0.000000    0.077000
    39  O     c    -1.351143    1.223337   -1.211994    0.000000    0.077000
    40  O     c    -1.351143    1.314505    3.749836    0.000000    0.077000
    41  O     c    -1.351143    3.749836    1.314505    0.000000    0.077000
    42  Zr    c    -0.005343   -2.558602    2.562943    0.000000    2.650000
    43  Zr    c    -0.005343    2.562943   -2.558602    0.000000    2.650000
    44  Zr    c    -0.005343   -0.025101    5.096443    0.000000    2.650000
    45  Zr    c    -0.005343    5.096443   -0.025101    0.000000    2.650000
    46  O     c     6.313537    3.782961   -1.245119    0.000000    0.077000
    47  O     c     6.313537   -1.245119    3.782961    0.000000    0.077000
    48  O     c     6.303668    3.839651    3.839651    0.000000    0.077000
    49  O     c     6.303668   -1.301809   -1.301809    0.000000    0.077000
    50  O     c     3.786574    1.276655    6.296167    0.000000    0.077000
    51  O     c     3.786574    6.296167    1.276655    0.000000    0.077000
    52  O     c     3.786574   -3.758326    1.261187    0.000000    0.077000
    53  O     c     3.786574    1.261187   -3.758326    0.000000    0.077000
    54  Zr    c     7.642363    2.571918   -0.034076    0.000000    2.650000
    55  Zr    c     7.642363   -0.034076    2.571918    0.000000    2.650000
    56  O     c     1.259043   -3.729294    1.267153    0.000000    0.077000
    57  O     c     1.259043    1.267153   -3.729294    0.000000    0.077000
    58  O     c     1.259043    1.270689    6.267136    0.000000    0.077000
    59  O     c     1.259043    6.267136    1.270689    0.000000    0.077000
    60  O     c    -1.268049    3.844528    3.844528    0.000000    0.077000
    61  O     c    -1.268049   -1.306687   -1.306687    0.000000    0.077000
    62  O     c    -1.267249   -1.257502    3.795344    0.000000    0.077000
    63  O     c    -1.267249    3.795344   -1.257502    0.000000    0.077000
    64  Zr    c     2.540056   -2.560677    5.098519    0.000000    2.650000
    65  Zr    c     2.540056    5.098519   -2.560677    0.000000    2.650000
    66  Zr    c    -2.583141   -0.044345    2.582186    0.000000    2.650000
    67  Zr    c    -2.583141    2.582186   -0.044345    0.000000    2.650000
    68  O     c     3.816787   -3.832770    3.792821    0.000000    0.077000
    69  O     c     3.816787    3.792821   -3.832770    0.000000    0.077000
    70  O     c     3.816787   -1.254980    6.370612    0.000000    0.077000
    71  O     c     3.816787    6.370612   -1.254980    0.000000    0.077000
    72  O     c     3.809081    6.331613    3.803754    0.000000    0.077000
    73  O     c     3.809081    3.803754    6.331613    0.000000    0.077000
    74  O     c     3.809081   -1.265913   -3.793771    0.000000    0.077000
    75  O     c     3.809081   -3.793771   -1.265913    0.000000    0.077000
    76  O     c     1.281796    3.795263    6.355849    0.000000    0.077000
    77  O     c     1.281796    6.355849    3.795263    0.000000    0.077000
    78  O     c     1.281796   -3.818007   -1.257422    0.000000    0.077000
    79  O     c     1.281796   -1.257422   -3.818007    0.000000    0.077000
    80  O     c     1.270604   -1.256325    6.359716    0.000000    0.077000
    81  O     c     1.270604    6.359716   -1.256325    0.000000    0.077000
    82  O     c     1.270604   -3.821874    3.794167    0.000000    0.077000
    83  O     c     1.270604    3.794167   -3.821874    0.000000    0.077000
[...]
    332 y          8.882446      8.886983     0.004537    Cartesian    0.05
    332 z         -1.268921     -1.267499     0.001422    Cartesian   -0.11
    333 x          8.882446      8.875140    -0.007306    Cartesian   -0.08
    333 y          8.882446      8.878516    -0.003930    Cartesian   -0.04
    333 z          3.806763      3.808202     0.001439    Cartesian    0.04
    334 x         12.689209     12.689040    -0.000169    Cartesian   -0.00
    334 y          2.537842      2.548247     0.010405    Cartesian    0.41
    334 z          0.000000     -0.010405    -0.010405    Cartesian *******
    335 x         -5.075684     -5.081244    -0.005560    Cartesian    0.11
    335 y          2.537842      2.538740     0.000899    Cartesian    0.04
    335 z          7.613525      7.619932     0.006407    Cartesian    0.08
    336 x          3.806763      3.803319    -0.003444    Cartesian   -0.09
    336 y          1.268921      1.269244     0.000323    Cartesian    0.03
    336 z         11.420288     11.406968    -0.013321    Cartesian   -0.12
    337 x          7.613525      7.614700     0.001175    Cartesian    0.02
    337 y         -5.075684     -5.080495    -0.004811    Cartesian    0.09
    337 z          7.613525      7.618337     0.004811    Cartesian    0.06
    338 x          7.613525      7.613716     0.000191    Cartesian    0.00
    338 y         10.151367     10.154225     0.002857    Cartesian    0.03
    338 z          2.537842      2.537894     0.000052    Cartesian    0.00
    339 x          1.268921      1.266509    -0.002411    Cartesian   -0.19
    339 y          1.268921      1.268617    -0.000304    Cartesian   -0.02
    339 z         11.420288     11.398892    -0.021396    Cartesian   -0.19
    340 x         -3.806763     -3.810639    -0.003877    Cartesian    0.10
    340 y         -6.344605     -6.337461     0.007143    Cartesian   -0.11
    340 z         -1.268921     -1.270259    -0.001338    Cartesian    0.11
    341 x         -3.806763     -3.807556    -0.000793    Cartesian    0.02
    341 y          3.806763      3.805906    -0.000857    Cartesian   -0.02
    341 z         -6.344605     -6.349479    -0.004875    Cartesian    0.08
    342 x         11.420288     11.423715     0.003427    Cartesian    0.03
    342 y          6.344605      6.345013     0.000408    Cartesian    0.01
    342 z          3.806763      3.810150     0.003388    Cartesian    0.09
    343 x         11.420288     11.427676     0.007387    Cartesian    0.06
    343 y          6.344605      6.339491    -0.005114    Cartesian   -0.08
    343 z         -1.268921     -1.271035    -0.002114    Cartesian    0.17
    344 x         -6.344605     -6.342039     0.002565    Cartesian   -0.04
    344 y          1.268921      1.262411    -0.006510    Cartesian   -0.51
    344 z          6.344605      6.340378    -0.004226    Cartesian   -0.07
    345 x         -2.537842     -2.537355     0.000487    Cartesian   -0.02
    345 y         -5.075684     -5.082687    -0.007003    Cartesian    0.14
    345 z          7.613525      7.620529     0.007003    Cartesian    0.09
    346 x         -2.537842     -2.537287     0.000555    Cartesian   -0.02
    346 y         -7.613525     -7.617666    -0.004140    Cartesian    0.05
    346 z          0.000000     -0.000094    -0.000094    Cartesian    0.00
    347 x         10.151367     10.156343     0.004976    Cartesian    0.05
    347 y         -2.537842     -2.537644     0.000198    Cartesian   -0.01
    347 z          7.613525      7.618335     0.004809    Cartesian    0.06
    348 x         -7.613525     -7.615146    -0.001620    Cartesian    0.02
    348 y         -0.000000     -0.015272    -0.015272    Cartesian *******
    348 z          2.537842      2.553114     0.015272    Cartesian    0.60
    349 x          3.806763      3.807497     0.000734    Cartesian    0.02
    349 y         -1.268921     -1.267442     0.001479    Cartesian   -0.12
    349 z         11.420288     11.426360     0.006072    Cartesian    0.05
    350 x          3.806763      3.803832    -0.002931    Cartesian   -0.08
    350 y          3.806763      3.805478    -0.001285    Cartesian   -0.03
    350 z         11.420288     11.414331    -0.005957    Cartesian   -0.05
    351 x          1.268921      1.267950    -0.000971    Cartesian   -0.08
    351 y         -1.268921     -1.267162     0.001759    Cartesian   -0.14
    351 z         11.420288     11.423229     0.002941    Cartesian    0.03
    352 x          1.268921      1.271188     0.002267    Cartesian    0.18
    352 y          3.806763      3.804879    -0.001884    Cartesian   -0.05
    352 z         11.420288     11.422628     0.002340    Cartesian    0.02
    353 x         -6.344605     -6.340838     0.003767    Cartesian   -0.06
    353 y         -1.268921     -1.269818    -0.000897    Cartesian    0.07
    353 z         -3.806763     -3.810297    -0.003534    Cartesian    0.09
    354 x         -6.344605     -6.345907    -0.001302    Cartesian    0.02
    354 y          3.806763      3.805594    -0.001169    Cartesian   -0.03
    354 z         -3.806763     -3.802470     0.004293    Cartesian   -0.11
    355 x         12.689209     12.697220     0.008011    Cartesian    0.06
    355 y          5.075684      5.075598    -0.000086    Cartesian   -0.00
    355 z          2.537842      2.535227    -0.002615    Cartesian   -0.10
    356 x         -5.075684     -5.079340    -0.003656    Cartesian    0.07
    356 y         -5.075684     -5.083479    -0.007796    Cartesian    0.15
    356 z          5.075684      5.077713     0.002029    Cartesian    0.04
    357 x          6.344605      6.342116    -0.002489    Cartesian   -0.04
    357 y          1.268921      1.267428    -0.001493    Cartesian   -0.12
    357 z         11.420288     11.414870    -0.005418    Cartesian   -0.05
    358 x          3.806763      3.808191     0.001428    Cartesian    0.04
    358 y          8.882446      8.880682    -0.001764    Cartesian   -0.02
    358 z          8.882446      8.880682    -0.001764    Cartesian   -0.02
    359 x          3.806763      3.801549    -0.005213    Cartesian   -0.14
    359 y         -6.344605     -6.342884     0.001721    Cartesian   -0.03
    359 z          8.882446      8.880726    -0.001721    Cartesian   -0.02
    360 x          7.613525      7.617120     0.003594    Cartesian    0.05
    360 y         10.151367     10.155695     0.004328    Cartesian    0.04
    360 z         -2.537842     -2.539561    -0.001719    Cartesian    0.07
    361 x          1.268921      1.271032     0.002111    Cartesian    0.17
    361 y         -6.344605     -6.343291     0.001314    Cartesian   -0.02
    361 z          8.882446      8.881133    -0.001314    Cartesian   -0.01
    362 x          1.268921      1.266330    -0.002591    Cartesian   -0.20
    362 y          8.882446      8.880598    -0.001848    Cartesian   -0.02
    362 z          8.882446      8.880598    -0.001848    Cartesian   -0.02
    363 x         -1.268921     -1.271372    -0.002451    Cartesian    0.19
    363 y          1.268921      1.265970    -0.002951    Cartesian   -0.23
    363 z         11.420288     11.409139    -0.011149    Cartesian   -0.10
    364 x          2.537842      2.538731     0.000889    Cartesian    0.04
    364 y          7.613525      7.616798     0.003273    Cartesian    0.04
    364 z         10.151367     10.158109     0.006742    Cartesian    0.07
    365 x         -2.537842     -2.540892    -0.003050    Cartesian    0.12
    365 y          5.075684      5.077533     0.001850    Cartesian    0.04
    365 z         -7.613525     -7.619425    -0.005900    Cartesian    0.08
    366 x          8.882446      8.881563    -0.000884    Cartesian   -0.01
    366 y          8.882446      8.879228    -0.003218    Cartesian   -0.04
    366 z         -3.806763     -3.805738     0.001025    Cartesian   -0.03
    367 x          8.882446      8.882370    -0.000076    Cartesian   -0.00
    367 y          8.882446      8.883048     0.000602    Cartesian    0.01
    367 z          6.344605      6.342104    -0.002501    Cartesian   -0.04
    368 x          6.344605      6.343331    -0.001273    Cartesian   -0.02
    368 y         -1.268921     -1.266393     0.002528    Cartesian   -0.20
    368 z         11.420288     11.410946    -0.009342    Cartesian   -0.08
    369 x          6.344605      6.343333    -0.001272    Cartesian   -0.02
    369 y          3.806763      3.805766    -0.000997    Cartesian   -0.03
    369 z         11.420288     11.424318     0.004030    Cartesian    0.04
    370 x         -7.613525     -7.626666    -0.013141    Cartesian    0.17
    370 y          2.537842      2.536156    -0.001685    Cartesian   -0.07
    370 z          5.075684      5.077346     0.001662    Cartesian    0.03
    371 x          5.075684      5.077393     0.001710    Cartesian    0.03
    371 y         -5.075684     -5.079105    -0.003421    Cartesian    0.07
    371 z         10.151367     10.157567     0.006199    Cartesian    0.06
    372 x         -1.268921     -1.266640     0.002281    Cartesian   -0.18
    372 y          3.806763      3.805503    -0.001259    Cartesian   -0.03
    372 z         -8.882446     -8.872455     0.009991    Cartesian   -0.11
    373 x         -1.268921     -1.266989     0.001932    Cartesian   -0.15
    373 y         -1.268921     -1.265793     0.003128    Cartesian   -0.25
    373 z         -8.882446     -8.883498    -0.001051    Cartesian    0.01
    374 x         13.958130     13.874936    -0.083194    Cartesian   -0.60
    374 y          1.268921      1.268921     0.000000    Cartesian    0.00
    374 z          1.268921      1.268921     0.000000    Cartesian    0.00
    375 x         -3.806763     -3.802287     0.004476    Cartesian   -0.12
    375 y          6.344605      6.342096    -0.002508    Cartesian   -0.04
    375 z          8.882446      8.879027    -0.003419    Cartesian   -0.04
    376 x         -3.806763     -3.806569     0.000194    Cartesian   -0.01
    376 y          8.882446      8.877953    -0.004493    Cartesian   -0.05
    376 z         -3.806763     -3.805643     0.001119    Cartesian   -0.03
    377 x          0.000000     -0.001166    -0.001166    Cartesian *******
    377 y          7.613525      7.617577     0.004052    Cartesian    0.05
    377 z         -7.613525     -7.621588    -0.008063    Cartesian    0.11
    378 x         11.420288     11.411830    -0.008458    Cartesian   -0.07
    378 y          6.344605      6.341202    -0.003403    Cartesian   -0.05
    378 z          6.344605      6.341202    -0.003403    Cartesian   -0.05
    379 x         11.420288     11.418339    -0.001950    Cartesian   -0.02
    379 y          6.344605      6.344338    -0.000266    Cartesian   -0.00
    379 z         -3.806763     -3.806497     0.000266    Cartesian   -0.01
    380 x         12.689209     12.694043     0.004834    Cartesian    0.04
    380 y          5.075684      5.082764     0.007081    Cartesian    0.14
    380 z         -2.537842     -2.544922    -0.007081    Cartesian    0.28
    381 x          6.344605      6.343703    -0.000902    Cartesian   -0.01
    381 y         -6.344605     -6.341696     0.002909    Cartesian   -0.05
    381 z          8.882446      8.879538    -0.002909    Cartesian   -0.03
    382 x          6.344605      6.340374    -0.004231    Cartesian   -0.07
    382 y          8.882446      8.880991    -0.001455    Cartesian   -0.02
    382 z          8.882446      8.880991    -0.001455    Cartesian   -0.02
    383 x          3.806763      3.804747    -0.002016    Cartesian   -0.05
    383 y         -3.806763     -3.804821     0.001942    Cartesian   -0.05
    383 z         11.420288     11.413021    -0.007267    Cartesian   -0.06
    384 x          3.806763      3.806368    -0.000394    Cartesian   -0.01
    384 y          6.344605      6.343948    -0.000657    Cartesian   -0.01
    384 z         11.420288     11.416708    -0.003580    Cartesian   -0.03
    385 x          1.268921      1.268406    -0.000515    Cartesian   -0.04
    385 y         -8.882446     -8.874877     0.007569    Cartesian   -0.09
    385 z          6.344605      6.343228    -0.001377    Cartesian   -0.02
    386 x          1.268921      1.270064     0.001143    Cartesian    0.09
    386 y          6.344605      6.341893    -0.002711    Cartesian   -0.04
    386 z         11.420288     11.411714    -0.008574    Cartesian   -0.08
    387 x         -1.268921     -1.263981     0.004940    Cartesian   -0.39
    387 y          8.882446      8.874609    -0.007837    Cartesian   -0.09
    387 z          8.882446      8.874609    -0.007837    Cartesian   -0.09
    388 x         -1.268921     -1.270757    -0.001836    Cartesian    0.14
    388 y         -6.344605     -6.341259     0.003346    Cartesian   -0.05
    388 z          8.882446      8.879100    -0.003346    Cartesian   -0.04
    389 x          2.537842      2.538900     0.001058    Cartesian    0.04
    389 y         -0.000000     -0.004048    -0.004048    Cartesian *******
    389 z         12.689209     12.697034     0.007825    Cartesian    0.06
    390 x         13.958130     13.985736     0.027606    Cartesian    0.20
    390 y          3.806763      3.800711    -0.006052    Cartesian   -0.16
    390 z          1.268921      1.264457    -0.004463    Cartesian   -0.35
    391 x         11.420288     11.421348     0.001060    Cartesian    0.01
    391 y          8.882446      8.880239    -0.002207    Cartesian   -0.02
    391 z          1.268921      1.270450     0.001529    Cartesian    0.12
    392 x         -6.344605     -6.338833     0.005771    Cartesian   -0.09
    392 y          6.344605      6.338198    -0.006407    Cartesian   -0.10
    392 z          6.344605      6.338198    -0.006407    Cartesian   -0.10
    393 x         -6.344605     -6.348856    -0.004251    Cartesian    0.07
    393 y         -3.806763     -3.805038     0.001725    Cartesian   -0.05
    393 z          6.344605      6.342880    -0.001725    Cartesian   -0.03
    394 x         -8.882446     -8.780801     0.101646    Cartesian   -1.14
    394 y          1.268921      1.268921     0.000000    Cartesian    0.00
    394 z          1.268921      1.268921     0.000000    Cartesian    0.00
    395 x         10.151367     10.155903     0.004536    Cartesian    0.04
    395 y          7.613525      7.620321     0.006795    Cartesian    0.09
    395 z          7.613525      7.620321     0.006795    Cartesian    0.09
    396 x         10.151367     10.155703     0.004336    Cartesian    0.04
    396 y          0.000000     -0.000581    -0.000581    Cartesian    0.00
    396 z         10.151367     10.157857     0.006489    Cartesian    0.06
    397 x         -7.613525     -7.624673    -0.011147    Cartesian    0.15
    397 y         -2.537842     -2.548086    -0.010244    Cartesian    0.40
    397 z          5.075684      5.085928     0.010244    Cartesian    0.20
    398 x          5.075684      5.078623     0.002939    Cartesian    0.06
    398 y          2.537842      2.540384     0.002542    Cartesian    0.10
    398 z         12.689209     12.698247     0.009038    Cartesian    0.07
    399 x         13.958130     13.936068    -0.022062    Cartesian   -0.16
    399 y          3.806763      3.805338    -0.001425    Cartesian   -0.04
    399 z          3.806763      3.805338    -0.001425    Cartesian   -0.04
    400 x         13.958130     13.931402    -0.026728    Cartesian   -0.19
    400 y          3.806763      3.806652    -0.000111    Cartesian   -0.00
    400 z         -1.268921     -1.268810     0.000111    Cartesian   -0.01
    401 x          0.000000     -0.001918    -0.001918    Cartesian    0.00
    401 y          2.537842      2.541482     0.003640    Cartesian    0.14
    401 z         12.689209     12.698762     0.009553    Cartesian    0.08
    402 x         11.420288     11.416909    -0.003379    Cartesian   -0.03
    402 y         -1.268921     -1.269071    -0.000150    Cartesian    0.01
    402 z          8.882446      8.878365    -0.004081    Cartesian   -0.05
    403 x         11.420288     11.409146    -0.011142    Cartesian   -0.10
    403 y          8.882446      8.876149    -0.006297    Cartesian   -0.07
    403 z          3.806763      3.801947    -0.004816    Cartesian   -0.13
    404 x         -6.344605     -6.336166     0.008439    Cartesian   -0.13
    404 y         -6.344605     -6.336767     0.007837    Cartesian   -0.12
    404 z          1.268921      1.265531    -0.003390    Cartesian   -0.27
    405 x          8.882446      8.878230    -0.004216    Cartesian   -0.05
    405 y          1.268921      1.268995     0.000074    Cartesian    0.01
    405 z         11.420288     11.410396    -0.009892    Cartesian   -0.09
    406 x         12.689209     12.698898     0.009689    Cartesian    0.08
    406 y          0.000000     -0.001864    -0.001864    Cartesian    0.00
    406 z          7.613525      7.619550     0.006025    Cartesian    0.08
    407 x         -8.882446     -8.903478    -0.021031    Cartesian    0.24
    407 y          1.268921      1.263712    -0.005209    Cartesian   -0.41
    407 z          3.806763      3.798460    -0.008302    Cartesian   -0.22
    408 x         -5.075684     -5.081589    -0.005905    Cartesian    0.12
    408 y         -5.075684     -5.084034    -0.008350    Cartesian    0.16
    408 z         -5.075684     -5.084034    -0.008350    Cartesian    0.16
    409 x         -5.075684     -5.080786    -0.005102    Cartesian    0.10
    409 y          2.537842      2.540090     0.002248    Cartesian    0.09
    409 z         -7.613525     -7.623539    -0.010014    Cartesian    0.13
    410 x          6.344605      6.342304    -0.002301    Cartesian   -0.04
    410 y          6.344605      6.341731    -0.002874    Cartesian   -0.05
    410 z         11.420288     11.410602    -0.009686    Cartesian   -0.08
    411 x          6.344605      6.341700    -0.002904    Cartesian   -0.05
    411 y         -3.806763     -3.804134     0.002629    Cartesian   -0.07
    411 z         11.420288     11.414126    -0.006162    Cartesian   -0.05
    412 x          7.613525      7.617957     0.004432    Cartesian    0.06
    412 y         10.151367     10.159356     0.007988    Cartesian    0.08
    412 z          7.613525      7.618576     0.005050    Cartesian    0.07
--------------------------------------------------------------------------------


  Time to end of optimisation  =      117.3250 seconds


  Peak dynamic memory used =     401.95 MB 


  Timing analysis for GULP :

--------------------------------------------------------------------------------
  Task / Subroutine                                          Time (Seconds)
--------------------------------------------------------------------------------
  Calculation of reciprocal space energy and derivatives          0.0002
  Calculation of reciprocal space energy using symmetry           0.0002
  Calculation of real space energy and derivatives                0.0020
  Calculation of real space energy using symmetry                 0.0070
  Calculation for region 1 energy and derivatives (2-b)          30.5008
  Calculation for region 2a energy                               74.2512
  Calculation for region 2b energy                                0.0108
  Calculation and manipulation of Hessian matrix                 11.2825
  Calculation of matrix inversion                                 0.8370
  Symmetry generation of equivalent positions                     0.0015
--------------------------------------------------------------------------------
  Total CPU time                                                117.3250
--------------------------------------------------------------------------------


  Dump file written as ZrO2.grs


  Job Finished at 12:43.34 14th October    2020                               

