********************************************************************************
*                       GENERAL UTILITY LATTICE PROGRAM                        *
*                                 Julian Gale                                  *
*                       Curtin Institute for Computation                       *
*                    School of Molecular and Life Sciences                     *
*                    Curtin University, Western Australia                      *
********************************************************************************
* Version = 5.2.0 * Last modified =  10th September 2020                       *
********************************************************************************
* Zirconia doped with calcium                                                  *
*  optimise     - perform optimisation run                                     *
*  conp         - constant pressure calculation                                *
*  property     - calculate properties for final geometry                      *
*  defect       - perform defect calculation after bulk run                    *
*  distance     - calculate distances                                          *
*  compare      - compare initial and final structures                         *
********************************************************************************
* Zirconia doped with calcium                                                  *
********************************************************************************


  Job Started  at 12:43.34 14th October    2020                               

  Number of CPUs =     1


  Total number of configurations input =      1

********************************************************************************
*  Input for Configuration =   1 : ZrO2                                        *
********************************************************************************

  Formula = ZrO2                                                        

  Number of irreducible atoms/shells =       4


  Total number atoms/shells =       6

  Dimensionality = 3               :  Bulk   


  Symmetry :

  Crystal family                   :  Cubic       
  Crystal class  (Groth - 1921)    :  Cubic Hexakisoctahedral              

  Space group (centrosymmetric)    :  F M 3 M         

  Patterson group                  :  F m -3 m 

  Cartesian lattice vectors (Angstroms) :

        0.000000    2.535000    2.535000
        2.535000    0.000000    2.535000
        2.535000    2.535000    0.000000

  Primitive cell parameters :            Full cell parameters :

  a =   3.5850    alpha =  60.0000       a =   5.0700    alpha =  90.0000
  b =   3.5850    beta  =  60.0000       b =   5.0700    beta  =  90.0000
  c =   3.5850    gamma =  60.0000       c =   5.0700    gamma =  90.0000

  Initial volumes (Angstroms**3):

  Primitive cell =          32.580961    Full cell =         130.323843

  Temperature of configuration =   0.00     K 

  Pressure of configuration =         0.000 GPa 

  Fractional coordinates of asymmetric unit :

--------------------------------------------------------------------------------
   No.  Atomic       x           y          z         Charge      Occupancy
        Label      (Frac)      (Frac)     (Frac)        (e)         (Frac)  
--------------------------------------------------------------------------------
      1 Zr    c    0.000000    0.000000    0.000000     2.65000    1.000000    
      2 O     c    0.250000    0.250000    0.250000     0.07700    1.000000    
      3 Zr    s    0.000000    0.000000    0.000000     1.35000    1.000000    
      4 O     s    0.250000    0.250000    0.250000    -2.07700    1.000000    
--------------------------------------------------------------------------------


  Constraints : 

--------------------------------------------------------------------------------
  Constraint no.      Unconstrained     Constrained    Coefficient    Offset
                         Variable         Variable
--------------------------------------------------------------------------------
           1              Strain 1        Strain 2       1.00000      0.0000
           2              Strain 1        Strain 3       1.00000      0.0000
--------------------------------------------------------------------------------


  Distance calculation :


  Cutoff for distances  =      4.000000 Angstroms

--------------------------------------------------------------------------------
  Asymmetric unit site  Full lattice sites    No.  Distance      No.  Distance
      No.   At.No.            At.No.                (Angs)             (Angs) 
--------------------------------------------------------------------------------
       1   Zr    core        Zr    core        12    3.5850
                             Zr    shell       12    3.5850
                             O     core         8    2.1954
                             O     shell        8    2.1954
--------------------------------------------------------------------------------
       2   O     core        Zr    core         4    2.1954
                             Zr    shell        4    2.1954
                             O     core         6    2.5350       12    3.5850
                             O     shell        6    2.5350       12    3.5850
--------------------------------------------------------------------------------
       3   Zr    shell       Zr    core        12    3.5850
                             Zr    shell       12    3.5850
                             O     core         8    2.1954
                             O     shell        8    2.1954
--------------------------------------------------------------------------------
       4   O     shell       Zr    core         4    2.1954
                             Zr    shell        4    2.1954
                             O     core         6    2.5350       12    3.5850
                             O     shell        6    2.5350       12    3.5850
--------------------------------------------------------------------------------



********************************************************************************
*  General input information                                                   *
********************************************************************************

  Species output for all configurations : 

--------------------------------------------------------------------------------
  Species    Type    Atomic    Atomic    Charge       Radii (Angs)     Library
                     Number     Mass       (e)     Cova   Ionic  VDW   Symbol
--------------------------------------------------------------------------------
    Zr       Core       40      91.22   2.650000   1.560  0.000  2.330          
    Zr       Shell      40       0.00   1.350000   1.560  0.000  2.330          
    O        Core        8      16.00   0.077000   0.730  0.000  1.360          
    O        Shell       8       0.00  -2.077000   0.730  0.000  1.360          
--------------------------------------------------------------------------------


  Lattice summation method               =    Ewald          (3-D)
                                         =    Parry          (2-D)
                                         =    Saunders et al (1-D)
  Accuracy factor for lattice sums       =   12.000


  Analytic derivatives to be used

  Time limit = Infinity

  Maximum range for interatomic potentials =    100000.000000 Angstroms

  General interatomic potentials :

--------------------------------------------------------------------------------
Atom  Types   Potential      Parameter       Value         Units   Cutoffs(Ang)
  1     2                                                            Min /  Max 
--------------------------------------------------------------------------------
O    s Zr   s Buckingham    Buckingham A     985.86900    eV        0.000 12.000
                            Buckingham rho  0.37600000    Ang       
                            Buckingham C     0.0000000    eV*Ang^6  
--------------------------------------------------------------------------------
O    s O    s Buckingham    Buckingham A     22764.300    eV        0.000 12.000
                            Buckingham rho  0.14900000    Ang       
                            Buckingham C     27.890000    eV*Ang^6  
--------------------------------------------------------------------------------
Zr   c Zr   s Spring (c-s)  Spring k 2       169.61700    eV*Ang^-2 0.000  0.800
                            Spring k 4       0.0000000    eV*Ang^-4 
--------------------------------------------------------------------------------
O    c O    s Spring (c-s)  Spring k 2       27.290000    eV*Ang^-2 0.000  0.800
                            Spring k 4       0.0000000    eV*Ang^-4 
--------------------------------------------------------------------------------

********************************************************************************
*  Output for configuration   1 : ZrO2                                         *
********************************************************************************


  Components of energy : 

--------------------------------------------------------------------------------
  Interatomic potentials     =          22.43756329 eV    
  Monopole - monopole (real) =         -15.67991073 eV    
  Monopole - monopole (recip)=        -116.52038266 eV    
  Monopole - monopole (total)=        -132.20029339 eV    
--------------------------------------------------------------------------------
  Total lattice energy : 
    Primitive unit cell      =        -109.76273010 eV    
    Non-primitive unit cell  =        -439.05092039 eV    
--------------------------------------------------------------------------------
  Total lattice energy (in kJmol-1): 
    Primitive unit cell      =          -10590.4256 kJ/(mole unit cells)
    Non-primitive unit cell  =          -42361.7023 kJ/(mole unit cells)
--------------------------------------------------------------------------------


  Number of variables =        1

  Maximum number of calculations  =          1000
  Maximum Hessian update interval =            10
  Maximum step size               =   1.000000000
  Maximum parameter tolerance     =   0.000010000
  Maximum function  tolerance     =   0.000010000
  Maximum gradient  tolerance     =   0.001000000
  Maximum gradient  component     =   0.010000000

  Symmetry constrained optimisation

  Symmetry used for second derivatives

  Cell parameters to be optimised using strains

  Newton-Raphson optimiser to be used

  BFGS hessian update to be used

  Lower half triangular hessian to be used

  Start of bulk optimisation :

  Cycle:      0 Energy:      -109.762730  Gnorm:      0.588311  CPU:    0.006
  ** Hessian calculated **
  Cycle:      1 Energy:      -109.763059  Gnorm:      0.000316  CPU:    0.009


  **** Optimisation achieved ****


  Final energy =    -109.76305939 eV
  Final Gnorm  =       0.00000099

  Components of energy : 

--------------------------------------------------------------------------------
  Interatomic potentials     =          22.28919976 eV    
  Monopole - monopole (real) =         -15.66235280 eV    
  Monopole - monopole (recip)=        -116.38990634 eV    
  Monopole - monopole (total)=        -132.05225914 eV    
--------------------------------------------------------------------------------
  Total lattice energy : 
    Primitive unit cell      =        -109.76305939 eV    
    Non-primitive unit cell  =        -439.05223754 eV    
--------------------------------------------------------------------------------
  Total lattice energy (in kJmol-1): 
    Primitive unit cell      =          -10590.4573 kJ/(mole unit cells)
    Non-primitive unit cell  =          -42361.8294 kJ/(mole unit cells)
--------------------------------------------------------------------------------

  Final asymmetric unit coordinates :

--------------------------------------------------------------------------------
   No.  Atomic        x           y           z         Radius
        Label       (Frac)      (Frac)      (Frac)       (Angs) 
--------------------------------------------------------------------------------
     1  Zr    c     0.000000    0.000000    0.000000    0.000000
     2  O     c     0.250000    0.250000    0.250000    0.000000
     3  Zr    s     0.000000    0.000000    0.000000    0.000000
     4  O     s     0.250000    0.250000    0.250000    0.000000
--------------------------------------------------------------------------------

  Final Cartesian lattice vectors (Angstroms) :

        0.000000    2.537842    2.537842
        2.537842    0.000000    2.537842
        2.537842    2.537842    0.000000


  Final cell parameters and derivatives :

--------------------------------------------------------------------------------
       a            3.589050 Angstrom     dE/de1(xx)    -0.000001 eV/strain
       b            3.589050 Angstrom     dE/de2(yy)     0.000000 eV/strain
       c            3.589050 Angstrom     dE/de3(zz)     0.000000 eV/strain
       alpha       60.000000 Degrees      dE/de4(yz)     0.000000 eV/strain
       beta        60.000000 Degrees      dE/de5(xz)     0.000000 eV/strain
       gamma       60.000000 Degrees      dE/de6(xy)     0.000000 eV/strain
--------------------------------------------------------------------------------

  Primitive cell volume =            32.690656 Angs**3

  Density of cell =      6.259124 g/cm**3

  Non-primitive lattice parameters :

  a    =     5.075684  b   =     5.075684  c    =     5.075684
  alpha=    90.000000  beta=    90.000000  gamma=    90.000000

  Non-primitive cell volume =           130.762624 Angs**3


  Final internal derivatives :

--------------------------------------------------------------------------------
   No.  Atomic          a             b             c           Radius
        Label          (eV)          (eV)          (eV)        (eV/Angs)
--------------------------------------------------------------------------------
      1 Zr    c       0.000000      0.000000      0.000000      0.000000
      2 O     c       0.000000      0.000000      0.000000      0.000000
      3 Zr    s       0.000000      0.000000      0.000000      0.000000
      4 O     s       0.000000      0.000000      0.000000      0.000000
--------------------------------------------------------------------------------
  Maximum abs         0.000000      0.000000      0.000000      0.000000
--------------------------------------------------------------------------------

  Comparison of initial and final structures : 

--------------------------------------------------------------------------------
  Parameter   Initial value   Final value   Difference    Units      Percent
--------------------------------------------------------------------------------
    Volume       130.323843    130.762624     0.438781    Angs**3      0.34
    a              5.070000      5.075684     0.005684    Angstroms    0.11
    b              5.070000      5.075684     0.005684    Angstroms    0.11
    c              5.070000      5.075684     0.005684    Angstroms    0.11
    alpha         90.000000     90.000000     0.000000    Degrees      0.00
    beta          90.000000     90.000000     0.000000    Degrees      0.00
    gamma         90.000000     90.000000     0.000000    Degrees      0.00
      1 x          0.000000      0.000000     0.000000    Fractional   0.00
      1 y          0.000000      0.000000     0.000000    Fractional   0.00
      1 z          0.000000      0.000000     0.000000    Fractional   0.00
      2 x          0.250000      0.250000     0.000000    Fractional   0.00
      2 y          0.250000      0.250000     0.000000    Fractional   0.00
      2 z          0.250000      0.250000     0.000000    Fractional   0.00
      3 x          0.000000      0.000000     0.000000    Fractional   0.00
      3 y          0.000000      0.000000     0.000000    Fractional   0.00
      3 z          0.000000      0.000000     0.000000    Fractional   0.00
      4 x          0.250000      0.250000     0.000000    Fractional   0.00
      4 y          0.250000      0.250000     0.000000    Fractional   0.00
      4 z          0.250000      0.250000     0.000000    Fractional   0.00
--------------------------------------------------------------------------------


  Distance calculation :


  Cutoff for distances  =      4.000000 Angstroms

--------------------------------------------------------------------------------
  Asymmetric unit site  Full lattice sites    No.  Distance      No.  Distance
      No.   At.No.            At.No.                (Angs)             (Angs) 
--------------------------------------------------------------------------------
       1   Zr    core        Zr    core        12    3.5891
                             Zr    shell       12    3.5891
                             O     core         8    2.1978
                             O     shell        8    2.1978
--------------------------------------------------------------------------------
       2   O     core        Zr    core         4    2.1978
                             Zr    shell        4    2.1978
                             O     core         6    2.5378       12    3.5891
                             O     shell        6    2.5378       12    3.5891
--------------------------------------------------------------------------------
       3   Zr    shell       Zr    core        12    3.5891
                             Zr    shell       12    3.5891
                             O     core         8    2.1978
                             O     shell        8    2.1978
--------------------------------------------------------------------------------
       4   O     shell       Zr    core         4    2.1978
                             Zr    shell        4    2.1978
                             O     core         6    2.5378       12    3.5891
                             O     shell        6    2.5378       12    3.5891
--------------------------------------------------------------------------------



  Born effective charge tensors : 

-------------------------------------------------------------------------------
  Atom             x           y             z
-------------------------------------------------------------------------------
    1 Zr    x       3.6770      0.0000      0.0000
            y       0.0000      3.6770      0.0000
            z       0.0000      0.0000      3.6770
-------------------------------------------------------------------------------
    2 O     x      -1.8385      0.0000      0.0000
            y       0.0000     -1.8385     -0.0000
            z       0.0000     -0.0000     -1.8385
-------------------------------------------------------------------------------




  Elastic Constant Matrix: (Units=GPa)

-------------------------------------------------------------------------------
  Indices      1         2         3         4         5         6    
-------------------------------------------------------------------------------
       1    616.2933  119.6612  119.6612   -0.0000   -0.0000   -0.0000
       2    119.6612  616.2933  119.6612   -0.0000   -0.0000   -0.0000
       3    119.6612  119.6612  616.2933   -0.0000   -0.0000   -0.0000
       4     -0.0000   -0.0000   -0.0000  100.8598    0.0000   -0.0000
       5     -0.0000   -0.0000   -0.0000    0.0000  100.8598    0.0000
       6     -0.0000   -0.0000   -0.0000   -0.0000    0.0000  100.8598
-------------------------------------------------------------------------------


  Elastic Compliance Matrix: (Units=1/GPa)

-------------------------------------------------------------------------------
  Indices      1         2         3         4         5         6    
-------------------------------------------------------------------------------
       1    0.001732 -0.000282 -0.000282  0.000000  0.000000  0.000000
       2   -0.000282  0.001732 -0.000282 -0.000000  0.000000  0.000000
       3   -0.000282 -0.000282  0.001732  0.000000  0.000000  0.000000
       4    0.000000 -0.000000  0.000000  0.009915 -0.000000  0.000000
       5    0.000000  0.000000  0.000000 -0.000000  0.009915 -0.000000
       6    0.000000  0.000000  0.000000  0.000000 -0.000000  0.009915
-------------------------------------------------------------------------------

  Mechanical properties :

-------------------------------------------------------------------------------
  Convention :                    Reuss         Voigt         Hill
-------------------------------------------------------------------------------
  Bulk  Modulus (GPa)     =     285.20524     285.20524     285.20524
  Shear Modulus (GPa)     =     132.28031     159.84228     146.06129
-------------------------------------------------------------------------------
  Velocity S-wave (km/s)  =       4.59717       5.05346       4.83071
  Velocity P-wave (km/s)  =       8.58749       8.92280       8.75675
-------------------------------------------------------------------------------
  Compressibility (1/GPa) =    0.00350625
-------------------------------------------------------------------------------
  Stress axis :                     x             y             z
-------------------------------------------------------------------------------
  Youngs Moduli (GPa)     =     577.38110     577.38110     577.38110
-------------------------------------------------------------------------------
  Poissons Ratio (x)      =                     0.16259       0.16259
  Poissons Ratio (y)      =       0.16259                     0.16259
  Poissons Ratio (z)      =       0.16259       0.16259
-------------------------------------------------------------------------------


  Piezoelectric Strain Matrix: (Units=C/m**2)

-------------------------------------------------------------------------------
  Indices      1         2         3         4         5         6    
-------------------------------------------------------------------------------
       x    -0.00000   0.00000   0.00000   0.00000   0.00000   0.00000
       y    -0.00000  -0.00000  -0.00000   0.00000   0.00000   0.00000
       z    -0.00000  -0.00000  -0.00000   0.00000   0.00000   0.00000
-------------------------------------------------------------------------------


  Piezoelectric Stress Matrix: (Units=10**-11 C/N)

-------------------------------------------------------------------------------
  Indices      1         2         3         4         5         6    
-------------------------------------------------------------------------------
       x    -0.00000   0.00000   0.00000   0.00000   0.00000   0.00000
       y    -0.00000  -0.00000  -0.00000   0.00000   0.00000   0.00000
       z     0.00000   0.00000  -0.00000   0.00000   0.00000   0.00000
-------------------------------------------------------------------------------


  Static dielectric constant tensor : 

-------------------------------------------------------------------------------
              x         y         z
-------------------------------------------------------------------------------
       x    26.88485   0.00000   0.00000
       y     0.00000  26.88485   0.00000
       z     0.00000   0.00000  26.88485
--------------------------------------------------------------------------------

  High frequency dielectric constant tensor : 

-------------------------------------------------------------------------------
              x         y         z
-------------------------------------------------------------------------------
       x     2.63099   0.00000   0.00000
       y     0.00000   2.63099   0.00000
       z     0.00000   0.00000   2.63099
-------------------------------------------------------------------------------

  Static refractive indices : 

-------------------------------------------------------------------------------
    1 =    5.18506      2 =    5.18506      3 =    5.18506
-------------------------------------------------------------------------------

  High frequency refractive indices : 

-------------------------------------------------------------------------------
    1 =    1.62203      2 =    1.62203      3 =    1.62203
-------------------------------------------------------------------------------


  Time to end of optimisation =       0.0144 seconds

********************************************************************************
*  Defect calculation for configuration   1 :                                  *
********************************************************************************

  Total number of defects =      3

  Total charge on defect  =   2.00

  Defect centre is at   0.5500   0.2500   0.2500  Frac

  Region 1 radius =  12.0000      Number of ions =   1326

  Number of symmetry inequivalent region 1 ions  =    412

  Region 2 radius =  24.0000      Number of ions =   9322

  Number of symmetry inequivalent region 2a ions =   2554

  Region 2a mode = 4 : screened electrostatics due to region 1 
                       neglect correction to region 1 forces from 2a
                       region 2a displacements based on defects only

  Region 2a ions will only interact with defects in region 1

  Vacancies:

--------------------------------------------------------------------------------
    Specification type     Symbol/Number         x          y          z
--------------------------------------------------------------------------------
    Fractional                               0.250000   0.250000   0.250000
    Fractional                               0.750000   0.250000   0.250000
--------------------------------------------------------------------------------

  Interstitials:

--------------------------------------------------------------------------------
    Specification type     Symbol/Number         x          y          z
--------------------------------------------------------------------------------
    Atom/Fractional         O                0.550000   0.250000   0.250000
--------------------------------------------------------------------------------


  Symmetry reduced region 1 (Relative to defect centre) :

--------------------------------------------------------------------------------
   No.   Atomic       x            y             z       Radius  Multiplicity   
         Label      (Angs)       (Angs)        (Angs)    (Angs)     
--------------------------------------------------------------------------------
     1  O     c      0.0000       0.0000       0.0000    0.0000     1    Defect
     2  Zr    c     -0.2538 *    -1.2689 *     1.2689    0.0000     2          
     3  O     c      1.0151 *     2.5378 *     0.0000 *  0.0000     4          
     4  Zr    c      2.2841 *    -1.2689 *    -1.2689    0.0000     2          
     5  O     c     -1.5227 *     2.5378 *    -0.0000 *  0.0000     4          
     6  Zr    c     -2.7916 *    -1.2689 *    -1.2689    0.0000     2          
     7  O     c      3.5530 *     0.0000       0.0000    0.0000     1          
     8  O     c      1.0151 *     2.5378 *     2.5378    0.0000     2          
     9  O     c      1.0151 *    -2.5378 *     2.5378    0.0000     2          
    10  O     c     -1.5227 *     2.5378 *     2.5378    0.0000     2          
    11  O     c     -1.5227 *    -2.5378 *     2.5378    0.0000     2          
    12  Zr    c     -0.2538 *     1.2689 *     3.8068 *  0.0000     4          
    13  O     c     -4.0605 *    -0.0000      -0.0000    0.0000     1          
    14  O     c      3.5530 *     2.5378 *    -0.0000 *  0.0000     4          
    15  Zr    c      2.2841 *    -3.8068 *     1.2689 *  0.0000     4          
    16  O     c     -4.0605 *     0.0000 *     2.5378 *  0.0000     4          
    17  Zr    c     -2.7916 *     1.2689 *    -3.8068 *  0.0000     4          
    18  O     c      3.5530 *     2.5378 *    -2.5378    0.0000     2          
    19  O     c      3.5530 *     2.5378 *     2.5378    0.0000     2          
    20  Zr    c      4.8219 *     1.2689 *    -1.2689    0.0000     2          
    21  O     c      1.0151 *    -0.0000 *     5.0757 *  0.0000     4          
    22  O     c     -1.5227 *     0.0000 *    -5.0757 *  0.0000     4          
    23  Zr    c     -0.2538 *    -3.8068 *     3.8068    0.0000     2          
    24  O     c     -4.0605 *     2.5378 *     2.5378    0.0000     2          
    25  O     c     -4.0605 *    -2.5378 *     2.5378    0.0000     2          
    26  Zr    c     -5.3295 *    -1.2689 *     1.2689    0.0000     2          
    27  O     c      1.0151 *    -5.0757 *     2.5378 *  0.0000     4          
    28  O     c      1.0151 *     5.0757 *     2.5378 *  0.0000     4          
    29  Zr    c      2.2841 *     3.8068 *     3.8068    0.0000     2          
    30  O     c     -1.5227 *     5.0757 *     2.5378 *  0.0000     4          
    31  O     c     -1.5227 *    -2.5378 *     5.0757 *  0.0000     4          
    32  Zr    c     -2.7916 *     3.8068 *     3.8068    0.0000     2          
    33  O     c      6.0908 *    -0.0000      -0.0000    0.0000     1          
    34  O     c      3.5530 *     5.0757 *     0.0000 *  0.0000     4          
    35  Zr    c      4.8219 *     1.2689 *     3.8068 *  0.0000     4          
    36  Zr    c     -0.2538 *     1.2689 *    -6.3446 *  0.0000     4          
    37  O     c     -4.0605 *    -0.0000 *     5.0757 *  0.0000     4          
    38  O     c      6.0908 *     2.5378 *     0.0000 *  0.0000     4          
    39  O     c     -6.5984 *     0.0000       0.0000    0.0000     1          
    40  Zr    c     -5.3295 *     1.2689 *     3.8068 *  0.0000     4          
    41  O     c      3.5530 *    -2.5378 *     5.0757 *  0.0000     4          
    42  O     c      3.5530 *     5.0757 *     2.5378 *  0.0000     4          
    43  Zr    c      2.2841 *     1.2689 *     6.3446 *  0.0000     4          
    44  O     c     -4.0605 *     5.0757 *     2.5378 *  0.0000     4          
    45  O     c     -4.0605 *    -5.0757 *     2.5378 *  0.0000     4          
    46  Zr    c     -2.7916 *    -1.2689 *    -6.3446 *  0.0000     4          
    47  O     c      6.0908 *     2.5378 *     2.5378    0.0000     2          
    48  O     c     -6.5984 *    -0.0000 *     2.5378 *  0.0000     4          
    49  O     c      6.0908 *     2.5378 *    -2.5378    0.0000     2          
    50  Zr    c      4.8219 *    -3.8068 *     3.8068    0.0000     2          
    51  O     c      1.0151 *     5.0757 *     5.0757    0.0000     2          
    52  O     c      1.0151 *    -5.0757 *     5.0757    0.0000     2          
    53  O     c     -1.5227 *     5.0757 *     5.0757    0.0000     2          
    54  O     c     -1.5227 *    -5.0757 *     5.0757    0.0000     2          
    55  Zr    c     -0.2538 *     3.8068 *     6.3446 *  0.0000     4          
    56  O     c     -6.5984 *     2.5378 *     2.5378    0.0000     2          
    57  O     c     -6.5984 *    -2.5378 *     2.5378    0.0000     2          
    58  Zr    c      7.3597 *    -1.2689 *    -1.2689    0.0000     2          
    59  Zr    c     -5.3295 *    -3.8068 *     3.8068    0.0000     2          
    60  O     c      1.0151 *     0.0000 *     7.6135 *  0.0000     4          
    61  Zr    c      2.2841 *     3.8068 *    -6.3446 *  0.0000     4          
    62  O     c     -1.5227 *    -0.0000 *     7.6135 *  0.0000     4          
    63  Zr    c     -2.7916 *    -6.3446 *     3.8068 *  0.0000     4          
    64  O     c      6.0908 *     5.0757 *    -0.0000 *  0.0000     4          
    65  O     c      3.5530 *    -5.0757 *     5.0757    0.0000     2          
    66  O     c      3.5530 *     5.0757 *     5.0757    0.0000     2          
    67  Zr    c      4.8219 *    -1.2689 *     6.3446 *  0.0000     4          
    68  Zr    c     -7.8673 *    -1.2689 *    -1.2689    0.0000     2          
    69  O     c      1.0151 *     2.5378 *     7.6135 *  0.0000     4          
    70  O     c      1.0151 *    -2.5378 *     7.6135 *  0.0000     4          
    71  O     c     -1.5227 *     2.5378 *     7.6135 *  0.0000     4          
    72  O     c     -1.5227 *    -7.6135 *     2.5378 *  0.0000     4          
    73  O     c     -4.0605 *     5.0757 *     5.0757    0.0000     2          
    74  O     c     -4.0605 *     5.0757 *    -5.0757    0.0000     2          
    75  O     c      6.0908 *    -2.5378 *     5.0757 *  0.0000     4          
    76  O     c      6.0908 *     5.0757 *     2.5378 *  0.0000     4          
    77  O     c     -6.5984 *     5.0757 *     0.0000 *  0.0000     4          
    78  Zr    c      7.3597 *     3.8068 *    -1.2689 *  0.0000     4          
    79  Zr    c     -5.3295 *    -6.3446 *     1.2689 *  0.0000     4          
    80  O     c      3.5530 *    -0.0000 *     7.6135 *  0.0000     4          
    81  O     c     -4.0605 *    -7.6135 *     0.0000 *  0.0000     4          
    82  O     c      8.6287 *     0.0000       0.0000    0.0000     1          
    83  O     c     -6.5984 *     5.0757 *    -2.5378 *  0.0000     4          
    84  O     c     -6.5984 *     2.5378 *     5.0757 *  0.0000     4          
    85  O     c      3.5530 *     7.6135 *    -2.5378 *  0.0000     4          
    86  O     c      3.5530 *     7.6135 *     2.5378 *  0.0000     4          
    87  Zr    c      4.8219 *     6.3446 *     3.8068 *  0.0000     4          
    88  Zr    c     -7.8673 *     3.8068 *    -1.2689 *  0.0000     4          
    89  Zr    c     -0.2538 *    -6.3446 *     6.3446    0.0000     2          
    90  Zr    c     -0.2538 *     1.2689 *     8.8824 *  0.0000     4          
    91  O     c     -4.0605 *     2.5378 *     7.6135 *  0.0000     4          
    92  O     c     -4.0605 *    -2.5378 *     7.6135 *  0.0000     4          
    93  O     c      8.6287 *     2.5378 *    -0.0000 *  0.0000     4          
    94  Zr    c     -5.3295 *     3.8068 *     6.3446 *  0.0000     4          
    95  Zr    c      7.3597 *     3.8068 *     3.8068    0.0000     2          
    96  O     c     -9.1362 *    -0.0000      -0.0000    0.0000     1          
    97  O     c      1.0151 *    -7.6135 *     5.0757 *  0.0000     4          
    98  O     c      1.0151 *     7.6135 *     5.0757 *  0.0000     4          
    99  Zr    c      2.2841 *     6.3446 *     6.3446    0.0000     2          
   100  Zr    c      2.2841 *     8.8824 *    -1.2689 *  0.0000     4          
   101  O     c     -1.5227 *     7.6135 *     5.0757 *  0.0000     4          
   102  O     c     -1.5227 *    -7.6135 *     5.0757 *  0.0000     4          
   103  O     c      8.6287 *     2.5378 *     2.5378    0.0000     2          
   104  O     c      8.6287 *     2.5378 *    -2.5378    0.0000     2          
   105  Zr    c     -2.7916 *     6.3446 *     6.3446    0.0000     2          
   106  Zr    c     -2.7916 *    -8.8824 *     1.2689 *  0.0000     4          
   107  O     c      6.0908 *     5.0757 *     5.0757    0.0000     2          
   108  O     c      6.0908 *    -5.0757 *     5.0757    0.0000     2          
   109  O     c     -9.1362 *    -2.5378 *     0.0000 *  0.0000     4          
   110  Zr    c     -7.8673 *     3.8068 *     3.8068    0.0000     2          
   111  Zr    c     -0.2538 *    -8.8824 *     3.8068 *  0.0000     4          
   112  O     c      6.0908 *     7.6135 *     0.0000 *  0.0000     4          
   113  O     c     -6.5984 *     5.0757 *     5.0757    0.0000     2          
   114  O     c     -6.5984 *    -5.0757 *     5.0757    0.0000     2          
   115  Zr    c      7.3597 *     6.3446 *     1.2689 *  0.0000     4          
   116  O     c      3.5530 *     7.6135 *     5.0757 *  0.0000     4          
   117  O     c      3.5530 *    -5.0757 *     7.6135 *  0.0000     4          
   118  O     c     -9.1362 *    -2.5378 *    -2.5378    0.0000     2          
   119  O     c     -9.1362 *    -2.5378 *     2.5378    0.0000     2          
   120  Zr    c      2.2841 *     3.8068 *     8.8824 *  0.0000     4          
   121  O     c     -4.0605 *    -7.6135 *     5.0757 *  0.0000     4          
   122  O     c     -4.0605 *     5.0757 *     7.6135 *  0.0000     4          
   123  O     c      8.6287 *     0.0000 *    -5.0757 *  0.0000     4          
   124  Zr    c     -2.7916 *     8.8824 *     3.8068 *  0.0000     4          
   125  Zr    c      9.8976 *     1.2689 *    -1.2689    0.0000     2          
   126  O     c      6.0908 *     7.6135 *    -2.5378 *  0.0000     4          
   127  O     c      6.0908 *     7.6135 *     2.5378 *  0.0000     4          
   128  O     c     -6.5984 *    -0.0000 *     7.6135 *  0.0000     4          
   129  Zr    c      4.8219 *    -6.3446 *     6.3446    0.0000     2          
   130  Zr    c      4.8219 *     8.8824 *     1.2689 *  0.0000     4          
   131  Zr    c     -7.8673 *    -6.3446 *    -1.2689 *  0.0000     4          
   132  O     c      1.0151 *    -0.0000 *    10.1514 *  0.0000     4          
   133  O     c     -1.5227 *    -0.0000 *    10.1514 *  0.0000     4          
   134  O     c      8.6287 *     5.0757 *     2.5378 *  0.0000     4          
   135  O     c      8.6287 *     5.0757 *    -2.5378 *  0.0000     4          
   136  O     c     -6.5984 *     2.5378 *     7.6135 *  0.0000     4          
   137  O     c     -6.5984 *    -7.6135 *     2.5378 *  0.0000     4          
   138  Zr    c      7.3597 *     6.3446 *    -3.8068 *  0.0000     4          
   139  Zr    c     -5.3295 *    -8.8824 *    -1.2689 *  0.0000     4          
   140  Zr    c     -5.3295 *    -6.3446 *     6.3446    0.0000     2          
   141  O     c     -9.1362 *    -0.0000 *     5.0757 *  0.0000     4          
   142  O     c      1.0151 *    -2.5378 *    10.1514 *  0.0000     4          
   143  O     c      1.0151 *     2.5378 *    10.1514 *  0.0000     4          
   144  Zr    c    -10.4052 *    -1.2689 *     1.2689    0.0000     2          
   145  O     c     -1.5227 *    -2.5378 *    10.1514 *  0.0000     4          
   146  O     c     -1.5227 *     2.5378 *    10.1514 *  0.0000     4          
   147  Zr    c      9.8976 *     3.8068 *     1.2689 *  0.0000     4          
   148  O     c      3.5530 *     0.0000 *    10.1514 *  0.0000     4          
   149  O     c     -9.1362 *    -2.5378 *    -5.0757 *  0.0000     4          
   150  O     c     -9.1362 *     2.5378 *    -5.0757 *  0.0000     4          
   151  Zr    c      4.8219 *     8.8824 *    -3.8068 *  0.0000     4          
   152  Zr    c     -7.8673 *    -3.8068 *     6.3446 *  0.0000     4          
   153  O     c      1.0151 *     7.6135 *     7.6135    0.0000     2          
   154  O     c      1.0151 *    -7.6135 *     7.6135    0.0000     2          
   155  O     c     -1.5227 *    -7.6135 *     7.6135    0.0000     2          
   156  O     c     -1.5227 *     7.6135 *     7.6135    0.0000     2          
   157  Zr    c     -0.2538 *     6.3446 *     8.8824 *  0.0000     4          
   158  O     c     -4.0605 *    -0.0000 *    10.1514 *  0.0000     4          
   159  O     c      6.0908 *     7.6135 *    -5.0757 *  0.0000     4          
   160  O     c      6.0908 *     7.6135 *     5.0757 *  0.0000     4          
   161  Zr    c     -5.3295 *    -8.8824 *     3.8068 *  0.0000     4          
   162  O     c      3.5530 *    -2.5378 *    10.1514 *  0.0000     4          
   163  O     c      3.5530 *     2.5378 *    10.1514 *  0.0000     4          
   164  Zr    c      2.2841 *    -8.8824 *     6.3446 *  0.0000     4          
   165  Zr    c    -10.4052 *     1.2689 *     3.8068 *  0.0000     4          
   166  O     c     11.1665 *    -0.0000      -0.0000    0.0000     1          
   167  O     c     -4.0605 *   -10.1514 *     2.5378 *  0.0000     4          
   168  O     c     -4.0605 *     2.5378 *    10.1514 *  0.0000     4          
   169  O     c      8.6287 *    -5.0757 *    -5.0757    0.0000     2          
   170  O     c      8.6287 *     5.0757 *    -5.0757    0.0000     2          
   171  Zr    c     -2.7916 *    -8.8824 *     6.3446 *  0.0000     4          
   172  Zr    c      9.8976 *     3.8068 *    -3.8068    0.0000     2          
   173  O     c     -6.5984 *     5.0757 *     7.6135 *  0.0000     4          
   174  O     c     -6.5984 *     7.6135 *    -5.0757 *  0.0000     4          
   175  O     c      3.5530 *    -7.6135 *     7.6135    0.0000     2          
   176  O     c      3.5530 *     7.6135 *     7.6135    0.0000     2          
   177  O     c      1.0151 *     5.0757 *    10.1514 *  0.0000     4          
   178  O     c      1.0151 *    -5.0757 *    10.1514 *  0.0000     4          
   179  O     c     -1.5227 *   -10.1514 *     5.0757 *  0.0000     4          
   180  O     c     -1.5227 *     5.0757 *    10.1514 *  0.0000     4          
   181  O     c     11.1665 *     2.5378 *     0.0000 *  0.0000     4          
   182  Zr    c     -0.2538 *    -1.2689 *    11.4203 *  0.0000     4          
   183  O     c      8.6287 *     7.6135 *    -0.0000 *  0.0000     4          
   184  O     c     -4.0605 *     7.6135 *     7.6135    0.0000     2          
   185  O     c     -4.0605 *    -7.6135 *     7.6135    0.0000     2          
   186  Zr    c      7.3597 *    -1.2689 *     8.8824 *  0.0000     4          
   187  Zr    c      7.3597 *     6.3446 *     6.3446    0.0000     2          
   188  O     c     -9.1362 *    -5.0757 *     5.0757    0.0000     2          
   189  O     c     -9.1362 *     5.0757 *     5.0757    0.0000     2          
   190  O     c    -11.6741 *    -0.0000       0.0000    0.0000     1          
   191  Zr    c      2.2841 *     1.2689 *    11.4203 *  0.0000     4          
   192  Zr    c    -10.4052 *    -3.8068 *     3.8068    0.0000     2          
   193  O     c     11.1665 *     2.5378 *     2.5378    0.0000     2          
   194  O     c     11.1665 *     2.5378 *    -2.5378    0.0000     2          
   195  O     c      8.6287 *     7.6135 *     2.5378 *  0.0000     4          
   196  O     c      8.6287 *     7.6135 *    -2.5378 *  0.0000     4          
   197  Zr    c      9.8976 *    -1.2689 *     6.3446 *  0.0000     4          
   198  Zr    c     -2.7916 *     1.2689 *    11.4203 *  0.0000     4          
   199  O     c      6.0908 *    -0.0000 *    10.1514 *  0.0000     4          
   200  O     c     -9.1362 *    -7.6135 *     0.0000 *  0.0000     4          
   201  O     c      3.5530 *    -5.0757 *    10.1514 *  0.0000     4          
   202  O     c      3.5530 *    10.1514 *     5.0757 *  0.0000     4          
   203  Zr    c     -7.8673 *    -6.3446 *    -6.3446    0.0000     2          
   204  Zr    c      4.8219 *     8.8824 *     6.3446 *  0.0000     4          
   205  Zr    c     -7.8673 *    -8.8824 *     1.2689 *  0.0000     4          
   206  O     c    -11.6741 *    -0.0000 *     2.5378 *  0.0000     4          
   207  O     s      0.0000       0.0000       0.0000    0.0000     1    Defect
   208  Zr    s     -0.2538 *    -1.2689 *     1.2689    0.0000     2          
   209  O     s      1.0151 *     2.5378 *     0.0000 *  0.0000     4          
   210  Zr    s      2.2841 *    -1.2689 *    -1.2689    0.0000     2          
   211  O     s     -1.5227 *     2.5378 *    -0.0000 *  0.0000     4          
   212  Zr    s     -2.7916 *    -1.2689 *    -1.2689    0.0000     2          
   213  O     s      3.5530 *     0.0000       0.0000    0.0000     1          
   214  O     s      1.0151 *     2.5378 *     2.5378    0.0000     2          
   215  O     s      1.0151 *    -2.5378 *     2.5378    0.0000     2          
   216  O     s     -1.5227 *     2.5378 *     2.5378    0.0000     2          
   217  O     s     -1.5227 *    -2.5378 *     2.5378    0.0000     2          
   218  Zr    s     -0.2538 *     1.2689 *     3.8068 *  0.0000     4          
   219  O     s     -4.0605 *    -0.0000      -0.0000    0.0000     1          
   220  O     s      3.5530 *     2.5378 *    -0.0000 *  0.0000     4          
   221  Zr    s      2.2841 *    -3.8068 *     1.2689 *  0.0000     4          
   222  O     s     -4.0605 *     0.0000 *     2.5378 *  0.0000     4          
   223  Zr    s     -2.7916 *     1.2689 *    -3.8068 *  0.0000     4          
   224  O     s      3.5530 *     2.5378 *    -2.5378    0.0000     2          
   225  O     s      3.5530 *     2.5378 *     2.5378    0.0000     2          
   226  Zr    s      4.8219 *     1.2689 *    -1.2689    0.0000     2          
   227  O     s      1.0151 *    -0.0000 *     5.0757 *  0.0000     4          
   228  O     s     -1.5227 *     0.0000 *    -5.0757 *  0.0000     4          
   229  Zr    s     -0.2538 *    -3.8068 *     3.8068    0.0000     2          
   230  O     s     -4.0605 *     2.5378 *     2.5378    0.0000     2          
   231  O     s     -4.0605 *    -2.5378 *     2.5378    0.0000     2          
   232  Zr    s     -5.3295 *    -1.2689 *     1.2689    0.0000     2          
   233  O     s      1.0151 *    -5.0757 *     2.5378 *  0.0000     4          
   234  O     s      1.0151 *     5.0757 *     2.5378 *  0.0000     4          
   235  Zr    s      2.2841 *     3.8068 *     3.8068    0.0000     2          
   236  O     s     -1.5227 *     5.0757 *     2.5378 *  0.0000     4          
   237  O     s     -1.5227 *    -2.5378 *     5.0757 *  0.0000     4          
   238  Zr    s     -2.7916 *     3.8068 *     3.8068    0.0000     2          
   239  O     s      6.0908 *    -0.0000      -0.0000    0.0000     1          
   240  O     s      3.5530 *     5.0757 *     0.0000 *  0.0000     4          
   241  Zr    s      4.8219 *     1.2689 *     3.8068 *  0.0000     4          
   242  Zr    s     -0.2538 *     1.2689 *    -6.3446 *  0.0000     4          
   243  O     s     -4.0605 *    -0.0000 *     5.0757 *  0.0000     4          
   244  O     s      6.0908 *     2.5378 *     0.0000 *  0.0000     4          
   245  O     s     -6.5984 *     0.0000       0.0000    0.0000     1          
   246  Zr    s     -5.3295 *     1.2689 *     3.8068 *  0.0000     4          
   247  O     s      3.5530 *    -2.5378 *     5.0757 *  0.0000     4          
   248  O     s      3.5530 *     5.0757 *     2.5378 *  0.0000     4          
   249  Zr    s      2.2841 *     1.2689 *     6.3446 *  0.0000     4          
   250  O     s     -4.0605 *     5.0757 *     2.5378 *  0.0000     4          
   251  O     s     -4.0605 *    -5.0757 *     2.5378 *  0.0000     4          
   252  Zr    s     -2.7916 *    -1.2689 *    -6.3446 *  0.0000     4          
   253  O     s      6.0908 *     2.5378 *     2.5378    0.0000     2          
   254  O     s     -6.5984 *    -0.0000 *     2.5378 *  0.0000     4          
   255  O     s      6.0908 *     2.5378 *    -2.5378    0.0000     2          
   256  Zr    s      4.8219 *    -3.8068 *     3.8068    0.0000     2          
   257  O     s      1.0151 *     5.0757 *     5.0757    0.0000     2          
   258  O     s      1.0151 *    -5.0757 *     5.0757    0.0000     2          
   259  O     s     -1.5227 *     5.0757 *     5.0757    0.0000     2          
   260  O     s     -1.5227 *    -5.0757 *     5.0757    0.0000     2          
   261  Zr    s     -0.2538 *     3.8068 *     6.3446 *  0.0000     4          
   262  O     s     -6.5984 *     2.5378 *     2.5378    0.0000     2          
   263  O     s     -6.5984 *    -2.5378 *     2.5378    0.0000     2          
   264  Zr    s      7.3597 *    -1.2689 *    -1.2689    0.0000     2          
   265  Zr    s     -5.3295 *    -3.8068 *     3.8068    0.0000     2          
   266  O     s      1.0151 *     0.0000 *     7.6135 *  0.0000     4          
   267  Zr    s      2.2841 *     3.8068 *    -6.3446 *  0.0000     4          
   268  O     s     -1.5227 *    -0.0000 *     7.6135 *  0.0000     4          
   269  Zr    s     -2.7916 *    -6.3446 *     3.8068 *  0.0000     4          
   270  O     s      6.0908 *     5.0757 *    -0.0000 *  0.0000     4          
   271  O     s      3.5530 *    -5.0757 *     5.0757    0.0000     2          
   272  O     s      3.5530 *     5.0757 *     5.0757    0.0000     2          
   273  Zr    s      4.8219 *    -1.2689 *     6.3446 *  0.0000     4          
   274  Zr    s     -7.8673 *    -1.2689 *    -1.2689    0.0000     2          
   275  O     s      1.0151 *     2.5378 *     7.6135 *  0.0000     4          
   276  O     s      1.0151 *    -2.5378 *     7.6135 *  0.0000     4          
   277  O     s     -1.5227 *     2.5378 *     7.6135 *  0.0000     4          
   278  O     s     -1.5227 *    -7.6135 *     2.5378 *  0.0000     4          
   279  O     s     -4.0605 *     5.0757 *     5.0757    0.0000     2          
   280  O     s     -4.0605 *     5.0757 *    -5.0757    0.0000     2          
   281  O     s      6.0908 *    -2.5378 *     5.0757 *  0.0000     4          
   282  O     s      6.0908 *     5.0757 *     2.5378 *  0.0000     4          
   283  O     s     -6.5984 *     5.0757 *     0.0000 *  0.0000     4          
   284  Zr    s      7.3597 *     3.8068 *    -1.2689 *  0.0000     4          
   285  Zr    s     -5.3295 *    -6.3446 *     1.2689 *  0.0000     4          
   286  O     s      3.5530 *    -0.0000 *     7.6135 *  0.0000     4          
   287  O     s     -4.0605 *    -7.6135 *     0.0000 *  0.0000     4          
   288  O     s      8.6287 *     0.0000       0.0000    0.0000     1          
   289  O     s     -6.5984 *     5.0757 *    -2.5378 *  0.0000     4          
   290  O     s     -6.5984 *     2.5378 *     5.0757 *  0.0000     4          
   291  O     s      3.5530 *     7.6135 *    -2.5378 *  0.0000     4          
   292  O     s      3.5530 *     7.6135 *     2.5378 *  0.0000     4          
   293  Zr    s      4.8219 *     6.3446 *     3.8068 *  0.0000     4          
   294  Zr    s     -7.8673 *     3.8068 *    -1.2689 *  0.0000     4          
   295  Zr    s     -0.2538 *    -6.3446 *     6.3446    0.0000     2          
   296  Zr    s     -0.2538 *     1.2689 *     8.8824 *  0.0000     4          
   297  O     s     -4.0605 *     2.5378 *     7.6135 *  0.0000     4          
   298  O     s     -4.0605 *    -2.5378 *     7.6135 *  0.0000     4          
   299  O     s      8.6287 *     2.5378 *    -0.0000 *  0.0000     4          
   300  Zr    s     -5.3295 *     3.8068 *     6.3446 *  0.0000     4          
   301  Zr    s      7.3597 *     3.8068 *     3.8068    0.0000     2          
   302  O     s     -9.1362 *    -0.0000      -0.0000    0.0000     1          
   303  O     s      1.0151 *    -7.6135 *     5.0757 *  0.0000     4          
   304  O     s      1.0151 *     7.6135 *     5.0757 *  0.0000     4          
   305  Zr    s      2.2841 *     6.3446 *     6.3446    0.0000     2          
   306  Zr    s      2.2841 *     8.8824 *    -1.2689 *  0.0000     4          
   307  O     s     -1.5227 *     7.6135 *     5.0757 *  0.0000     4          
   308  O     s     -1.5227 *    -7.6135 *     5.0757 *  0.0000     4          
   309  O     s      8.6287 *     2.5378 *     2.5378    0.0000     2          
   310  O     s      8.6287 *     2.5378 *    -2.5378    0.0000     2          
   311  Zr    s     -2.7916 *     6.3446 *     6.3446    0.0000     2          
   312  Zr    s     -2.7916 *    -8.8824 *     1.2689 *  0.0000     4          
   313  O     s      6.0908 *     5.0757 *     5.0757    0.0000     2          
   314  O     s      6.0908 *    -5.0757 *     5.0757    0.0000     2          
   315  O     s     -9.1362 *    -2.5378 *     0.0000 *  0.0000     4          
   316  Zr    s     -7.8673 *     3.8068 *     3.8068    0.0000     2          
   317  Zr    s     -0.2538 *    -8.8824 *     3.8068 *  0.0000     4          
   318  O     s      6.0908 *     7.6135 *     0.0000 *  0.0000     4          
   319  O     s     -6.5984 *     5.0757 *     5.0757    0.0000     2          
   320  O     s     -6.5984 *    -5.0757 *     5.0757    0.0000     2          
   321  Zr    s      7.3597 *     6.3446 *     1.2689 *  0.0000     4          
   322  O     s      3.5530 *     7.6135 *     5.0757 *  0.0000     4          
   323  O     s      3.5530 *    -5.0757 *     7.6135 *  0.0000     4          
   324  O     s     -9.1362 *    -2.5378 *    -2.5378    0.0000     2          
   325  O     s     -9.1362 *    -2.5378 *     2.5378    0.0000     2          
   326  Zr    s      2.2841 *     3.8068 *     8.8824 *  0.0000     4          
   327  O     s     -4.0605 *    -7.6135 *     5.0757 *  0.0000     4          
   328  O     s     -4.0605 *     5.0757 *     7.6135 *  0.0000     4          
   329  O     s      8.6287 *     0.0000 *    -5.0757 *  0.0000     4          
   330  Zr    s     -2.7916 *     8.8824 *     3.8068 *  0.0000     4          
   331  Zr    s      9.8976 *     1.2689 *    -1.2689    0.0000     2          
   332  O     s      6.0908 *     7.6135 *    -2.5378 *  0.0000     4          
   333  O     s      6.0908 *     7.6135 *     2.5378 *  0.0000     4          
   334  O     s     -6.5984 *    -0.0000 *     7.6135 *  0.0000     4          
   335  Zr    s      4.8219 *    -6.3446 *     6.3446    0.0000     2          
   336  Zr    s      4.8219 *     8.8824 *     1.2689 *  0.0000     4          
   337  Zr    s     -7.8673 *    -6.3446 *    -1.2689 *  0.0000     4          
   338  O     s      1.0151 *    -0.0000 *    10.1514 *  0.0000     4          
   339  O     s     -1.5227 *    -0.0000 *    10.1514 *  0.0000     4          
   340  O     s      8.6287 *     5.0757 *     2.5378 *  0.0000     4          
   341  O     s      8.6287 *     5.0757 *    -2.5378 *  0.0000     4          
   342  O     s     -6.5984 *     2.5378 *     7.6135 *  0.0000     4          
   343  O     s     -6.5984 *    -7.6135 *     2.5378 *  0.0000     4          
   344  Zr    s      7.3597 *     6.3446 *    -3.8068 *  0.0000     4          
   345  Zr    s     -5.3295 *    -8.8824 *    -1.2689 *  0.0000     4          
   346  Zr    s     -5.3295 *    -6.3446 *     6.3446    0.0000     2          
   347  O     s     -9.1362 *    -0.0000 *     5.0757 *  0.0000     4          
   348  O     s      1.0151 *    -2.5378 *    10.1514 *  0.0000     4          
   349  O     s      1.0151 *     2.5378 *    10.1514 *  0.0000     4          
   350  Zr    s    -10.4052 *    -1.2689 *     1.2689    0.0000     2          
   351  O     s     -1.5227 *    -2.5378 *    10.1514 *  0.0000     4          
   352  O     s     -1.5227 *     2.5378 *    10.1514 *  0.0000     4          
   353  Zr    s      9.8976 *     3.8068 *     1.2689 *  0.0000     4          
   354  O     s      3.5530 *     0.0000 *    10.1514 *  0.0000     4          
   355  O     s     -9.1362 *    -2.5378 *    -5.0757 *  0.0000     4          
   356  O     s     -9.1362 *     2.5378 *    -5.0757 *  0.0000     4          
   357  Zr    s      4.8219 *     8.8824 *    -3.8068 *  0.0000     4          
   358  Zr    s     -7.8673 *    -3.8068 *     6.3446 *  0.0000     4          
   359  O     s      1.0151 *     7.6135 *     7.6135    0.0000     2          
   360  O     s      1.0151 *    -7.6135 *     7.6135    0.0000     2          
   361  O     s     -1.5227 *    -7.6135 *     7.6135    0.0000     2          
   362  O     s     -1.5227 *     7.6135 *     7.6135    0.0000     2          
   363  Zr    s     -0.2538 *     6.3446 *     8.8824 *  0.0000     4          
   364  O     s     -4.0605 *    -0.0000 *    10.1514 *  0.0000     4          
   365  O     s      6.0908 *     7.6135 *    -5.0757 *  0.0000     4          
   366  O     s      6.0908 *     7.6135 *     5.0757 *  0.0000     4          
   367  Zr    s     -5.3295 *    -8.8824 *     3.8068 *  0.0000     4          
   368  O     s      3.5530 *    -2.5378 *    10.1514 *  0.0000     4          
   369  O     s      3.5530 *     2.5378 *    10.1514 *  0.0000     4          
   370  Zr    s      2.2841 *    -8.8824 *     6.3446 *  0.0000     4          
   371  Zr    s    -10.4052 *     1.2689 *     3.8068 *  0.0000     4          
   372  O     s     11.1665 *    -0.0000      -0.0000    0.0000     1          
   373  O     s     -4.0605 *   -10.1514 *     2.5378 *  0.0000     4          
   374  O     s     -4.0605 *     2.5378 *    10.1514 *  0.0000     4          
   375  O     s      8.6287 *    -5.0757 *    -5.0757    0.0000     2          
   376  O     s      8.6287 *     5.0757 *    -5.0757    0.0000     2          
   377  Zr    s     -2.7916 *    -8.8824 *     6.3446 *  0.0000     4          
   378  Zr    s      9.8976 *     3.8068 *    -3.8068    0.0000     2          
   379  O     s     -6.5984 *     5.0757 *     7.6135 *  0.0000     4          
   380  O     s     -6.5984 *     7.6135 *    -5.0757 *  0.0000     4          
   381  O     s      3.5530 *    -7.6135 *     7.6135    0.0000     2          
   382  O     s      3.5530 *     7.6135 *     7.6135    0.0000     2          
   383  O     s      1.0151 *     5.0757 *    10.1514 *  0.0000     4          
   384  O     s      1.0151 *    -5.0757 *    10.1514 *  0.0000     4          
   385  O     s     -1.5227 *   -10.1514 *     5.0757 *  0.0000     4          
   386  O     s     -1.5227 *     5.0757 *    10.1514 *  0.0000     4          
   387  O     s     11.1665 *     2.5378 *     0.0000 *  0.0000     4          
   388  Zr    s     -0.2538 *    -1.2689 *    11.4203 *  0.0000     4          
   389  O     s      8.6287 *     7.6135 *    -0.0000 *  0.0000     4          
   390  O     s     -4.0605 *     7.6135 *     7.6135    0.0000     2          
   391  O     s     -4.0605 *    -7.6135 *     7.6135    0.0000     2          
   392  Zr    s      7.3597 *    -1.2689 *     8.8824 *  0.0000     4          
   393  Zr    s      7.3597 *     6.3446 *     6.3446    0.0000     2          
   394  O     s     -9.1362 *    -5.0757 *     5.0757    0.0000     2          
   395  O     s     -9.1362 *     5.0757 *     5.0757    0.0000     2          
   396  O     s    -11.6741 *    -0.0000       0.0000    0.0000     1          
   397  Zr    s      2.2841 *     1.2689 *    11.4203 *  0.0000     4          
   398  Zr    s    -10.4052 *    -3.8068 *     3.8068    0.0000     2          
   399  O     s     11.1665 *     2.5378 *     2.5378    0.0000     2          
   400  O     s     11.1665 *     2.5378 *    -2.5378    0.0000     2          
   401  O     s      8.6287 *     7.6135 *     2.5378 *  0.0000     4          
   402  O     s      8.6287 *     7.6135 *    -2.5378 *  0.0000     4          
   403  Zr    s      9.8976 *    -1.2689 *     6.3446 *  0.0000     4          
   404  Zr    s     -2.7916 *     1.2689 *    11.4203 *  0.0000     4          
   405  O     s      6.0908 *    -0.0000 *    10.1514 *  0.0000     4          
   406  O     s     -9.1362 *    -7.6135 *     0.0000 *  0.0000     4          
   407  O     s      3.5530 *    -5.0757 *    10.1514 *  0.0000     4          
   408  O     s      3.5530 *    10.1514 *     5.0757 *  0.0000     4          
   409  Zr    s     -7.8673 *    -6.3446 *    -6.3446    0.0000     2          
   410  Zr    s      4.8219 *     8.8824 *     6.3446 *  0.0000     4          
   411  Zr    s     -7.8673 *    -8.8824 *     1.2689 *  0.0000     4          
   412  O     s    -11.6741 *    -0.0000 *     2.5378 *  0.0000     4          
--------------------------------------------------------------------------------


  Constraints on symmetry reduced coordinates :

--------------------------------------------------------------------------------
  Constraint no.      Unconstrained     Constrained    Coefficient    
                         Variable         Variable
--------------------------------------------------------------------------------
           1                 2 y             2 z        -1.00000
           2                 4 y             4 z         1.00000
           3                 6 y             6 z         1.00000
           4                 8 y             8 z         1.00000
           5                 9 y             9 z        -1.00000
           6                10 y            10 z         1.00000
           7                11 y            11 z        -1.00000
           8                18 y            18 z        -1.00000
           9                19 y            19 z         1.00000
          10                20 y            20 z        -1.00000
          11                23 y            23 z        -1.00000
          12                24 y            24 z         1.00000
          13                25 y            25 z        -1.00000
          14                26 y            26 z        -1.00000
          15                29 y            29 z         1.00000
          16                32 y            32 z         1.00000
          17                47 y            47 z         1.00000
          18                49 y            49 z        -1.00000
          19                50 y            50 z        -1.00000
          20                51 y            51 z         1.00000
          21                52 y            52 z        -1.00000
          22                53 y            53 z         1.00000
          23                54 y            54 z        -1.00000
          24                56 y            56 z         1.00000
          25                57 y            57 z        -1.00000
          26                58 y            58 z         1.00000
          27                59 y            59 z        -1.00000
          28                65 y            65 z        -1.00000
          29                66 y            66 z         1.00000
          30                68 y            68 z         1.00000
          31                73 y            73 z         1.00000
          32                74 y            74 z        -1.00000
          33                89 y            89 z        -1.00000
          34                95 y            95 z         1.00000
          35                99 y            99 z         1.00000
          36               103 y           103 z         1.00000
          37               104 y           104 z        -1.00000
          38               105 y           105 z         1.00000
          39               107 y           107 z         1.00000
          40               108 y           108 z        -1.00000
          41               110 y           110 z         1.00000
          42               113 y           113 z         1.00000
          43               114 y           114 z        -1.00000
          44               118 y           118 z         1.00000
          45               119 y           119 z        -1.00000
          46               125 y           125 z        -1.00000
          47               129 y           129 z        -1.00000
          48               140 y           140 z        -1.00000
          49               144 y           144 z        -1.00000
          50               153 y           153 z         1.00000
          51               154 y           154 z        -1.00000
          52               155 y           155 z        -1.00000
          53               156 y           156 z         1.00000
          54               169 y           169 z         1.00000
          55               170 y           170 z        -1.00000
          56               172 y           172 z        -1.00000
          57               175 y           175 z        -1.00000
          58               176 y           176 z         1.00000
          59               184 y           184 z         1.00000
          60               185 y           185 z        -1.00000
          61               187 y           187 z         1.00000
          62               188 y           188 z        -1.00000
          63               189 y           189 z         1.00000
          64               192 y           192 z        -1.00000
          65               193 y           193 z         1.00000
          66               194 y           194 z        -1.00000
          67               203 y           203 z         1.00000
          68               208 y           208 z        -1.00000
          69               210 y           210 z         1.00000
          70               212 y           212 z         1.00000
          71               214 y           214 z         1.00000
          72               215 y           215 z        -1.00000
          73               216 y           216 z         1.00000
          74               217 y           217 z        -1.00000
          75               224 y           224 z        -1.00000
          76               225 y           225 z         1.00000
          77               226 y           226 z        -1.00000
          78               229 y           229 z        -1.00000
          79               230 y           230 z         1.00000
          80               231 y           231 z        -1.00000
          81               232 y           232 z        -1.00000
          82               235 y           235 z         1.00000
          83               238 y           238 z         1.00000
          84               253 y           253 z         1.00000
          85               255 y           255 z        -1.00000
          86               256 y           256 z        -1.00000
          87               257 y           257 z         1.00000
          88               258 y           258 z        -1.00000
          89               259 y           259 z         1.00000
          90               260 y           260 z        -1.00000
          91               262 y           262 z         1.00000
          92               263 y           263 z        -1.00000
          93               264 y           264 z         1.00000
          94               265 y           265 z        -1.00000
          95               271 y           271 z        -1.00000
          96               272 y           272 z         1.00000
          97               274 y           274 z         1.00000
          98               279 y           279 z         1.00000
          99               280 y           280 z        -1.00000
         100               295 y           295 z        -1.00000
         101               301 y           301 z         1.00000
         102               305 y           305 z         1.00000
         103               309 y           309 z         1.00000
         104               310 y           310 z        -1.00000
         105               311 y           311 z         1.00000
         106               313 y           313 z         1.00000
         107               314 y           314 z        -1.00000
         108               316 y           316 z         1.00000
         109               319 y           319 z         1.00000
         110               320 y           320 z        -1.00000
         111               324 y           324 z         1.00000
         112               325 y           325 z        -1.00000
         113               331 y           331 z        -1.00000
         114               335 y           335 z        -1.00000
         115               346 y           346 z        -1.00000
         116               350 y           350 z        -1.00000
         117               359 y           359 z         1.00000
         118               360 y           360 z        -1.00000
         119               361 y           361 z        -1.00000
         120               362 y           362 z         1.00000
         121               375 y           375 z         1.00000
         122               376 y           376 z        -1.00000
         123               378 y           378 z        -1.00000
         124               381 y           381 z        -1.00000
         125               382 y           382 z         1.00000
         126               390 y           390 z         1.00000
         127               391 y           391 z        -1.00000
         128               393 y           393 z         1.00000
         129               394 y           394 z        -1.00000
         130               395 y           395 z         1.00000
         131               398 y           398 z        -1.00000
         132               399 y           399 z         1.00000
         133               400 y           400 z        -1.00000
         134               409 y           409 z         1.00000
--------------------------------------------------------------------------------


  Components of defect energy : 

--------------------------------------------------------------------------------
  Region 1 - region 1                   =     40.20462276 eV
  Region 1 - region 2a (unrelaxed)      =     -9.06428833 eV
  Region 1 - 2a (relaxed - correction)  =     -2.32072856 eV
  Region 1 (Total)                      =     28.81960588 eV
  Region 2a                             =      1.16039050 eV
  Region 2b                             =     -1.15462212 eV
--------------------------------------------------------------------------------
  Total defect energy                   =     28.82537425 eV
--------------------------------------------------------------------------------

  Largest displacement in region 2 =   0.0051 Angstroms


  Number of variables =     1064

  Maximum number of calculations  =        1000
  Maximum Hessian update interval =          10
  Maximum step size               =   1.0000000
  Maximum parameter tolerance     =   0.0000100
  Maximum function  tolerance     =   0.0000100
  Maximum gradient  tolerance     =   0.0010000

  Symmetry adapted optimisation

  Symmetry to be used for second derivatives

  Newton-Raphson optimiser to be used

  BFGS hessian update to be used

  Lower half triangular hessian to be used

  Start of defect optimisation :

  Cycle:      0 Defect Energy:  28.825374  Gnorm:     0.083805  CPU:    4.815
  ** Hessian calculated **
  Cycle:      1 Defect Energy:  21.023713  Gnorm:     0.032184  CPU:   14.736
  Cycle:      2 Defect Energy:  16.967249  Gnorm:     0.016744  CPU:   23.367
  Cycle:      3 Defect Energy:  16.477428  Gnorm:     0.012918  CPU:   29.189
  Cycle:      4 Defect Energy:  15.896805  Gnorm:     0.008279  CPU:   37.823
  Cycle:      5 Defect Energy:  15.527659  Gnorm:     0.006992  CPU:   45.010
  Cycle:      6 Defect Energy:  15.383012  Gnorm:     0.007086  CPU:   52.220
  Cycle:      7 Defect Energy:  15.248482  Gnorm:     0.005002  CPU:   59.437
  Cycle:      8 Defect Energy:  15.129906  Gnorm:     0.004134  CPU:   66.650
  Cycle:      9 Defect Energy:  15.045283  Gnorm:     0.004003  CPU:   73.844
  Cycle:     10 Defect Energy:  14.957696  Gnorm:     0.003374  CPU:   81.073
  ** Hessian calculated **
  Cycle:     11 Defect Energy:  14.913046  Gnorm:     0.003145  CPU:   88.314
  Cycle:     12 Defect Energy:  14.852500  Gnorm:     0.002806  CPU:   89.854
  Cycle:     13 Defect Energy:  14.776375  Gnorm:     0.002319  CPU:   91.396
  Cycle:     14 Defect Energy:  14.693892  Gnorm:     0.001678  CPU:   92.936
  Cycle:     15 Defect Energy:  14.653628  Gnorm:     0.001261  CPU:   94.477
  Cycle:     16 Defect Energy:  14.634045  Gnorm:     0.000952  CPU:   96.018
  Cycle:     17 Defect Energy:  14.624308  Gnorm:     0.000728  CPU:   97.577
  Cycle:     18 Defect Energy:  14.619434  Gnorm:     0.000551  CPU:   99.122
  Cycle:     19 Defect Energy:  14.616948  Gnorm:     0.000423  CPU:  100.663
  Cycle:     20 Defect Energy:  14.615684  Gnorm:     0.000312  CPU:  102.204
  ** Hessian calculated **
  Cycle:     21 Defect Energy:  14.614981  Gnorm:     0.000223  CPU:  109.442
  Cycle:     22 Defect Energy:  14.614685  Gnorm:     0.000161  CPU:  110.981
  Cycle:     23 Defect Energy:  14.614560  Gnorm:     0.000115  CPU:  112.528
  Cycle:     24 Defect Energy:  14.614482  Gnorm:     0.000082  CPU:  114.072
  Cycle:     25 Defect Energy:  14.614445  Gnorm:     0.000058  CPU:  115.615
  Cycle:     26 Defect Energy:  14.614427  Gnorm:     0.000041  CPU:  117.175
  Cycle:     27 Defect Energy:  14.614457  Gnorm:     0.000029  CPU:  118.722


  **** Optimisation achieved ****


  Final defect energy  =       14.61445321
  Final defect Gnorm   =        0.00002014

  Components of defect energy : 

--------------------------------------------------------------------------------
  Region 1 - region 1                   =     33.01940982 eV
  Region 1 - region 2a (unrelaxed)      =    -16.21996594 eV
  Region 1 - 2a (relaxed - correction)  =     -2.06110620 eV
  Region 1 (Total)                      =     14.73833767 eV
  Region 2a                             =      1.03048102 eV
  Region 2b                             =     -1.15436548 eV
--------------------------------------------------------------------------------
  Total defect energy                   =     14.61445321 eV
--------------------------------------------------------------------------------

  Largest displacement in region 2 =   0.0051 Angstroms

  Final coordinates of region 1 :

--------------------------------------------------------------------------------
   No.  Atomic        x           y           z          Radius      Charge
        Label       (Angs)      (Angs)      (Angs)       (Angs)       (e) 
--------------------------------------------------------------------------------
     1  O     c     2.791626    1.268921    1.268921    0.000000    0.077000
     2  Zr    c     2.567103   -0.040332    2.578173    0.000000    2.650000
     3  Zr    c     2.567103    2.578173   -0.040332    0.000000    2.650000
     4  O     c     3.887522    3.742415    1.223230    0.000000    0.077000
     5  O     c     3.887522    1.223230    3.742415    0.000000    0.077000
     6  O     c     3.887522    1.314612   -1.204573    0.000000    0.077000
     7  O     c     3.887522   -1.204573    1.314612    0.000000    0.077000
     8  Zr    c     5.122021   -0.042996   -0.042996    0.000000    2.650000
     9  Zr    c     5.122021    2.580838    2.580838    0.000000    2.650000
    10  O     c     1.266521    3.693971    1.267503    0.000000    0.077000
    11  O     c     1.266521    1.267503    3.693971    0.000000    0.077000
    12  O     c     1.266521    1.270338   -1.156129    0.000000    0.077000
    13  O     c     1.266521   -1.156129    1.270338    0.000000    0.077000
    14  Zr    c    -0.035671   -0.041687   -0.041687    0.000000    2.650000
    15  Zr    c    -0.035671    2.579529    2.579529    0.000000    2.650000
    16  O     c     5.734306    1.268921    1.268921    0.000000    0.077000
    17  O     c     3.775953    3.797168    3.797168    0.000000    0.077000
    18  O     c     3.775953   -1.259326   -1.259326    0.000000    0.077000
    19  O     c     3.783704   -1.314153    3.851995    0.000000    0.077000
    20  O     c     3.783704    3.851995   -1.314153    0.000000    0.077000
    21  O     c     1.258631    3.837563    3.837563    0.000000    0.077000
    22  O     c     1.258631   -1.299721   -1.299721    0.000000    0.077000
    23  O     c     1.251384   -1.299354    3.837195    0.000000    0.077000
    24  O     c     1.251384    3.837195   -1.299354    0.000000    0.077000
    25  Zr    c     2.539751    2.565045    5.097204    0.000000    2.650000
    26  Zr    c     2.539751    5.097204    2.565045    0.000000    2.650000
    27  Zr    c     2.539751   -2.559362   -0.027204    0.000000    2.650000
    28  Zr    c     2.539751   -0.027204   -2.559362    0.000000    2.650000
    29  O     c    -0.337834    1.268921    1.268921    0.000000    0.077000
    30  O     c     6.451988    3.774482    1.319519    0.000000    0.077000
    31  O     c     6.451988    1.319519    3.774482    0.000000    0.077000
    32  O     c     6.451988    1.218323   -1.236640    0.000000    0.077000
    33  O     c     6.451988   -1.236640    1.218323    0.000000    0.077000
    34  Zr    c     5.085363   -2.556351    2.554066    0.000000    2.650000
    35  Zr    c     5.085363    2.554066   -2.556351    0.000000    2.650000
    36  Zr    c     5.085363   -0.016224    5.094192    0.000000    2.650000
    37  Zr    c     5.085363    5.094192   -0.016224    0.000000    2.650000
    38  O     c    -1.347095    1.312648    3.746455    0.000000    0.077000
    39  O     c    -1.347095    3.746455    1.312648    0.000000    0.077000
    40  O     c    -1.347095   -1.208613    1.225194    0.000000    0.077000
    41  O     c    -1.347095    1.225194   -1.208613    0.000000    0.077000
    42  Zr    c    -0.004938    2.564000   -2.559019    0.000000    2.650000
    43  Zr    c    -0.004938   -2.559019    2.564000    0.000000    2.650000
    44  Zr    c    -0.004938   -0.026158    5.096860    0.000000    2.650000
    45  Zr    c    -0.004938    5.096860   -0.026158    0.000000    2.650000
    46  O     c     6.311891    3.782785   -1.244943    0.000000    0.077000
    47  O     c     6.311891   -1.244943    3.782785    0.000000    0.077000
    48  O     c     6.300700    3.838040    3.838040    0.000000    0.077000
    49  O     c     6.300700   -1.300199   -1.300199    0.000000    0.077000
    50  Zr    c     7.640188    2.570355   -0.032513    0.000000    2.650000
    51  Zr    c     7.640188   -0.032513    2.570355    0.000000    2.650000
    52  O     c     3.784531    1.277148    6.300187    0.000000    0.077000
    53  O     c     3.784531    6.300187    1.277148    0.000000    0.077000
    54  O     c     3.784531   -3.762345    1.260693    0.000000    0.077000
    55  O     c     3.784531    1.260693   -3.762345    0.000000    0.077000
    56  O     c     1.256688    1.267985   -3.726775    0.000000    0.077000
    57  O     c     1.256688    6.264617    1.269857    0.000000    0.077000
    58  O     c     1.256688   -3.726775    1.267985    0.000000    0.077000
    59  O     c     1.256688    1.269857    6.264617    0.000000    0.077000
    60  Zr    c     2.541055   -2.560720    5.098562    0.000000    2.650000
    61  Zr    c     2.541055    5.098562   -2.560720    0.000000    2.650000
    62  O     c    -1.271361    3.844918    3.844918    0.000000    0.077000
    63  O     c    -1.271361   -1.307077   -1.307077    0.000000    0.077000
    64  O     c    -1.269021   -1.259851    3.797693    0.000000    0.077000
    65  O     c    -1.269021    3.797693   -1.259851    0.000000    0.077000
    66  Zr    c    -2.584611   -0.045230    2.583072    0.000000    2.650000
    67  Zr    c    -2.584611    2.583072   -0.045230    0.000000    2.650000
    68  O     c     3.817391   -3.833186    3.793128    0.000000    0.077000
    69  O     c     3.817391    3.793128   -3.833186    0.000000    0.077000
    70  O     c     3.817391   -1.255286    6.371028    0.000000    0.077000
    71  O     c     3.817391    6.371028   -1.255286    0.000000    0.077000
    72  O     c     3.810230    6.329265    3.804580    0.000000    0.077000
    73  O     c     3.810230    3.804580    6.329265    0.000000    0.077000
    74  O     c     3.810230   -1.266738   -3.791423    0.000000    0.077000
    75  O     c     3.810230   -3.791423   -1.266738    0.000000    0.077000
    76  Zr    c     5.086775    5.096547    5.096547    0.000000    2.650000
    77  Zr    c     5.086775   -2.558705   -2.558705    0.000000    2.650000
    78  O     c     1.282625    6.358663    3.794440    0.000000    0.077000
    79  O     c     1.282625    3.794440    6.358663    0.000000    0.077000
    80  O     c     1.282625   -3.820821   -1.256598    0.000000    0.077000
    81  O     c     1.282625   -1.256598   -3.820821    0.000000    0.077000
    82  O     c     1.271134   -1.256759    6.357818    0.000000    0.077000
[...]
    332 y          8.882446      8.886701     0.004254    Cartesian    0.05
    332 z         -1.268921     -1.267441     0.001480    Cartesian   -0.12
    333 x          8.882446      8.874713    -0.007733    Cartesian   -0.09
    333 y          8.882446      8.878820    -0.003626    Cartesian   -0.04
    333 z          3.806763      3.808202     0.001439    Cartesian    0.04
    334 x         -3.806763     -3.799155     0.007608    Cartesian   -0.20
    334 y          1.268921      1.269246     0.000325    Cartesian    0.03
    334 z          8.882446      8.873346    -0.009100    Cartesian   -0.10
    335 x          7.613525      7.614954     0.001429    Cartesian    0.02
    335 y         -5.075684     -5.080339    -0.004656    Cartesian    0.09
    335 z          7.613525      7.618181     0.004656    Cartesian    0.06
    336 x          7.613525      7.613915     0.000390    Cartesian    0.01
    336 y         10.151367     10.154285     0.002918    Cartesian    0.03
    336 z          2.537842      2.537859     0.000017    Cartesian    0.00
    337 x         -5.075684     -5.081040    -0.005356    Cartesian    0.11
    337 y         -5.075684     -5.082096    -0.006412    Cartesian    0.13
    337 z          0.000000     -0.000915    -0.000915    Cartesian    0.00
    338 x          3.806763      3.802962    -0.003801    Cartesian   -0.10
    338 y          1.268921      1.269274     0.000353    Cartesian    0.03
    338 z         11.420288     11.408136    -0.012152    Cartesian   -0.11
    339 x          1.268921      1.266165    -0.002756    Cartesian   -0.22
    339 y          1.268921      1.268531    -0.000390    Cartesian   -0.03
    339 z         11.420288     11.398144    -0.022145    Cartesian   -0.19
    340 x         11.420288     11.424087     0.003799    Cartesian    0.03
    340 y          6.344605      6.344842     0.000237    Cartesian    0.00
    340 z          3.806763      3.810221     0.003458    Cartesian    0.09
    341 x         11.420288     11.428077     0.007789    Cartesian    0.07
    341 y          6.344605      6.339946    -0.004659    Cartesian   -0.07
    341 z         -1.268921     -1.270996    -0.002075    Cartesian    0.16
    342 x         -3.806763     -3.810939    -0.004177    Cartesian    0.11
    342 y          3.806763      3.808116     0.001354    Cartesian    0.04
    342 z          8.882446      8.875092    -0.007354    Cartesian   -0.08
    343 x         -3.806763     -3.807869    -0.001107    Cartesian    0.03
    343 y         -6.344605     -6.349679    -0.005075    Cartesian    0.08
    343 z          3.806763      3.805946    -0.000817    Cartesian   -0.02
    344 x         10.151367     10.156501     0.005134    Cartesian    0.05
    344 y          7.613525      7.618116     0.004590    Cartesian    0.06
    344 z         -2.537842     -2.537516     0.000325    Cartesian   -0.01
    345 x         -2.537842     -2.537091     0.000751    Cartesian   -0.03
    345 y         -7.613525     -7.617630    -0.004104    Cartesian    0.05
    345 z          0.000000     -0.000192    -0.000192    Cartesian    0.00
    346 x         -2.537842     -2.537136     0.000706    Cartesian   -0.03
    346 y         -5.075684     -5.082916    -0.007232    Cartesian    0.14
    346 z          7.613525      7.620758     0.007232    Cartesian    0.09
    347 x         -6.344605     -6.342554     0.002050    Cartesian   -0.03
    347 y          1.268921      1.262092    -0.006829    Cartesian   -0.54
    347 z          6.344605      6.339949    -0.004655    Cartesian   -0.07
    348 x          3.806763      3.807296     0.000534    Cartesian    0.01
    348 y         -1.268921     -1.267544     0.001377    Cartesian   -0.11
    348 z         11.420288     11.426529     0.006241    Cartesian    0.05
    349 x          3.806763      3.803700    -0.003063    Cartesian   -0.08
    349 y          3.806763      3.805539    -0.001224    Cartesian   -0.03
    349 z         11.420288     11.413548    -0.006740    Cartesian   -0.06
    350 x         -7.613525     -7.615111    -0.001586    Cartesian    0.02
    350 y         -0.000000     -0.016026    -0.016026    Cartesian *******
    350 z          2.537842      2.553867     0.016026    Cartesian    0.63
    351 x          1.268921      1.267750    -0.001171    Cartesian   -0.09
    351 y         -1.268921     -1.267156     0.001764    Cartesian   -0.14
    351 z         11.420288     11.422679     0.002390    Cartesian    0.02
    352 x          1.268921      1.270995     0.002074    Cartesian    0.16
    352 y          3.806763      3.804830    -0.001932    Cartesian   -0.05
    352 z         11.420288     11.423564     0.003276    Cartesian    0.03
    353 x         12.689209     12.697047     0.007838    Cartesian    0.06
    353 y          5.075684      5.075517    -0.000167    Cartesian   -0.00
    353 z          2.537842      2.535213    -0.002629    Cartesian   -0.10
    354 x          6.344605      6.341836    -0.002768    Cartesian   -0.04
    354 y          1.268921      1.267457    -0.001464    Cartesian   -0.12
    354 z         11.420288     11.415321    -0.004967    Cartesian   -0.04
    355 x         -6.344605     -6.340544     0.004061    Cartesian   -0.06
    355 y         -1.268921     -1.269646    -0.000725    Cartesian    0.06
    355 z         -3.806763     -3.810460    -0.003697    Cartesian    0.10
    356 x         -6.344605     -6.345550    -0.000945    Cartesian    0.01
    356 y          3.806763      3.805545    -0.001218    Cartesian   -0.03
    356 z         -3.806763     -3.802153     0.004610    Cartesian   -0.12
    357 x          7.613525      7.617223     0.003697    Cartesian    0.05
    357 y         10.151367     10.155695     0.004328    Cartesian    0.04
    357 z         -2.537842     -2.539594    -0.001752    Cartesian    0.07
    358 x         -5.075684     -5.079115    -0.003432    Cartesian    0.07
    358 y         -2.537842     -2.540038    -0.002196    Cartesian    0.09
    358 z          7.613525      7.621623     0.008097    Cartesian    0.11
    359 x          3.806763      3.807902     0.001139    Cartesian    0.03
    359 y          8.882446      8.880699    -0.001747    Cartesian   -0.02
    359 z          8.882446      8.880699    -0.001747    Cartesian   -0.02
    360 x          3.806763      3.801312    -0.005451    Cartesian   -0.14
    360 y         -6.344605     -6.342861     0.001744    Cartesian   -0.03
    360 z          8.882446      8.880703    -0.001744    Cartesian   -0.02
    361 x          1.268921      1.270756     0.001835    Cartesian    0.14
    361 y         -6.344605     -6.343345     0.001260    Cartesian   -0.02
    361 z          8.882446      8.881186    -0.001260    Cartesian   -0.01
    362 x          1.268921      1.266048    -0.002873    Cartesian   -0.23
    362 y          8.882446      8.880558    -0.001888    Cartesian   -0.02
    362 z          8.882446      8.880558    -0.001888    Cartesian   -0.02
    363 x          2.537842      2.538903     0.001061    Cartesian    0.04
    363 y          7.613525      7.616791     0.003265    Cartesian    0.04
    363 z         10.151367     10.158088     0.006721    Cartesian    0.07
    364 x         -1.268921     -1.271589    -0.002669    Cartesian    0.21
    364 y          1.268921      1.265908    -0.003013    Cartesian   -0.24
    364 z         11.420288     11.408460    -0.011828    Cartesian   -0.10
    365 x          8.882446      8.881456    -0.000991    Cartesian   -0.01
    365 y          8.882446      8.879386    -0.003061    Cartesian   -0.03
    365 z         -3.806763     -3.805771     0.000992    Cartesian   -0.03
    366 x          8.882446      8.882459     0.000012    Cartesian    0.00
    366 y          8.882446      8.882999     0.000553    Cartesian    0.01
    366 z          6.344605      6.342119    -0.002485    Cartesian   -0.04
    367 x         -2.537842     -2.540739    -0.002897    Cartesian    0.11
    367 y         -7.613525     -7.619512    -0.005987    Cartesian    0.08
    367 z          5.075684      5.077442     0.001758    Cartesian    0.03
    368 x          6.344605      6.343319    -0.001285    Cartesian   -0.02
    368 y         -1.268921     -1.266440     0.002481    Cartesian   -0.20
    368 z         11.420288     11.411089    -0.009200    Cartesian   -0.08
    369 x          6.344605      6.343286    -0.001319    Cartesian   -0.02
    369 y          3.806763      3.805917    -0.000846    Cartesian   -0.02
    369 z         11.420288     11.424240     0.003952    Cartesian    0.03
    370 x          5.075684      5.077544     0.001861    Cartesian    0.04
    370 y         -7.613525     -7.619696    -0.006171    Cartesian    0.08
    370 z          7.613525      7.616980     0.003454    Cartesian    0.05
    371 x         -7.613525     -7.626797    -0.013272    Cartesian    0.17
    371 y          2.537842      2.536252    -0.001590    Cartesian   -0.06
    371 z          5.075684      5.077594     0.001910    Cartesian    0.04
    372 x         13.958130     13.877376    -0.080754    Cartesian   -0.58
    372 y          1.268921      1.268921     0.000000    Cartesian    0.00
    372 z          1.268921      1.268921     0.000000    Cartesian    0.00
    373 x         -1.268921     -1.266666     0.002255    Cartesian   -0.18
    373 y         -8.882446     -8.872651     0.009796    Cartesian   -0.11
    373 z          3.806763      3.805519    -0.001244    Cartesian   -0.03
    374 x         -1.268921     -1.267144     0.001777    Cartesian   -0.14
    374 y          3.806763      3.803441    -0.003322    Cartesian   -0.09
    374 z         11.420288     11.421204     0.000916    Cartesian    0.01
    375 x         11.420288     11.411560    -0.008728    Cartesian   -0.08
    375 y         -3.806763     -3.803563     0.003200    Cartesian   -0.08
    375 z         -3.806763     -3.803563     0.003200    Cartesian   -0.08
    376 x         11.420288     11.417954    -0.002335    Cartesian   -0.02
    376 y          6.344605      6.344337    -0.000267    Cartesian   -0.00
    376 z         -3.806763     -3.806496     0.000267    Cartesian   -0.01
    377 x          0.000000     -0.001012    -0.001012    Cartesian    0.00
    377 y         -7.613525     -7.621676    -0.008150    Cartesian    0.11
    377 z          7.613525      7.617604     0.004078    Cartesian    0.05
    378 x         12.689209     12.694014     0.004805    Cartesian    0.04
    378 y          5.075684      5.082536     0.006852    Cartesian    0.14
    378 z         -2.537842     -2.544694    -0.006852    Cartesian    0.27
    379 x         -3.806763     -3.802237     0.004525    Cartesian   -0.12
    379 y          6.344605      6.342155    -0.002450    Cartesian   -0.04
    379 z          8.882446      8.879011    -0.003436    Cartesian   -0.04
    380 x         -3.806763     -3.806721     0.000042    Cartesian   -0.00
    380 y          8.882446      8.877808    -0.004638    Cartesian   -0.05
    380 z         -3.806763     -3.805621     0.001142    Cartesian   -0.03
    381 x          6.344605      6.343475    -0.001129    Cartesian   -0.02
    381 y         -6.344605     -6.341796     0.002809    Cartesian   -0.04
    381 z          8.882446      8.879637    -0.002809    Cartesian   -0.03
    382 x          6.344605      6.340340    -0.004264    Cartesian   -0.07
    382 y          8.882446      8.880977    -0.001469    Cartesian   -0.02
    382 z          8.882446      8.880977    -0.001469    Cartesian   -0.02
    383 x          3.806763      3.806298    -0.000464    Cartesian   -0.01
    383 y          6.344605      6.344018    -0.000586    Cartesian   -0.01
    383 z         11.420288     11.416914    -0.003374    Cartesian   -0.03
    384 x          3.806763      3.804612    -0.002151    Cartesian   -0.06
    384 y         -3.806763     -3.804729     0.002034    Cartesian   -0.05
    384 z         11.420288     11.412961    -0.007327    Cartesian   -0.06
    385 x          1.268921      1.268333    -0.000588    Cartesian   -0.05
    385 y         -8.882446     -8.874989     0.007458    Cartesian   -0.08
    385 z          6.344605      6.343317    -0.001287    Cartesian   -0.02
    386 x          1.268921      1.270022     0.001101    Cartesian    0.09
    386 y          6.344605      6.341815    -0.002790    Cartesian   -0.04
    386 z         11.420288     11.411470    -0.008818    Cartesian   -0.08
    387 x         13.958130     13.985327     0.027197    Cartesian    0.19
    387 y          3.806763      3.800898    -0.005865    Cartesian   -0.15
    387 z          1.268921      1.264695    -0.004226    Cartesian   -0.33
    388 x          2.537842      2.539156     0.001314    Cartesian    0.05
    388 y         -0.000000     -0.003992    -0.003992    Cartesian *******
    388 z         12.689209     12.697030     0.007821    Cartesian    0.06
    389 x         11.420288     11.421404     0.001116    Cartesian    0.01
    389 y          8.882446      8.880402    -0.002044    Cartesian   -0.02
    389 z          1.268921      1.270422     0.001501    Cartesian    0.12
    390 x         -1.268921     -1.264097     0.004824    Cartesian   -0.38
    390 y          8.882446      8.874561    -0.007886    Cartesian   -0.09
    390 z          8.882446      8.874561    -0.007886    Cartesian   -0.09
    391 x         -1.268921     -1.271042    -0.002121    Cartesian    0.17
    391 y         -6.344605     -6.341221     0.003384    Cartesian   -0.05
    391 z          8.882446      8.879062    -0.003384    Cartesian   -0.04
    392 x         10.151367     10.155887     0.004520    Cartesian    0.04
    392 y          0.000000     -0.000513    -0.000513    Cartesian    0.00
    392 z         10.151367     10.157838     0.006471    Cartesian    0.06
    393 x         10.151367     10.156003     0.004636    Cartesian    0.05
    393 y          7.613525      7.620220     0.006694    Cartesian    0.09
    393 z          7.613525      7.620220     0.006694    Cartesian    0.09
    394 x         -6.344605     -6.349300    -0.004696    Cartesian    0.07
    394 y         -3.806763     -3.805010     0.001752    Cartesian   -0.05
    394 z          6.344605      6.342852    -0.001752    Cartesian   -0.03
    395 x         -6.344605     -6.339126     0.005479    Cartesian   -0.09
    395 y          6.344605      6.338009    -0.006596    Cartesian   -0.10
    395 z          6.344605      6.338009    -0.006596    Cartesian   -0.10
    396 x         -8.882446     -8.777761     0.104686    Cartesian   -1.18
    396 y          1.268921      1.268921     0.000000    Cartesian    0.00
    396 z          1.268921      1.268921     0.000000    Cartesian    0.00
    397 x          5.075684      5.078717     0.003033    Cartesian    0.06
    397 y          2.537842      2.540234     0.002393    Cartesian    0.09
    397 z         12.689209     12.698277     0.009068    Cartesian    0.07
    398 x         -7.613525     -7.624671    -0.011146    Cartesian    0.15
    398 y         -2.537842     -2.548361    -0.010519    Cartesian    0.41
    398 z          5.075684      5.086202     0.010519    Cartesian    0.21
    399 x         13.958130     13.935792    -0.022338    Cartesian   -0.16
    399 y          3.806763      3.805379    -0.001383    Cartesian   -0.04
    399 z          3.806763      3.805379    -0.001383    Cartesian   -0.04
    400 x         13.958130     13.931444    -0.026686    Cartesian   -0.19
    400 y          3.806763      3.806723    -0.000039    Cartesian   -0.00
    400 z         -1.268921     -1.268882     0.000039    Cartesian   -0.00
    401 x         11.420288     11.408997    -0.011291    Cartesian   -0.10
    401 y          8.882446      8.876160    -0.006287    Cartesian   -0.07
    401 z          3.806763      3.802014    -0.004748    Cartesian   -0.12
    402 x         11.420288     11.416680    -0.003608    Cartesian   -0.03
    402 y          8.882446      8.878578    -0.003868    Cartesian   -0.04
    402 z         -1.268921     -1.269068    -0.000147    Cartesian    0.01
    403 x         12.689209     12.698856     0.009647    Cartesian    0.08
    403 y          0.000000     -0.001888    -0.001888    Cartesian    0.00
    403 z          7.613525      7.619404     0.005878    Cartesian    0.08
    404 x          0.000000     -0.001750    -0.001750    Cartesian    0.00
    404 y          2.537842      2.541624     0.003782    Cartesian    0.15
    404 z         12.689209     12.698737     0.009528    Cartesian    0.08
    405 x          8.882446      8.878105    -0.004342    Cartesian   -0.05
    405 y          1.268921      1.269082     0.000161    Cartesian    0.01
    405 z         11.420288     11.410590    -0.009699    Cartesian   -0.08
    406 x         -6.344605     -6.336070     0.008534    Cartesian   -0.13
    406 y         -6.344605     -6.336522     0.008083    Cartesian   -0.13
    406 z          1.268921      1.265534    -0.003387    Cartesian   -0.27
    407 x          6.344605      6.341621    -0.002984    Cartesian   -0.05
    407 y         -3.806763     -3.804240     0.002523    Cartesian   -0.07
    407 z         11.420288     11.414160    -0.006128    Cartesian   -0.05
    408 x          6.344605      6.342196    -0.002409    Cartesian   -0.04
    408 y         11.420288     11.410570    -0.009718    Cartesian   -0.09
    408 z          6.344605      6.341671    -0.002934    Cartesian   -0.05
    409 x         -5.075684     -5.081515    -0.005831    Cartesian    0.11
    409 y         -5.075684     -5.084112    -0.008428    Cartesian    0.17
    409 z         -5.075684     -5.084112    -0.008428    Cartesian    0.17
    410 x          7.613525      7.618043     0.004517    Cartesian    0.06
    410 y         10.151367     10.159251     0.007884    Cartesian    0.08
    410 z          7.613525      7.618560     0.005035    Cartesian    0.07
    411 x         -5.075684     -5.080669    -0.004986    Cartesian    0.10
    411 y         -7.613525     -7.623537    -0.010012    Cartesian    0.13
    411 z          2.537842      2.540185     0.002343    Cartesian    0.09
    412 x         -8.882446     -8.903963    -0.021517    Cartesian    0.24
    412 y          1.268921      1.263353    -0.005568    Cartesian   -0.44
    412 z          3.806763      3.798208    -0.008554    Cartesian   -0.22
--------------------------------------------------------------------------------


  Time to end of optimisation  =      120.2712 seconds


  Peak dynamic memory used =     401.95 MB 


  Timing analysis for GULP :

--------------------------------------------------------------------------------
  Task / Subroutine                                          Time (Seconds)
--------------------------------------------------------------------------------
  Calculation of reciprocal space energy and derivatives          0.0002
  Calculation of reciprocal space energy using symmetry           0.0002
  Calculation of real space energy and derivatives                0.0020
  Calculation of real space energy using symmetry                 0.0070
  Calculation for region 1 energy and derivatives (2-b)          30.9273
  Calculation for region 2a energy                               76.7519
  Calculation for region 2b energy                                0.0112
  Calculation and manipulation of Hessian matrix                 11.3108
  Calculation of matrix inversion                                 0.8309
  Symmetry generation of equivalent positions                     0.0016
--------------------------------------------------------------------------------
  Total CPU time                                                120.2712
--------------------------------------------------------------------------------


  Dump file written as ZrO2.grs


  Job Finished at 12:45.35 14th October    2020                               

