********************************************************************************
*                       GENERAL UTILITY LATTICE PROGRAM                        *
*                                 Julian Gale                                  *
*                       Curtin Institute for Computation                       *
*                    School of Molecular and Life Sciences                     *
*                    Curtin University, Western Australia                      *
********************************************************************************
* Version = 5.2.0 * Last modified =  10th September 2020                       *
********************************************************************************
* Zirconia doped with calcium                                                  *
*  optimise     - perform optimisation run                                     *
*  conp         - constant pressure calculation                                *
*  property     - calculate properties for final geometry                      *
*  defect       - perform defect calculation after bulk run                    *
*  distance     - calculate distances                                          *
*  compare      - compare initial and final structures                         *
********************************************************************************
* Zirconia doped with calcium                                                  *
********************************************************************************


  Job Started  at 12:45.35 14th October    2020                               

  Number of CPUs =     1


  Total number of configurations input =      1

********************************************************************************
*  Input for Configuration =   1 : ZrO2                                        *
********************************************************************************

  Formula = ZrO2                                                        

  Number of irreducible atoms/shells =       4


  Total number atoms/shells =       6

  Dimensionality = 3               :  Bulk   


  Symmetry :

  Crystal family                   :  Cubic       
  Crystal class  (Groth - 1921)    :  Cubic Hexakisoctahedral              

  Space group (centrosymmetric)    :  F M 3 M         

  Patterson group                  :  F m -3 m 

  Cartesian lattice vectors (Angstroms) :

        0.000000    2.535000    2.535000
        2.535000    0.000000    2.535000
        2.535000    2.535000    0.000000

  Primitive cell parameters :            Full cell parameters :

  a =   3.5850    alpha =  60.0000       a =   5.0700    alpha =  90.0000
  b =   3.5850    beta  =  60.0000       b =   5.0700    beta  =  90.0000
  c =   3.5850    gamma =  60.0000       c =   5.0700    gamma =  90.0000

  Initial volumes (Angstroms**3):

  Primitive cell =          32.580961    Full cell =         130.323843

  Temperature of configuration =   0.00     K 

  Pressure of configuration =         0.000 GPa 

  Fractional coordinates of asymmetric unit :

--------------------------------------------------------------------------------
   No.  Atomic       x           y          z         Charge      Occupancy
        Label      (Frac)      (Frac)     (Frac)        (e)         (Frac)  
--------------------------------------------------------------------------------
      1 Zr    c    0.000000    0.000000    0.000000     2.65000    1.000000    
      2 O     c    0.250000    0.250000    0.250000     0.07700    1.000000    
      3 Zr    s    0.000000    0.000000    0.000000     1.35000    1.000000    
      4 O     s    0.250000    0.250000    0.250000    -2.07700    1.000000    
--------------------------------------------------------------------------------


  Constraints : 

--------------------------------------------------------------------------------
  Constraint no.      Unconstrained     Constrained    Coefficient    Offset
                         Variable         Variable
--------------------------------------------------------------------------------
           1              Strain 1        Strain 2       1.00000      0.0000
           2              Strain 1        Strain 3       1.00000      0.0000
--------------------------------------------------------------------------------


  Distance calculation :


  Cutoff for distances  =      4.000000 Angstroms

--------------------------------------------------------------------------------
  Asymmetric unit site  Full lattice sites    No.  Distance      No.  Distance
      No.   At.No.            At.No.                (Angs)             (Angs) 
--------------------------------------------------------------------------------
       1   Zr    core        Zr    core        12    3.5850
                             Zr    shell       12    3.5850
                             O     core         8    2.1954
                             O     shell        8    2.1954
--------------------------------------------------------------------------------
       2   O     core        Zr    core         4    2.1954
                             Zr    shell        4    2.1954
                             O     core         6    2.5350       12    3.5850
                             O     shell        6    2.5350       12    3.5850
--------------------------------------------------------------------------------
       3   Zr    shell       Zr    core        12    3.5850
                             Zr    shell       12    3.5850
                             O     core         8    2.1954
                             O     shell        8    2.1954
--------------------------------------------------------------------------------
       4   O     shell       Zr    core         4    2.1954
                             Zr    shell        4    2.1954
                             O     core         6    2.5350       12    3.5850
                             O     shell        6    2.5350       12    3.5850
--------------------------------------------------------------------------------



********************************************************************************
*  General input information                                                   *
********************************************************************************

  Species output for all configurations : 

--------------------------------------------------------------------------------
  Species    Type    Atomic    Atomic    Charge       Radii (Angs)     Library
                     Number     Mass       (e)     Cova   Ionic  VDW   Symbol
--------------------------------------------------------------------------------
    Zr       Core       40      91.22   2.650000   1.560  0.000  2.330          
    Zr       Shell      40       0.00   1.350000   1.560  0.000  2.330          
    O        Core        8      16.00   0.077000   0.730  0.000  1.360          
    O        Shell       8       0.00  -2.077000   0.730  0.000  1.360          
--------------------------------------------------------------------------------


  Lattice summation method               =    Ewald          (3-D)
                                         =    Parry          (2-D)
                                         =    Saunders et al (1-D)
  Accuracy factor for lattice sums       =   12.000


  Analytic derivatives to be used

  Time limit = Infinity

  Maximum range for interatomic potentials =    100000.000000 Angstroms

  General interatomic potentials :

--------------------------------------------------------------------------------
Atom  Types   Potential      Parameter       Value         Units   Cutoffs(Ang)
  1     2                                                            Min /  Max 
--------------------------------------------------------------------------------
O    s Zr   s Buckingham    Buckingham A     985.86900    eV        0.000 12.000
                            Buckingham rho  0.37600000    Ang       
                            Buckingham C     0.0000000    eV*Ang^6  
--------------------------------------------------------------------------------
O    s O    s Buckingham    Buckingham A     22764.300    eV        0.000 12.000
                            Buckingham rho  0.14900000    Ang       
                            Buckingham C     27.890000    eV*Ang^6  
--------------------------------------------------------------------------------
Zr   c Zr   s Spring (c-s)  Spring k 2       169.61700    eV*Ang^-2 0.000  0.800
                            Spring k 4       0.0000000    eV*Ang^-4 
--------------------------------------------------------------------------------
O    c O    s Spring (c-s)  Spring k 2       27.290000    eV*Ang^-2 0.000  0.800
                            Spring k 4       0.0000000    eV*Ang^-4 
--------------------------------------------------------------------------------

********************************************************************************
*  Output for configuration   1 : ZrO2                                         *
********************************************************************************


  Components of energy : 

--------------------------------------------------------------------------------
  Interatomic potentials     =          22.43756329 eV    
  Monopole - monopole (real) =         -15.67991073 eV    
  Monopole - monopole (recip)=        -116.52038266 eV    
  Monopole - monopole (total)=        -132.20029339 eV    
--------------------------------------------------------------------------------
  Total lattice energy : 
    Primitive unit cell      =        -109.76273010 eV    
    Non-primitive unit cell  =        -439.05092039 eV    
--------------------------------------------------------------------------------
  Total lattice energy (in kJmol-1): 
    Primitive unit cell      =          -10590.4256 kJ/(mole unit cells)
    Non-primitive unit cell  =          -42361.7023 kJ/(mole unit cells)
--------------------------------------------------------------------------------


  Number of variables =        1

  Maximum number of calculations  =          1000
  Maximum Hessian update interval =            10
  Maximum step size               =   1.000000000
  Maximum parameter tolerance     =   0.000010000
  Maximum function  tolerance     =   0.000010000
  Maximum gradient  tolerance     =   0.001000000
  Maximum gradient  component     =   0.010000000

  Symmetry constrained optimisation

  Symmetry used for second derivatives

  Cell parameters to be optimised using strains

  Newton-Raphson optimiser to be used

  BFGS hessian update to be used

  Lower half triangular hessian to be used

  Start of bulk optimisation :

  Cycle:      0 Energy:      -109.762730  Gnorm:      0.588311  CPU:    0.006
  ** Hessian calculated **
  Cycle:      1 Energy:      -109.763059  Gnorm:      0.000316  CPU:    0.009


  **** Optimisation achieved ****


  Final energy =    -109.76305939 eV
  Final Gnorm  =       0.00000099

  Components of energy : 

--------------------------------------------------------------------------------
  Interatomic potentials     =          22.28919976 eV    
  Monopole - monopole (real) =         -15.66235280 eV    
  Monopole - monopole (recip)=        -116.38990634 eV    
  Monopole - monopole (total)=        -132.05225914 eV    
--------------------------------------------------------------------------------
  Total lattice energy : 
    Primitive unit cell      =        -109.76305939 eV    
    Non-primitive unit cell  =        -439.05223754 eV    
--------------------------------------------------------------------------------
  Total lattice energy (in kJmol-1): 
    Primitive unit cell      =          -10590.4573 kJ/(mole unit cells)
    Non-primitive unit cell  =          -42361.8294 kJ/(mole unit cells)
--------------------------------------------------------------------------------

  Final asymmetric unit coordinates :

--------------------------------------------------------------------------------
   No.  Atomic        x           y           z         Radius
        Label       (Frac)      (Frac)      (Frac)       (Angs) 
--------------------------------------------------------------------------------
     1  Zr    c     0.000000    0.000000    0.000000    0.000000
     2  O     c     0.250000    0.250000    0.250000    0.000000
     3  Zr    s     0.000000    0.000000    0.000000    0.000000
     4  O     s     0.250000    0.250000    0.250000    0.000000
--------------------------------------------------------------------------------

  Final Cartesian lattice vectors (Angstroms) :

        0.000000    2.537842    2.537842
        2.537842    0.000000    2.537842
        2.537842    2.537842    0.000000


  Final cell parameters and derivatives :

--------------------------------------------------------------------------------
       a            3.589050 Angstrom     dE/de1(xx)    -0.000001 eV/strain
       b            3.589050 Angstrom     dE/de2(yy)     0.000000 eV/strain
       c            3.589050 Angstrom     dE/de3(zz)     0.000000 eV/strain
       alpha       60.000000 Degrees      dE/de4(yz)     0.000000 eV/strain
       beta        60.000000 Degrees      dE/de5(xz)     0.000000 eV/strain
       gamma       60.000000 Degrees      dE/de6(xy)     0.000000 eV/strain
--------------------------------------------------------------------------------

  Primitive cell volume =            32.690656 Angs**3

  Density of cell =      6.259124 g/cm**3

  Non-primitive lattice parameters :

  a    =     5.075684  b   =     5.075684  c    =     5.075684
  alpha=    90.000000  beta=    90.000000  gamma=    90.000000

  Non-primitive cell volume =           130.762624 Angs**3


  Final internal derivatives :

--------------------------------------------------------------------------------
   No.  Atomic          a             b             c           Radius
        Label          (eV)          (eV)          (eV)        (eV/Angs)
--------------------------------------------------------------------------------
      1 Zr    c       0.000000      0.000000      0.000000      0.000000
      2 O     c       0.000000      0.000000      0.000000      0.000000
      3 Zr    s       0.000000      0.000000      0.000000      0.000000
      4 O     s       0.000000      0.000000      0.000000      0.000000
--------------------------------------------------------------------------------
  Maximum abs         0.000000      0.000000      0.000000      0.000000
--------------------------------------------------------------------------------

  Comparison of initial and final structures : 

--------------------------------------------------------------------------------
  Parameter   Initial value   Final value   Difference    Units      Percent
--------------------------------------------------------------------------------
    Volume       130.323843    130.762624     0.438781    Angs**3      0.34
    a              5.070000      5.075684     0.005684    Angstroms    0.11
    b              5.070000      5.075684     0.005684    Angstroms    0.11
    c              5.070000      5.075684     0.005684    Angstroms    0.11
    alpha         90.000000     90.000000     0.000000    Degrees      0.00
    beta          90.000000     90.000000     0.000000    Degrees      0.00
    gamma         90.000000     90.000000     0.000000    Degrees      0.00
      1 x          0.000000      0.000000     0.000000    Fractional   0.00
      1 y          0.000000      0.000000     0.000000    Fractional   0.00
      1 z          0.000000      0.000000     0.000000    Fractional   0.00
      2 x          0.250000      0.250000     0.000000    Fractional   0.00
      2 y          0.250000      0.250000     0.000000    Fractional   0.00
      2 z          0.250000      0.250000     0.000000    Fractional   0.00
      3 x          0.000000      0.000000     0.000000    Fractional   0.00
      3 y          0.000000      0.000000     0.000000    Fractional   0.00
      3 z          0.000000      0.000000     0.000000    Fractional   0.00
      4 x          0.250000      0.250000     0.000000    Fractional   0.00
      4 y          0.250000      0.250000     0.000000    Fractional   0.00
      4 z          0.250000      0.250000     0.000000    Fractional   0.00
--------------------------------------------------------------------------------


  Distance calculation :


  Cutoff for distances  =      4.000000 Angstroms

--------------------------------------------------------------------------------
  Asymmetric unit site  Full lattice sites    No.  Distance      No.  Distance
      No.   At.No.            At.No.                (Angs)             (Angs) 
--------------------------------------------------------------------------------
       1   Zr    core        Zr    core        12    3.5891
                             Zr    shell       12    3.5891
                             O     core         8    2.1978
                             O     shell        8    2.1978
--------------------------------------------------------------------------------
       2   O     core        Zr    core         4    2.1978
                             Zr    shell        4    2.1978
                             O     core         6    2.5378       12    3.5891
                             O     shell        6    2.5378       12    3.5891
--------------------------------------------------------------------------------
       3   Zr    shell       Zr    core        12    3.5891
                             Zr    shell       12    3.5891
                             O     core         8    2.1978
                             O     shell        8    2.1978
--------------------------------------------------------------------------------
       4   O     shell       Zr    core         4    2.1978
                             Zr    shell        4    2.1978
                             O     core         6    2.5378       12    3.5891
                             O     shell        6    2.5378       12    3.5891
--------------------------------------------------------------------------------



  Born effective charge tensors : 

-------------------------------------------------------------------------------
  Atom             x           y             z
-------------------------------------------------------------------------------
    1 Zr    x       3.6770      0.0000      0.0000
            y       0.0000      3.6770      0.0000
            z       0.0000      0.0000      3.6770
-------------------------------------------------------------------------------
    2 O     x      -1.8385      0.0000      0.0000
            y       0.0000     -1.8385     -0.0000
            z       0.0000     -0.0000     -1.8385
-------------------------------------------------------------------------------




  Elastic Constant Matrix: (Units=GPa)

-------------------------------------------------------------------------------
  Indices      1         2         3         4         5         6    
-------------------------------------------------------------------------------
       1    616.2933  119.6612  119.6612   -0.0000   -0.0000   -0.0000
       2    119.6612  616.2933  119.6612   -0.0000   -0.0000   -0.0000
       3    119.6612  119.6612  616.2933   -0.0000   -0.0000   -0.0000
       4     -0.0000   -0.0000   -0.0000  100.8598    0.0000   -0.0000
       5     -0.0000   -0.0000   -0.0000    0.0000  100.8598    0.0000
       6     -0.0000   -0.0000   -0.0000   -0.0000    0.0000  100.8598
-------------------------------------------------------------------------------


  Elastic Compliance Matrix: (Units=1/GPa)

-------------------------------------------------------------------------------
  Indices      1         2         3         4         5         6    
-------------------------------------------------------------------------------
       1    0.001732 -0.000282 -0.000282  0.000000  0.000000  0.000000
       2   -0.000282  0.001732 -0.000282 -0.000000  0.000000  0.000000
       3   -0.000282 -0.000282  0.001732  0.000000  0.000000  0.000000
       4    0.000000 -0.000000  0.000000  0.009915 -0.000000  0.000000
       5    0.000000  0.000000  0.000000 -0.000000  0.009915 -0.000000
       6    0.000000  0.000000  0.000000  0.000000 -0.000000  0.009915
-------------------------------------------------------------------------------

  Mechanical properties :

-------------------------------------------------------------------------------
  Convention :                    Reuss         Voigt         Hill
-------------------------------------------------------------------------------
  Bulk  Modulus (GPa)     =     285.20524     285.20524     285.20524
  Shear Modulus (GPa)     =     132.28031     159.84228     146.06129
-------------------------------------------------------------------------------
  Velocity S-wave (km/s)  =       4.59717       5.05346       4.83071
  Velocity P-wave (km/s)  =       8.58749       8.92280       8.75675
-------------------------------------------------------------------------------
  Compressibility (1/GPa) =    0.00350625
-------------------------------------------------------------------------------
  Stress axis :                     x             y             z
-------------------------------------------------------------------------------
  Youngs Moduli (GPa)     =     577.38110     577.38110     577.38110
-------------------------------------------------------------------------------
  Poissons Ratio (x)      =                     0.16259       0.16259
  Poissons Ratio (y)      =       0.16259                     0.16259
  Poissons Ratio (z)      =       0.16259       0.16259
-------------------------------------------------------------------------------


  Piezoelectric Strain Matrix: (Units=C/m**2)

-------------------------------------------------------------------------------
  Indices      1         2         3         4         5         6    
-------------------------------------------------------------------------------
       x    -0.00000   0.00000   0.00000   0.00000   0.00000   0.00000
       y    -0.00000  -0.00000  -0.00000   0.00000   0.00000   0.00000
       z    -0.00000  -0.00000  -0.00000   0.00000   0.00000   0.00000
-------------------------------------------------------------------------------


  Piezoelectric Stress Matrix: (Units=10**-11 C/N)

-------------------------------------------------------------------------------
  Indices      1         2         3         4         5         6    
-------------------------------------------------------------------------------
       x    -0.00000   0.00000   0.00000   0.00000   0.00000   0.00000
       y    -0.00000  -0.00000  -0.00000   0.00000   0.00000   0.00000
       z     0.00000   0.00000  -0.00000   0.00000   0.00000   0.00000
-------------------------------------------------------------------------------


  Static dielectric constant tensor : 

-------------------------------------------------------------------------------
              x         y         z
-------------------------------------------------------------------------------
       x    26.88485   0.00000   0.00000
       y     0.00000  26.88485   0.00000
       z     0.00000   0.00000  26.88485
--------------------------------------------------------------------------------

  High frequency dielectric constant tensor : 

-------------------------------------------------------------------------------
              x         y         z
-------------------------------------------------------------------------------
       x     2.63099   0.00000   0.00000
       y     0.00000   2.63099   0.00000
       z     0.00000   0.00000   2.63099
-------------------------------------------------------------------------------

  Static refractive indices : 

-------------------------------------------------------------------------------
    1 =    5.18506      2 =    5.18506      3 =    5.18506
-------------------------------------------------------------------------------

  High frequency refractive indices : 

-------------------------------------------------------------------------------
    1 =    1.62203      2 =    1.62203      3 =    1.62203
-------------------------------------------------------------------------------


  Time to end of optimisation =       0.0145 seconds

********************************************************************************
*  Defect calculation for configuration   1 :                                  *
********************************************************************************

  Total number of defects =      3

  Total charge on defect  =   2.00

  Defect centre is at   0.5600   0.2500   0.2500  Frac

  Region 1 radius =  12.0000      Number of ions =   1326

  Number of symmetry inequivalent region 1 ions  =    412

  Region 2 radius =  24.0000      Number of ions =   9282

  Number of symmetry inequivalent region 2a ions =   2544

  Region 2a mode = 4 : screened electrostatics due to region 1 
                       neglect correction to region 1 forces from 2a
                       region 2a displacements based on defects only

  Region 2a ions will only interact with defects in region 1

  Vacancies:

--------------------------------------------------------------------------------
    Specification type     Symbol/Number         x          y          z
--------------------------------------------------------------------------------
    Fractional                               0.250000   0.250000   0.250000
    Fractional                               0.750000   0.250000   0.250000
--------------------------------------------------------------------------------

  Interstitials:

--------------------------------------------------------------------------------
    Specification type     Symbol/Number         x          y          z
--------------------------------------------------------------------------------
    Atom/Fractional         O                0.560000   0.250000   0.250000
--------------------------------------------------------------------------------


  Symmetry reduced region 1 (Relative to defect centre) :

--------------------------------------------------------------------------------
   No.   Atomic       x            y             z       Radius  Multiplicity   
         Label      (Angs)       (Angs)        (Angs)    (Angs)     
--------------------------------------------------------------------------------
     1  O     c      0.0000       0.0000       0.0000    0.0000     1    Defect
     2  Zr    c     -0.3045 *    -1.2689 *     1.2689    0.0000     2          
     3  O     c      0.9644 *     2.5378 *     0.0000 *  0.0000     4          
     4  Zr    c      2.2333 *    -1.2689 *    -1.2689    0.0000     2          
     5  O     c     -1.5735 *    -0.0000 *     2.5378 *  0.0000     4          
     6  Zr    c     -2.8424 *    -1.2689 *    -1.2689    0.0000     2          
     7  O     c      3.5022 *     0.0000       0.0000    0.0000     1          
     8  O     c      0.9644 *     2.5378 *     2.5378    0.0000     2          
     9  O     c      0.9644 *     2.5378 *    -2.5378    0.0000     2          
    10  O     c     -1.5735 *     2.5378 *     2.5378    0.0000     2          
    11  O     c     -1.5735 *     2.5378 *    -2.5378    0.0000     2          
    12  Zr    c     -0.3045 *    -3.8068 *    -1.2689 *  0.0000     4          
    13  O     c     -4.1113 *    -0.0000      -0.0000    0.0000     1          
    14  O     c      3.5022 *     2.5378 *    -0.0000 *  0.0000     4          
    15  Zr    c      2.2333 *    -3.8068 *     1.2689 *  0.0000     4          
    16  O     c     -4.1113 *     0.0000 *     2.5378 *  0.0000     4          
    17  Zr    c     -2.8424 *    -3.8068 *     1.2689 *  0.0000     4          
    18  O     c      3.5022 *     2.5378 *    -2.5378    0.0000     2          
    19  O     c      3.5022 *     2.5378 *     2.5378    0.0000     2          
    20  Zr    c      4.7711 *     1.2689 *    -1.2689    0.0000     2          
    21  O     c      0.9644 *    -0.0000 *     5.0757 *  0.0000     4          
    22  O     c     -1.5735 *    -5.0757 *     0.0000 *  0.0000     4          
    23  Zr    c     -0.3045 *    -3.8068 *     3.8068    0.0000     2          
    24  O     c     -4.1113 *     2.5378 *     2.5378    0.0000     2          
    25  O     c     -4.1113 *    -2.5378 *     2.5378    0.0000     2          
    26  Zr    c     -5.3802 *    -1.2689 *     1.2689    0.0000     2          
    27  O     c      0.9644 *    -5.0757 *     2.5378 *  0.0000     4          
    28  O     c      0.9644 *     5.0757 *     2.5378 *  0.0000     4          
    29  Zr    c      2.2333 *     3.8068 *     3.8068    0.0000     2          
    30  O     c     -1.5735 *     2.5378 *     5.0757 *  0.0000     4          
    31  O     c     -1.5735 *    -2.5378 *     5.0757 *  0.0000     4          
    32  O     c      6.0401 *    -0.0000      -0.0000    0.0000     1          
    33  Zr    c     -2.8424 *     3.8068 *     3.8068    0.0000     2          
    34  O     c      3.5022 *     5.0757 *     0.0000 *  0.0000     4          
    35  Zr    c      4.7711 *     3.8068 *     1.2689 *  0.0000     4          
    36  Zr    c     -0.3045 *    -6.3446 *     1.2689 *  0.0000     4          
    37  O     c     -4.1113 *    -0.0000 *     5.0757 *  0.0000     4          
    38  O     c      6.0401 *     2.5378 *     0.0000 *  0.0000     4          
    39  O     c     -6.6491 *     0.0000       0.0000    0.0000     1          
    40  O     c      3.5022 *     5.0757 *     2.5378 *  0.0000     4          
    41  O     c      3.5022 *    -2.5378 *     5.0757 *  0.0000     4          
    42  Zr    c     -5.3802 *     3.8068 *     1.2689 *  0.0000     4          
    43  Zr    c      2.2333 *     6.3446 *     1.2689 *  0.0000     4          
    44  O     c     -4.1113 *     5.0757 *     2.5378 *  0.0000     4          
    45  O     c     -4.1113 *    -5.0757 *     2.5378 *  0.0000     4          
    46  O     c      6.0401 *     2.5378 *     2.5378    0.0000     2          
    47  O     c      6.0401 *     2.5378 *    -2.5378    0.0000     2          
    48  Zr    c     -2.8424 *    -1.2689 *    -6.3446 *  0.0000     4          
    49  O     c     -6.6491 *    -0.0000 *     2.5378 *  0.0000     4          
    50  Zr    c      4.7711 *    -3.8068 *     3.8068    0.0000     2          
    51  O     c      0.9644 *     5.0757 *     5.0757    0.0000     2          
    52  O     c      0.9644 *    -5.0757 *     5.0757    0.0000     2          
    53  O     c     -1.5735 *     5.0757 *     5.0757    0.0000     2          
    54  O     c     -1.5735 *    -5.0757 *     5.0757    0.0000     2          
    55  Zr    c     -0.3045 *     3.8068 *     6.3446 *  0.0000     4          
    56  Zr    c      7.3090 *    -1.2689 *    -1.2689    0.0000     2          
    57  O     c     -6.6491 *     2.5378 *     2.5378    0.0000     2          
    58  O     c     -6.6491 *    -2.5378 *     2.5378    0.0000     2          
    59  Zr    c     -5.3802 *    -3.8068 *     3.8068    0.0000     2          
    60  O     c      0.9644 *     0.0000 *     7.6135 *  0.0000     4          
    61  Zr    c      2.2333 *    -3.8068 *     6.3446 *  0.0000     4          
    62  O     c     -1.5735 *    -0.0000 *     7.6135 *  0.0000     4          
    63  O     c      6.0401 *     5.0757 *    -0.0000 *  0.0000     4          
    64  Zr    c     -2.8424 *    -6.3446 *     3.8068 *  0.0000     4          
    65  O     c      3.5022 *    -5.0757 *    -5.0757    0.0000     2          
    66  O     c      3.5022 *    -5.0757 *     5.0757    0.0000     2          
    67  Zr    c      4.7711 *    -1.2689 *     6.3446 *  0.0000     4          
    68  O     c      0.9644 *     2.5378 *     7.6135 *  0.0000     4          
    69  O     c      0.9644 *    -2.5378 *     7.6135 *  0.0000     4          
    70  Zr    c     -7.9181 *    -1.2689 *    -1.2689    0.0000     2          
    71  O     c     -1.5735 *    -7.6135 *     2.5378 *  0.0000     4          
    72  O     c     -1.5735 *     2.5378 *     7.6135 *  0.0000     4          
    73  O     c     -4.1113 *     5.0757 *     5.0757    0.0000     2          
    74  O     c     -4.1113 *    -5.0757 *     5.0757    0.0000     2          
    75  O     c      6.0401 *    -2.5378 *    -5.0757 *  0.0000     4          
    76  O     c      6.0401 *     5.0757 *    -2.5378 *  0.0000     4          
    77  Zr    c      7.3090 *     3.8068 *    -1.2689 *  0.0000     4          
    78  O     c     -6.6491 *     5.0757 *     0.0000 *  0.0000     4          
    79  O     c      3.5022 *    -0.0000 *     7.6135 *  0.0000     4          
    80  Zr    c     -5.3802 *    -6.3446 *     1.2689 *  0.0000     4          
    81  O     c      8.5779 *     0.0000       0.0000    0.0000     1          
    82  O     c     -4.1113 *    -7.6135 *     0.0000 *  0.0000     4          
    83  O     c     -6.6491 *     2.5378 *     5.0757 *  0.0000     4          
    84  O     c     -6.6491 *     5.0757 *    -2.5378 *  0.0000     4          
    85  O     c      3.5022 *    -2.5378 *     7.6135 *  0.0000     4          
    86  O     c      3.5022 *     7.6135 *     2.5378 *  0.0000     4          
    87  Zr    c      4.7711 *     6.3446 *     3.8068 *  0.0000     4          
    88  Zr    c     -7.9181 *     3.8068 *    -1.2689 *  0.0000     4          
    89  O     c      8.5779 *     2.5378 *    -0.0000 *  0.0000     4          
    90  Zr    c     -0.3045 *    -6.3446 *     6.3446    0.0000     2          
    91  Zr    c     -0.3045 *     1.2689 *     8.8824 *  0.0000     4          
    92  O     c     -4.1113 *     7.6135 *    -2.5378 *  0.0000     4          
    93  O     c     -4.1113 *     2.5378 *     7.6135 *  0.0000     4          
    94  Zr    c      7.3090 *     3.8068 *     3.8068    0.0000     2          
    95  Zr    c     -5.3802 *    -6.3446 *    -3.8068 *  0.0000     4          
    96  O     c     -9.1870 *    -0.0000      -0.0000    0.0000     1          
    97  O     c      0.9644 *     5.0757 *     7.6135 *  0.0000     4          
    98  O     c      0.9644 *    -7.6135 *     5.0757 *  0.0000     4          
    99  Zr    c      2.2333 *     6.3446 *     6.3446    0.0000     2          
   100  Zr    c      2.2333 *    -8.8824 *     1.2689 *  0.0000     4          
   101  O     c     -1.5735 *     5.0757 *     7.6135 *  0.0000     4          
   102  O     c     -1.5735 *    -5.0757 *     7.6135 *  0.0000     4          
   103  O     c      8.5779 *     2.5378 *     2.5378    0.0000     2          
   104  O     c      8.5779 *     2.5378 *    -2.5378    0.0000     2          
   105  O     c      6.0401 *     5.0757 *     5.0757    0.0000     2          
   106  O     c      6.0401 *    -5.0757 *     5.0757    0.0000     2          
   107  Zr    c     -2.8424 *     6.3446 *     6.3446    0.0000     2          
   108  Zr    c     -2.8424 *    -8.8824 *     1.2689 *  0.0000     4          
   109  O     c     -9.1870 *    -2.5378 *     0.0000 *  0.0000     4          
   110  Zr    c     -7.9181 *     3.8068 *     3.8068    0.0000     2          
   111  Zr    c     -0.3045 *    -8.8824 *     3.8068 *  0.0000     4          
   112  O     c      6.0401 *     7.6135 *     0.0000 *  0.0000     4          
   113  Zr    c      7.3090 *     6.3446 *     1.2689 *  0.0000     4          
   114  O     c     -6.6491 *     5.0757 *     5.0757    0.0000     2          
   115  O     c     -6.6491 *    -5.0757 *     5.0757    0.0000     2          
   116  O     c      3.5022 *     7.6135 *     5.0757 *  0.0000     4          
   117  O     c      3.5022 *    -5.0757 *     7.6135 *  0.0000     4          
   118  O     c     -9.1870 *    -2.5378 *    -2.5378    0.0000     2          
   119  O     c     -9.1870 *    -2.5378 *     2.5378    0.0000     2          
   120  Zr    c      2.2333 *     3.8068 *     8.8824 *  0.0000     4          
   121  O     c      8.5779 *     0.0000 *    -5.0757 *  0.0000     4          
   122  Zr    c      9.8468 *     1.2689 *    -1.2689    0.0000     2          
   123  O     c     -4.1113 *    -7.6135 *     5.0757 *  0.0000     4          
   124  O     c     -4.1113 *     5.0757 *     7.6135 *  0.0000     4          
   125  O     c      6.0401 *     2.5378 *     7.6135 *  0.0000     4          
   126  O     c      6.0401 *    -2.5378 *     7.6135 *  0.0000     4          
   127  Zr    c     -2.8424 *     3.8068 *     8.8824 *  0.0000     4          
   128  O     c     -6.6491 *    -0.0000 *     7.6135 *  0.0000     4          
   129  Zr    c      4.7711 *    -6.3446 *     6.3446    0.0000     2          
   130  Zr    c      4.7711 *     8.8824 *     1.2689 *  0.0000     4          
   131  O     c      0.9644 *    -0.0000 *    10.1514 *  0.0000     4          
   132  Zr    c     -7.9181 *    -6.3446 *    -1.2689 *  0.0000     4          
   133  O     c     -1.5735 *    -0.0000 *    10.1514 *  0.0000     4          
   134  O     c      8.5779 *     5.0757 *     2.5378 *  0.0000     4          
   135  O     c      8.5779 *     5.0757 *    -2.5378 *  0.0000     4          
   136  Zr    c      7.3090 *     6.3446 *    -3.8068 *  0.0000     4          
   137  O     c     -6.6491 *     2.5378 *     7.6135 *  0.0000     4          
   138  O     c     -6.6491 *     2.5378 *    -7.6135 *  0.0000     4          
   139  Zr    c     -5.3802 *    -6.3446 *     6.3446    0.0000     2          
   140  Zr    c     -5.3802 *    -8.8824 *    -1.2689 *  0.0000     4          
   141  O     c     -9.1870 *    -0.0000 *     5.0757 *  0.0000     4          
   142  O     c      0.9644 *     2.5378 *    10.1514 *  0.0000     4          
   143  O     c      0.9644 *    -2.5378 *    10.1514 *  0.0000     4          
   144  O     c     -1.5735 *    -2.5378 *    10.1514 *  0.0000     4          
   145  O     c     -1.5735 *     2.5378 *    10.1514 *  0.0000     4          
   146  Zr    c    -10.4559 *    -1.2689 *     1.2689    0.0000     2          
   147  Zr    c      9.8468 *     3.8068 *     1.2689 *  0.0000     4          
   148  O     c      3.5022 *     0.0000 *    10.1514 *  0.0000     4          
   149  Zr    c      4.7711 *     8.8824 *    -3.8068 *  0.0000     4          
   150  O     c     -9.1870 *    -5.0757 *    -2.5378 *  0.0000     4          
   151  O     c     -9.1870 *    -5.0757 *     2.5378 *  0.0000     4          
   152  O     c      0.9644 *     7.6135 *     7.6135    0.0000     2          
   153  O     c      0.9644 *    -7.6135 *     7.6135    0.0000     2          
   154  Zr    c     -7.9181 *    -3.8068 *     6.3446 *  0.0000     4          
   155  O     c     -1.5735 *     7.6135 *    -7.6135    0.0000     2          
   156  O     c     -1.5735 *     7.6135 *     7.6135    0.0000     2          
   157  Zr    c     -0.3045 *     6.3446 *     8.8824 *  0.0000     4          
   158  O     c     -4.1113 *    -0.0000 *    10.1514 *  0.0000     4          
   159  O     c      6.0401 *    -5.0757 *     7.6135 *  0.0000     4          
   160  O     c      6.0401 *     7.6135 *     5.0757 *  0.0000     4          
   161  O     c      3.5022 *     2.5378 *    10.1514 *  0.0000     4          
   162  O     c      3.5022 *    -2.5378 *    10.1514 *  0.0000     4          
   163  Zr    c     -5.3802 *     3.8068 *    -8.8824 *  0.0000     4          
   164  O     c     11.1157 *    -0.0000      -0.0000    0.0000     1          
   165  Zr    c      2.2333 *    -8.8824 *     6.3446 *  0.0000     4          
   166  O     c      8.5779 *    -5.0757 *    -5.0757    0.0000     2          
   167  O     c      8.5779 *     5.0757 *    -5.0757    0.0000     2          
   168  Zr    c    -10.4559 *     1.2689 *     3.8068 *  0.0000     4          
   169  Zr    c      9.8468 *     3.8068 *    -3.8068    0.0000     2          
   170  O     c     -4.1113 *     2.5378 *   -10.1514 *  0.0000     4          
   171  O     c     -4.1113 *    10.1514 *     2.5378 *  0.0000     4          
   172  Zr    c     -2.8424 *     6.3446 *    -8.8824 *  0.0000     4          
   173  O     c     -6.6491 *    -5.0757 *     7.6135 *  0.0000     4          
   174  O     c     -6.6491 *     5.0757 *     7.6135 *  0.0000     4          
   175  O     c      3.5022 *    -7.6135 *     7.6135    0.0000     2          
   176  O     c      3.5022 *     7.6135 *     7.6135    0.0000     2          
   177  O     c      0.9644 *    -5.0757 *    10.1514 *  0.0000     4          
   178  O     c      0.9644 *     5.0757 *    10.1514 *  0.0000     4          
   179  O     c     11.1157 *     2.5378 *     0.0000 *  0.0000     4          
   180  O     c     -1.5735 *   -10.1514 *     5.0757 *  0.0000     4          
   181  O     c     -1.5735 *     5.0757 *    10.1514 *  0.0000     4          
   182  O     c      8.5779 *     7.6135 *    -0.0000 *  0.0000     4          
   183  Zr    c     -0.3045 *    -1.2689 *    11.4203 *  0.0000     4          
   184  O     c     -4.1113 *     7.6135 *     7.6135    0.0000     2          
   185  O     c     -4.1113 *    -7.6135 *     7.6135    0.0000     2          
   186  Zr    c      7.3090 *     6.3446 *     6.3446    0.0000     2          
   187  Zr    c      7.3090 *    -1.2689 *     8.8824 *  0.0000     4          
   188  O     c     -9.1870 *     5.0757 *     5.0757    0.0000     2          
   189  O     c     -9.1870 *    -5.0757 *     5.0757    0.0000     2          
   190  O     c     11.1157 *     2.5378 *     2.5378    0.0000     2          
   191  O     c     11.1157 *     2.5378 *    -2.5378    0.0000     2          
   192  Zr    c      2.2333 *     1.2689 *    11.4203 *  0.0000     4          
   193  O     c    -11.7248 *    -0.0000       0.0000    0.0000     1          
   194  O     c      8.5779 *    -7.6135 *    -2.5378 *  0.0000     4          
   195  O     c      8.5779 *     7.6135 *    -2.5378 *  0.0000     4          
   196  Zr    c    -10.4559 *     3.8068 *    -3.8068    0.0000     2          
   197  Zr    c      9.8468 *     6.3446 *    -1.2689 *  0.0000     4          
   198  O     c      6.0401 *    -0.0000 *    10.1514 *  0.0000     4          
   199  Zr    c     -2.8424 *     1.2689 *    11.4203 *  0.0000     4          
   200  O     c      3.5022 *    -5.0757 *    10.1514 *  0.0000     4          
   201  O     c      3.5022 *    10.1514 *     5.0757 *  0.0000     4          
   202  Zr    c      4.7711 *     8.8824 *     6.3446 *  0.0000     4          
   203  O     c     -9.1870 *    -7.6135 *     0.0000 *  0.0000     4          
   204  Zr    c     -7.9181 *    -6.3446 *    -6.3446    0.0000     2          
   205  Zr    c     -7.9181 *    -8.8824 *     1.2689 *  0.0000     4          
   206  O     c    -11.7248 *    -0.0000 *     2.5378 *  0.0000     4          
   207  O     s      0.0000       0.0000       0.0000    0.0000     1    Defect
   208  Zr    s     -0.3045 *    -1.2689 *     1.2689    0.0000     2          
   209  O     s      0.9644 *     2.5378 *     0.0000 *  0.0000     4          
   210  Zr    s      2.2333 *    -1.2689 *    -1.2689    0.0000     2          
   211  O     s     -1.5735 *    -0.0000 *     2.5378 *  0.0000     4          
   212  Zr    s     -2.8424 *    -1.2689 *    -1.2689    0.0000     2          
   213  O     s      3.5022 *     0.0000       0.0000    0.0000     1          
   214  O     s      0.9644 *     2.5378 *     2.5378    0.0000     2          
   215  O     s      0.9644 *     2.5378 *    -2.5378    0.0000     2          
   216  O     s     -1.5735 *     2.5378 *     2.5378    0.0000     2          
   217  O     s     -1.5735 *     2.5378 *    -2.5378    0.0000     2          
   218  Zr    s     -0.3045 *    -3.8068 *    -1.2689 *  0.0000     4          
   219  O     s     -4.1113 *    -0.0000      -0.0000    0.0000     1          
   220  O     s      3.5022 *     2.5378 *    -0.0000 *  0.0000     4          
   221  Zr    s      2.2333 *    -3.8068 *     1.2689 *  0.0000     4          
   222  O     s     -4.1113 *     0.0000 *     2.5378 *  0.0000     4          
   223  Zr    s     -2.8424 *    -3.8068 *     1.2689 *  0.0000     4          
   224  O     s      3.5022 *     2.5378 *    -2.5378    0.0000     2          
   225  O     s      3.5022 *     2.5378 *     2.5378    0.0000     2          
   226  Zr    s      4.7711 *     1.2689 *    -1.2689    0.0000     2          
   227  O     s      0.9644 *    -0.0000 *     5.0757 *  0.0000     4          
   228  O     s     -1.5735 *    -5.0757 *     0.0000 *  0.0000     4          
   229  Zr    s     -0.3045 *    -3.8068 *     3.8068    0.0000     2          
   230  O     s     -4.1113 *     2.5378 *     2.5378    0.0000     2          
   231  O     s     -4.1113 *    -2.5378 *     2.5378    0.0000     2          
   232  Zr    s     -5.3802 *    -1.2689 *     1.2689    0.0000     2          
   233  O     s      0.9644 *    -5.0757 *     2.5378 *  0.0000     4          
   234  O     s      0.9644 *     5.0757 *     2.5378 *  0.0000     4          
   235  Zr    s      2.2333 *     3.8068 *     3.8068    0.0000     2          
   236  O     s     -1.5735 *     2.5378 *     5.0757 *  0.0000     4          
   237  O     s     -1.5735 *    -2.5378 *     5.0757 *  0.0000     4          
   238  O     s      6.0401 *    -0.0000      -0.0000    0.0000     1          
   239  Zr    s     -2.8424 *     3.8068 *     3.8068    0.0000     2          
   240  O     s      3.5022 *     5.0757 *     0.0000 *  0.0000     4          
   241  Zr    s      4.7711 *     3.8068 *     1.2689 *  0.0000     4          
   242  Zr    s     -0.3045 *    -6.3446 *     1.2689 *  0.0000     4          
   243  O     s     -4.1113 *    -0.0000 *     5.0757 *  0.0000     4          
   244  O     s      6.0401 *     2.5378 *     0.0000 *  0.0000     4          
   245  O     s     -6.6491 *     0.0000       0.0000    0.0000     1          
   246  O     s      3.5022 *     5.0757 *     2.5378 *  0.0000     4          
   247  O     s      3.5022 *    -2.5378 *     5.0757 *  0.0000     4          
   248  Zr    s     -5.3802 *     3.8068 *     1.2689 *  0.0000     4          
   249  Zr    s      2.2333 *     6.3446 *     1.2689 *  0.0000     4          
   250  O     s     -4.1113 *     5.0757 *     2.5378 *  0.0000     4          
   251  O     s     -4.1113 *    -5.0757 *     2.5378 *  0.0000     4          
   252  O     s      6.0401 *     2.5378 *     2.5378    0.0000     2          
   253  O     s      6.0401 *     2.5378 *    -2.5378    0.0000     2          
   254  Zr    s     -2.8424 *    -1.2689 *    -6.3446 *  0.0000     4          
   255  O     s     -6.6491 *    -0.0000 *     2.5378 *  0.0000     4          
   256  Zr    s      4.7711 *    -3.8068 *     3.8068    0.0000     2          
   257  O     s      0.9644 *     5.0757 *     5.0757    0.0000     2          
   258  O     s      0.9644 *    -5.0757 *     5.0757    0.0000     2          
   259  O     s     -1.5735 *     5.0757 *     5.0757    0.0000     2          
   260  O     s     -1.5735 *    -5.0757 *     5.0757    0.0000     2          
   261  Zr    s     -0.3045 *     3.8068 *     6.3446 *  0.0000     4          
   262  Zr    s      7.3090 *    -1.2689 *    -1.2689    0.0000     2          
   263  O     s     -6.6491 *     2.5378 *     2.5378    0.0000     2          
   264  O     s     -6.6491 *    -2.5378 *     2.5378    0.0000     2          
   265  Zr    s     -5.3802 *    -3.8068 *     3.8068    0.0000     2          
   266  O     s      0.9644 *     0.0000 *     7.6135 *  0.0000     4          
   267  Zr    s      2.2333 *    -3.8068 *     6.3446 *  0.0000     4          
   268  O     s     -1.5735 *    -0.0000 *     7.6135 *  0.0000     4          
   269  O     s      6.0401 *     5.0757 *    -0.0000 *  0.0000     4          
   270  Zr    s     -2.8424 *    -6.3446 *     3.8068 *  0.0000     4          
   271  O     s      3.5022 *    -5.0757 *    -5.0757    0.0000     2          
   272  O     s      3.5022 *    -5.0757 *     5.0757    0.0000     2          
   273  Zr    s      4.7711 *    -1.2689 *     6.3446 *  0.0000     4          
   274  O     s      0.9644 *     2.5378 *     7.6135 *  0.0000     4          
   275  O     s      0.9644 *    -2.5378 *     7.6135 *  0.0000     4          
   276  Zr    s     -7.9181 *    -1.2689 *    -1.2689    0.0000     2          
   277  O     s     -1.5735 *    -7.6135 *     2.5378 *  0.0000     4          
   278  O     s     -1.5735 *     2.5378 *     7.6135 *  0.0000     4          
   279  O     s     -4.1113 *     5.0757 *     5.0757    0.0000     2          
   280  O     s     -4.1113 *    -5.0757 *     5.0757    0.0000     2          
   281  O     s      6.0401 *    -2.5378 *    -5.0757 *  0.0000     4          
   282  O     s      6.0401 *     5.0757 *    -2.5378 *  0.0000     4          
   283  Zr    s      7.3090 *     3.8068 *    -1.2689 *  0.0000     4          
   284  O     s     -6.6491 *     5.0757 *     0.0000 *  0.0000     4          
   285  O     s      3.5022 *    -0.0000 *     7.6135 *  0.0000     4          
   286  Zr    s     -5.3802 *    -6.3446 *     1.2689 *  0.0000     4          
   287  O     s      8.5779 *     0.0000       0.0000    0.0000     1          
   288  O     s     -4.1113 *    -7.6135 *     0.0000 *  0.0000     4          
   289  O     s     -6.6491 *     2.5378 *     5.0757 *  0.0000     4          
   290  O     s     -6.6491 *     5.0757 *    -2.5378 *  0.0000     4          
   291  O     s      3.5022 *    -2.5378 *     7.6135 *  0.0000     4          
   292  O     s      3.5022 *     7.6135 *     2.5378 *  0.0000     4          
   293  Zr    s      4.7711 *     6.3446 *     3.8068 *  0.0000     4          
   294  Zr    s     -7.9181 *     3.8068 *    -1.2689 *  0.0000     4          
   295  O     s      8.5779 *     2.5378 *    -0.0000 *  0.0000     4          
   296  Zr    s     -0.3045 *    -6.3446 *     6.3446    0.0000     2          
   297  Zr    s     -0.3045 *     1.2689 *     8.8824 *  0.0000     4          
   298  O     s     -4.1113 *     7.6135 *    -2.5378 *  0.0000     4          
   299  O     s     -4.1113 *     2.5378 *     7.6135 *  0.0000     4          
   300  Zr    s      7.3090 *     3.8068 *     3.8068    0.0000     2          
   301  Zr    s     -5.3802 *    -6.3446 *    -3.8068 *  0.0000     4          
   302  O     s     -9.1870 *    -0.0000      -0.0000    0.0000     1          
   303  O     s      0.9644 *     5.0757 *     7.6135 *  0.0000     4          
   304  O     s      0.9644 *    -7.6135 *     5.0757 *  0.0000     4          
   305  Zr    s      2.2333 *     6.3446 *     6.3446    0.0000     2          
   306  Zr    s      2.2333 *    -8.8824 *     1.2689 *  0.0000     4          
   307  O     s     -1.5735 *     5.0757 *     7.6135 *  0.0000     4          
   308  O     s     -1.5735 *    -5.0757 *     7.6135 *  0.0000     4          
   309  O     s      8.5779 *     2.5378 *     2.5378    0.0000     2          
   310  O     s      8.5779 *     2.5378 *    -2.5378    0.0000     2          
   311  O     s      6.0401 *     5.0757 *     5.0757    0.0000     2          
   312  O     s      6.0401 *    -5.0757 *     5.0757    0.0000     2          
   313  Zr    s     -2.8424 *     6.3446 *     6.3446    0.0000     2          
   314  Zr    s     -2.8424 *    -8.8824 *     1.2689 *  0.0000     4          
   315  O     s     -9.1870 *    -2.5378 *     0.0000 *  0.0000     4          
   316  Zr    s     -7.9181 *     3.8068 *     3.8068    0.0000     2          
   317  Zr    s     -0.3045 *    -8.8824 *     3.8068 *  0.0000     4          
   318  O     s      6.0401 *     7.6135 *     0.0000 *  0.0000     4          
   319  Zr    s      7.3090 *     6.3446 *     1.2689 *  0.0000     4          
   320  O     s     -6.6491 *     5.0757 *     5.0757    0.0000     2          
   321  O     s     -6.6491 *    -5.0757 *     5.0757    0.0000     2          
   322  O     s      3.5022 *     7.6135 *     5.0757 *  0.0000     4          
   323  O     s      3.5022 *    -5.0757 *     7.6135 *  0.0000     4          
   324  O     s     -9.1870 *    -2.5378 *    -2.5378    0.0000     2          
   325  O     s     -9.1870 *    -2.5378 *     2.5378    0.0000     2          
   326  Zr    s      2.2333 *     3.8068 *     8.8824 *  0.0000     4          
   327  O     s      8.5779 *     0.0000 *    -5.0757 *  0.0000     4          
   328  Zr    s      9.8468 *     1.2689 *    -1.2689    0.0000     2          
   329  O     s     -4.1113 *    -7.6135 *     5.0757 *  0.0000     4          
   330  O     s     -4.1113 *     5.0757 *     7.6135 *  0.0000     4          
   331  O     s      6.0401 *     2.5378 *     7.6135 *  0.0000     4          
   332  O     s      6.0401 *    -2.5378 *     7.6135 *  0.0000     4          
   333  Zr    s     -2.8424 *     3.8068 *     8.8824 *  0.0000     4          
   334  O     s     -6.6491 *    -0.0000 *     7.6135 *  0.0000     4          
   335  Zr    s      4.7711 *    -6.3446 *     6.3446    0.0000     2          
   336  Zr    s      4.7711 *     8.8824 *     1.2689 *  0.0000     4          
   337  O     s      0.9644 *    -0.0000 *    10.1514 *  0.0000     4          
   338  Zr    s     -7.9181 *    -6.3446 *    -1.2689 *  0.0000     4          
   339  O     s     -1.5735 *    -0.0000 *    10.1514 *  0.0000     4          
   340  O     s      8.5779 *     5.0757 *     2.5378 *  0.0000     4          
   341  O     s      8.5779 *     5.0757 *    -2.5378 *  0.0000     4          
   342  Zr    s      7.3090 *     6.3446 *    -3.8068 *  0.0000     4          
   343  O     s     -6.6491 *     2.5378 *     7.6135 *  0.0000     4          
   344  O     s     -6.6491 *     2.5378 *    -7.6135 *  0.0000     4          
   345  Zr    s     -5.3802 *    -6.3446 *     6.3446    0.0000     2          
   346  Zr    s     -5.3802 *    -8.8824 *    -1.2689 *  0.0000     4          
   347  O     s     -9.1870 *    -0.0000 *     5.0757 *  0.0000     4          
   348  O     s      0.9644 *     2.5378 *    10.1514 *  0.0000     4          
   349  O     s      0.9644 *    -2.5378 *    10.1514 *  0.0000     4          
   350  O     s     -1.5735 *    -2.5378 *    10.1514 *  0.0000     4          
   351  O     s     -1.5735 *     2.5378 *    10.1514 *  0.0000     4          
   352  Zr    s    -10.4559 *    -1.2689 *     1.2689    0.0000     2          
   353  Zr    s      9.8468 *     3.8068 *     1.2689 *  0.0000     4          
   354  O     s      3.5022 *     0.0000 *    10.1514 *  0.0000     4          
   355  Zr    s      4.7711 *     8.8824 *    -3.8068 *  0.0000     4          
   356  O     s     -9.1870 *    -5.0757 *    -2.5378 *  0.0000     4          
   357  O     s     -9.1870 *    -5.0757 *     2.5378 *  0.0000     4          
   358  O     s      0.9644 *     7.6135 *     7.6135    0.0000     2          
   359  O     s      0.9644 *    -7.6135 *     7.6135    0.0000     2          
   360  Zr    s     -7.9181 *    -3.8068 *     6.3446 *  0.0000     4          
   361  O     s     -1.5735 *     7.6135 *    -7.6135    0.0000     2          
   362  O     s     -1.5735 *     7.6135 *     7.6135    0.0000     2          
   363  Zr    s     -0.3045 *     6.3446 *     8.8824 *  0.0000     4          
   364  O     s     -4.1113 *    -0.0000 *    10.1514 *  0.0000     4          
   365  O     s      6.0401 *    -5.0757 *     7.6135 *  0.0000     4          
   366  O     s      6.0401 *     7.6135 *     5.0757 *  0.0000     4          
   367  O     s      3.5022 *     2.5378 *    10.1514 *  0.0000     4          
   368  O     s      3.5022 *    -2.5378 *    10.1514 *  0.0000     4          
   369  Zr    s     -5.3802 *     3.8068 *    -8.8824 *  0.0000     4          
   370  O     s     11.1157 *    -0.0000      -0.0000    0.0000     1          
   371  Zr    s      2.2333 *    -8.8824 *     6.3446 *  0.0000     4          
   372  O     s      8.5779 *    -5.0757 *    -5.0757    0.0000     2          
   373  O     s      8.5779 *     5.0757 *    -5.0757    0.0000     2          
   374  Zr    s    -10.4559 *     1.2689 *     3.8068 *  0.0000     4          
   375  Zr    s      9.8468 *     3.8068 *    -3.8068    0.0000     2          
   376  O     s     -4.1113 *     2.5378 *   -10.1514 *  0.0000     4          
   377  O     s     -4.1113 *    10.1514 *     2.5378 *  0.0000     4          
   378  Zr    s     -2.8424 *     6.3446 *    -8.8824 *  0.0000     4          
   379  O     s     -6.6491 *    -5.0757 *     7.6135 *  0.0000     4          
   380  O     s     -6.6491 *     5.0757 *     7.6135 *  0.0000     4          
   381  O     s      3.5022 *    -7.6135 *     7.6135    0.0000     2          
   382  O     s      3.5022 *     7.6135 *     7.6135    0.0000     2          
   383  O     s      0.9644 *    -5.0757 *    10.1514 *  0.0000     4          
   384  O     s      0.9644 *     5.0757 *    10.1514 *  0.0000     4          
   385  O     s     11.1157 *     2.5378 *     0.0000 *  0.0000     4          
   386  O     s     -1.5735 *   -10.1514 *     5.0757 *  0.0000     4          
   387  O     s     -1.5735 *     5.0757 *    10.1514 *  0.0000     4          
   388  O     s      8.5779 *     7.6135 *    -0.0000 *  0.0000     4          
   389  Zr    s     -0.3045 *    -1.2689 *    11.4203 *  0.0000     4          
   390  O     s     -4.1113 *     7.6135 *     7.6135    0.0000     2          
   391  O     s     -4.1113 *    -7.6135 *     7.6135    0.0000     2          
   392  Zr    s      7.3090 *     6.3446 *     6.3446    0.0000     2          
   393  Zr    s      7.3090 *    -1.2689 *     8.8824 *  0.0000     4          
   394  O     s     -9.1870 *     5.0757 *     5.0757    0.0000     2          
   395  O     s     -9.1870 *    -5.0757 *     5.0757    0.0000     2          
   396  O     s     11.1157 *     2.5378 *     2.5378    0.0000     2          
   397  O     s     11.1157 *     2.5378 *    -2.5378    0.0000     2          
   398  Zr    s      2.2333 *     1.2689 *    11.4203 *  0.0000     4          
   399  O     s    -11.7248 *    -0.0000       0.0000    0.0000     1          
   400  O     s      8.5779 *    -7.6135 *    -2.5378 *  0.0000     4          
   401  O     s      8.5779 *     7.6135 *    -2.5378 *  0.0000     4          
   402  Zr    s    -10.4559 *     3.8068 *    -3.8068    0.0000     2          
   403  Zr    s      9.8468 *     6.3446 *    -1.2689 *  0.0000     4          
   404  O     s      6.0401 *    -0.0000 *    10.1514 *  0.0000     4          
   405  Zr    s     -2.8424 *     1.2689 *    11.4203 *  0.0000     4          
   406  O     s      3.5022 *    -5.0757 *    10.1514 *  0.0000     4          
   407  O     s      3.5022 *    10.1514 *     5.0757 *  0.0000     4          
   408  Zr    s      4.7711 *     8.8824 *     6.3446 *  0.0000     4          
   409  O     s     -9.1870 *    -7.6135 *     0.0000 *  0.0000     4          
   410  Zr    s     -7.9181 *    -6.3446 *    -6.3446    0.0000     2          
   411  Zr    s     -7.9181 *    -8.8824 *     1.2689 *  0.0000     4          
   412  O     s    -11.7248 *    -0.0000 *     2.5378 *  0.0000     4          
--------------------------------------------------------------------------------


  Constraints on symmetry reduced coordinates :

--------------------------------------------------------------------------------
  Constraint no.      Unconstrained     Constrained    Coefficient    
                         Variable         Variable
--------------------------------------------------------------------------------
           1                 2 y             2 z        -1.00000
           2                 4 y             4 z         1.00000
           3                 6 y             6 z         1.00000
           4                 8 y             8 z         1.00000
           5                 9 y             9 z        -1.00000
           6                10 y            10 z         1.00000
           7                11 y            11 z        -1.00000
           8                18 y            18 z        -1.00000
           9                19 y            19 z         1.00000
          10                20 y            20 z        -1.00000
          11                23 y            23 z        -1.00000
          12                24 y            24 z         1.00000
          13                25 y            25 z        -1.00000
          14                26 y            26 z        -1.00000
          15                29 y            29 z         1.00000
          16                33 y            33 z         1.00000
          17                46 y            46 z         1.00000
          18                47 y            47 z        -1.00000
          19                50 y            50 z        -1.00000
          20                51 y            51 z         1.00000
          21                52 y            52 z        -1.00000
          22                53 y            53 z         1.00000
          23                54 y            54 z        -1.00000
          24                56 y            56 z         1.00000
          25                57 y            57 z         1.00000
          26                58 y            58 z        -1.00000
          27                59 y            59 z        -1.00000
          28                65 y            65 z         1.00000
          29                66 y            66 z        -1.00000
          30                70 y            70 z         1.00000
          31                73 y            73 z         1.00000
          32                74 y            74 z        -1.00000
          33                90 y            90 z        -1.00000
          34                94 y            94 z         1.00000
          35                99 y            99 z         1.00000
          36               103 y           103 z         1.00000
          37               104 y           104 z        -1.00000
          38               105 y           105 z         1.00000
          39               106 y           106 z        -1.00000
          40               107 y           107 z         1.00000
          41               110 y           110 z         1.00000
          42               114 y           114 z         1.00000
          43               115 y           115 z        -1.00000
          44               118 y           118 z         1.00000
          45               119 y           119 z        -1.00000
          46               122 y           122 z        -1.00000
          47               129 y           129 z        -1.00000
          48               139 y           139 z        -1.00000
          49               146 y           146 z        -1.00000
          50               152 y           152 z         1.00000
          51               153 y           153 z        -1.00000
          52               155 y           155 z        -1.00000
          53               156 y           156 z         1.00000
          54               166 y           166 z         1.00000
          55               167 y           167 z        -1.00000
          56               169 y           169 z        -1.00000
          57               175 y           175 z        -1.00000
          58               176 y           176 z         1.00000
          59               184 y           184 z         1.00000
          60               185 y           185 z        -1.00000
          61               186 y           186 z         1.00000
          62               188 y           188 z         1.00000
          63               189 y           189 z        -1.00000
          64               190 y           190 z         1.00000
          65               191 y           191 z        -1.00000
          66               196 y           196 z        -1.00000
          67               204 y           204 z         1.00000
          68               208 y           208 z        -1.00000
          69               210 y           210 z         1.00000
          70               212 y           212 z         1.00000
          71               214 y           214 z         1.00000
          72               215 y           215 z        -1.00000
          73               216 y           216 z         1.00000
          74               217 y           217 z        -1.00000
          75               224 y           224 z        -1.00000
          76               225 y           225 z         1.00000
          77               226 y           226 z        -1.00000
          78               229 y           229 z        -1.00000
          79               230 y           230 z         1.00000
          80               231 y           231 z        -1.00000
          81               232 y           232 z        -1.00000
          82               235 y           235 z         1.00000
          83               239 y           239 z         1.00000
          84               252 y           252 z         1.00000
          85               253 y           253 z        -1.00000
          86               256 y           256 z        -1.00000
          87               257 y           257 z         1.00000
          88               258 y           258 z        -1.00000
          89               259 y           259 z         1.00000
          90               260 y           260 z        -1.00000
          91               262 y           262 z         1.00000
          92               263 y           263 z         1.00000
          93               264 y           264 z        -1.00000
          94               265 y           265 z        -1.00000
          95               271 y           271 z         1.00000
          96               272 y           272 z        -1.00000
          97               276 y           276 z         1.00000
          98               279 y           279 z         1.00000
          99               280 y           280 z        -1.00000
         100               296 y           296 z        -1.00000
         101               300 y           300 z         1.00000
         102               305 y           305 z         1.00000
         103               309 y           309 z         1.00000
         104               310 y           310 z        -1.00000
         105               311 y           311 z         1.00000
         106               312 y           312 z        -1.00000
         107               313 y           313 z         1.00000
         108               316 y           316 z         1.00000
         109               320 y           320 z         1.00000
         110               321 y           321 z        -1.00000
         111               324 y           324 z         1.00000
         112               325 y           325 z        -1.00000
         113               328 y           328 z        -1.00000
         114               335 y           335 z        -1.00000
         115               345 y           345 z        -1.00000
         116               352 y           352 z        -1.00000
         117               358 y           358 z         1.00000
         118               359 y           359 z        -1.00000
         119               361 y           361 z        -1.00000
         120               362 y           362 z         1.00000
         121               372 y           372 z         1.00000
         122               373 y           373 z        -1.00000
         123               375 y           375 z        -1.00000
         124               381 y           381 z        -1.00000
         125               382 y           382 z         1.00000
         126               390 y           390 z         1.00000
         127               391 y           391 z        -1.00000
         128               392 y           392 z         1.00000
         129               394 y           394 z         1.00000
         130               395 y           395 z        -1.00000
         131               396 y           396 z         1.00000
         132               397 y           397 z        -1.00000
         133               402 y           402 z        -1.00000
         134               410 y           410 z         1.00000
--------------------------------------------------------------------------------


  Components of defect energy : 

--------------------------------------------------------------------------------
  Region 1 - region 1                   =     40.34511431 eV
  Region 1 - region 2a (unrelaxed)      =     -9.15295923 eV
  Region 1 - 2a (relaxed - correction)  =     -2.31836758 eV
  Region 1 (Total)                      =     28.87378751 eV
  Region 2a                             =      1.15921015 eV
  Region 2b                             =     -1.15646752 eV
--------------------------------------------------------------------------------
  Total defect energy                   =     28.87653013 eV
--------------------------------------------------------------------------------

  Largest displacement in region 2 =   0.0052 Angstroms


  Number of variables =     1064

  Maximum number of calculations  =        1000
  Maximum Hessian update interval =          10
  Maximum step size               =   1.0000000
  Maximum parameter tolerance     =   0.0000100
  Maximum function  tolerance     =   0.0000100
  Maximum gradient  tolerance     =   0.0010000

  Symmetry adapted optimisation

  Symmetry to be used for second derivatives

  Newton-Raphson optimiser to be used

  BFGS hessian update to be used

  Lower half triangular hessian to be used

  Start of defect optimisation :

  Cycle:      0 Defect Energy:  28.876530  Gnorm:     0.083720  CPU:    5.035
  ** Hessian calculated **
  Cycle:      1 Defect Energy:  21.050876  Gnorm:     0.032236  CPU:   15.301
  Cycle:      2 Defect Energy:  16.968205  Gnorm:     0.016705  CPU:   24.561
  Cycle:      3 Defect Energy:  16.473283  Gnorm:     0.012935  CPU:   30.711
  Cycle:      4 Defect Energy:  15.885729  Gnorm:     0.008260  CPU:   39.972
  Cycle:      5 Defect Energy:  15.517340  Gnorm:     0.007192  CPU:   47.696
  Cycle:      6 Defect Energy:  15.374752  Gnorm:     0.007095  CPU:   55.415
  Cycle:      7 Defect Energy:  15.239705  Gnorm:     0.004914  CPU:   63.073
  Cycle:      8 Defect Energy:  15.123483  Gnorm:     0.004028  CPU:   70.750
  Cycle:      9 Defect Energy:  15.040294  Gnorm:     0.003966  CPU:   78.452
  Cycle:     10 Defect Energy:  14.953637  Gnorm:     0.003395  CPU:   86.209
  ** Hessian calculated **
  Cycle:     11 Defect Energy:  14.907864  Gnorm:     0.003149  CPU:   93.667
  Cycle:     12 Defect Energy:  14.846414  Gnorm:     0.002788  CPU:   95.340
  Cycle:     13 Defect Energy:  14.770588  Gnorm:     0.002274  CPU:   96.987
  Cycle:     14 Defect Energy:  14.694750  Gnorm:     0.001649  CPU:   98.605
  Cycle:     15 Defect Energy:  14.657197  Gnorm:     0.001247  CPU:  100.220
  Cycle:     16 Defect Energy:  14.638226  Gnorm:     0.000961  CPU:  101.859
  Cycle:     17 Defect Energy:  14.628450  Gnorm:     0.000757  CPU:  103.522
  Cycle:     18 Defect Energy:  14.623295  Gnorm:     0.000594  CPU:  105.188
  Cycle:     19 Defect Energy:  14.620525  Gnorm:     0.000473  CPU:  106.829
  Cycle:     20 Defect Energy:  14.619104  Gnorm:     0.000364  CPU:  108.504
  ** Hessian calculated **
  Cycle:     21 Defect Energy:  14.618244  Gnorm:     0.000263  CPU:  116.006
  Cycle:     22 Defect Energy:  14.617780  Gnorm:     0.000195  CPU:  117.656
  Cycle:     23 Defect Energy:  14.617559  Gnorm:     0.000141  CPU:  119.342
  Cycle:     24 Defect Energy:  14.617488  Gnorm:     0.000101  CPU:  121.006
  Cycle:     25 Defect Energy:  14.617471  Gnorm:     0.000072  CPU:  122.677
  Cycle:     26 Defect Energy:  14.617445  Gnorm:     0.000051  CPU:  124.310
  Cycle:     27 Defect Energy:  14.617469  Gnorm:     0.000036  CPU:  125.925


  **** Optimisation achieved ****


  Final defect energy  =       14.61746236
  Final defect Gnorm   =        0.00002512

  Components of defect energy : 

--------------------------------------------------------------------------------
  Region 1 - region 1                   =     33.05110015 eV
  Region 1 - region 2a (unrelaxed)      =    -16.24848404 eV
  Region 1 - 2a (relaxed - correction)  =     -2.05798541 eV
  Region 1 (Total)                      =     14.74463070 eV
  Region 2a                             =      1.02890166 eV
  Region 2b                             =     -1.15607000 eV
--------------------------------------------------------------------------------
  Total defect energy                   =     14.61746236 eV
--------------------------------------------------------------------------------

  Largest displacement in region 2 =   0.0052 Angstroms

  Final coordinates of region 1 :

--------------------------------------------------------------------------------
   No.  Atomic        x           y           z          Radius      Charge
        Label       (Angs)      (Angs)      (Angs)       (Angs)       (e) 
--------------------------------------------------------------------------------
     1  O     c     2.842383    1.268921    1.268921    0.000000    0.077000
     2  Zr    c     2.572663   -0.041353    2.579194    0.000000    2.650000
     3  Zr    c     2.572663    2.579194   -0.041353    0.000000    2.650000
     4  O     c     3.892826    3.747730    1.220568    0.000000    0.077000
     5  O     c     3.892826    1.220568    3.747730    0.000000    0.077000
     6  O     c     3.892826    1.317273   -1.209888    0.000000    0.077000
     7  O     c     3.892826   -1.209888    1.317273    0.000000    0.077000
     8  Zr    c     5.120642   -0.042314   -0.042314    0.000000    2.650000
     9  Zr    c     5.120642    2.580156    2.580156    0.000000    2.650000
    10  O     c     1.276018    1.272792    3.690799    0.000000    0.077000
    11  O     c     1.276018    3.690799    1.272792    0.000000    0.077000
    12  O     c     1.276018   -1.152957    1.265050    0.000000    0.077000
    13  O     c     1.276018    1.265050   -1.152957    0.000000    0.077000
    14  Zr    c    -0.031550   -0.040974   -0.040974    0.000000    2.650000
    15  Zr    c    -0.031550    2.578816    2.578816    0.000000    2.650000
    16  O     c     5.763716    1.268921    1.268921    0.000000    0.077000
    17  O     c     3.773627    3.793733    3.793733    0.000000    0.077000
    18  O     c     3.773627   -1.255892   -1.255892    0.000000    0.077000
    19  O     c     3.780652    3.851629   -1.313787    0.000000    0.077000
    20  O     c     3.780652   -1.313787    3.851629    0.000000    0.077000
    21  O     c     1.255942    3.841076    3.841076    0.000000    0.077000
    22  O     c     1.255942   -1.303234   -1.303234    0.000000    0.077000
    23  O     c     1.249276    3.834290   -1.296448    0.000000    0.077000
    24  O     c     1.249276   -1.296448    3.834290    0.000000    0.077000
    25  Zr    c     2.540461   -2.558967   -0.026462    0.000000    2.650000
    26  Zr    c     2.540461   -0.026462   -2.558967    0.000000    2.650000
    27  Zr    c     2.540461    2.564304    5.096808    0.000000    2.650000
    28  Zr    c     2.540461    5.096808    2.564304    0.000000    2.650000
    29  O     c    -0.299303    1.268921    1.268921    0.000000    0.077000
    30  O     c     6.452765    3.777120    1.318074    0.000000    0.077000
    31  O     c     6.452765    1.318074    3.777120    0.000000    0.077000
    32  O     c     6.452765    1.219768   -1.239279    0.000000    0.077000
    33  O     c     6.452765   -1.239279    1.219768    0.000000    0.077000
    34  Zr    c     5.086545   -2.556307    2.553046    0.000000    2.650000
    35  Zr    c     5.086545    5.094149   -0.015204    0.000000    2.650000
    36  Zr    c     5.086545    2.553046   -2.556307    0.000000    2.650000
    37  Zr    c     5.086545   -0.015204    5.094149    0.000000    2.650000
    38  O     c    -1.342644    1.310469    3.742996    0.000000    0.077000
    39  O     c    -1.342644    3.742996    1.310469    0.000000    0.077000
    40  O     c    -1.342644   -1.205154    1.227373    0.000000    0.077000
    41  O     c    -1.342644    1.227373   -1.205154    0.000000    0.077000
    42  Zr    c    -0.004592   -2.559464    2.565037    0.000000    2.650000
    43  Zr    c    -0.004592    2.565037   -2.559464    0.000000    2.650000
    44  Zr    c    -0.004592   -0.027195    5.097305    0.000000    2.650000
    45  Zr    c    -0.004592    5.097305   -0.027195    0.000000    2.650000
    46  O     c     6.310287    3.782860   -1.245018    0.000000    0.077000
    47  O     c     6.310287   -1.245018    3.782860    0.000000    0.077000
    48  O     c     6.297883    3.836274    3.836274    0.000000    0.077000
    49  O     c     6.297883   -1.298432   -1.298432    0.000000    0.077000
    50  Zr    c     7.638048    2.568740   -0.030898    0.000000    2.650000
    51  Zr    c     7.638048   -0.030898    2.568740    0.000000    2.650000
    52  O     c     3.782569    1.277583    6.304182    0.000000    0.077000
    53  O     c     3.782569    6.304182    1.277583    0.000000    0.077000
    54  O     c     3.782569   -3.766340    1.260259    0.000000    0.077000
    55  O     c     3.782569    1.260259   -3.766340    0.000000    0.077000
    56  O     c     1.254355   -3.724511    1.268839    0.000000    0.077000
    57  O     c     1.254355    1.268839   -3.724511    0.000000    0.077000
    58  O     c     1.254355    1.269003    6.262352    0.000000    0.077000
    59  O     c     1.254355    6.262352    1.269003    0.000000    0.077000
    60  Zr    c     2.542078   -2.560774    5.098616    0.000000    2.650000
    61  Zr    c     2.542078    5.098616   -2.560774    0.000000    2.650000
    62  O     c    -1.274599    3.845109    3.845109    0.000000    0.077000
    63  O     c    -1.274599   -1.307267   -1.307267    0.000000    0.077000
    64  O     c    -1.270798   -1.262417    3.800259    0.000000    0.077000
    65  O     c    -1.270798    3.800259   -1.262417    0.000000    0.077000
    66  Zr    c    -2.585839   -0.046009    2.583851    0.000000    2.650000
    67  Zr    c    -2.585839    2.583851   -0.046009    0.000000    2.650000
    68  O     c     3.817995   -3.833439    3.793525    0.000000    0.077000
    69  O     c     3.817995    3.793525   -3.833439    0.000000    0.077000
    70  O     c     3.817995   -1.255683    6.371281    0.000000    0.077000
    71  O     c     3.817995    6.371281   -1.255683    0.000000    0.077000
    72  O     c     3.811382    6.327017    3.805357    0.000000    0.077000
    73  O     c     3.811382    3.805357    6.327017    0.000000    0.077000
    74  O     c     3.811382   -1.267515   -3.789175    0.000000    0.077000
    75  O     c     3.811382   -3.789175   -1.267515    0.000000    0.077000
    76  Zr    c     5.087286    5.096131    5.096131    0.000000    2.650000
    77  Zr    c     5.087286   -2.558289   -2.558289    0.000000    2.650000
    78  O     c     1.283396    3.793653    6.361422    0.000000    0.077000
    79  O     c     1.283396    6.361422    3.793653    0.000000    0.077000
    80  O     c     1.283396   -3.823580   -1.255811    0.000000    0.077000
    81  O     c     1.283396   -1.255811   -3.823580    0.000000    0.077000
    82  O     c     1.271647   -1.257271    6.355754    0.000000    0.077000
[...]
    332 y         -1.268921     -1.267381     0.001540    Cartesian   -0.12
    332 z          8.882446      8.886410     0.003964    Cartesian    0.04
    333 x          0.000000      0.000156     0.000156    Cartesian    0.00
    333 y          5.075684      5.074023    -0.001661    Cartesian   -0.03
    333 z         10.151367     10.156062     0.004695    Cartesian    0.05
    334 x         -3.806763     -3.798942     0.007820    Cartesian   -0.21
    334 y          1.268921      1.269366     0.000445    Cartesian    0.04
    334 z          8.882446      8.872784    -0.009662    Cartesian   -0.11
    335 x          7.613525      7.615214     0.001689    Cartesian    0.02
    335 y         -5.075684     -5.080183    -0.004500    Cartesian    0.09
    335 z          7.613525      7.618025     0.004500    Cartesian    0.06
    336 x          7.613525      7.614121     0.000596    Cartesian    0.01
    336 y         10.151367     10.154341     0.002974    Cartesian    0.03
    336 z          2.537842      2.537827    -0.000015    Cartesian   -0.00
    337 x          3.806763      3.802609    -0.004154    Cartesian   -0.11
    337 y          1.268921      1.269298     0.000377    Cartesian    0.03
    337 z         11.420288     11.409308    -0.010980    Cartesian   -0.10
    338 x         -5.075684     -5.080815    -0.005131    Cartesian    0.10
    338 y         -5.075684     -5.082081    -0.006397    Cartesian    0.13
    338 z          0.000000     -0.000932    -0.000932    Cartesian    0.00
    339 x          1.268921      1.265824    -0.003097    Cartesian   -0.24
    339 y          1.268921      1.268442    -0.000479    Cartesian   -0.04
    339 z         11.420288     11.397490    -0.022798    Cartesian   -0.20
    340 x         11.420288     11.424448     0.004160    Cartesian    0.04
    340 y          6.344605      6.344663     0.000058    Cartesian    0.00
    340 z          3.806763      3.810275     0.003512    Cartesian    0.09
    341 x         11.420288     11.428456     0.008168    Cartesian    0.07
    341 y          6.344605      6.340392    -0.004213    Cartesian   -0.07
    341 z         -1.268921     -1.270951    -0.002030    Cartesian    0.16
    342 x         10.151367     10.156654     0.005287    Cartesian    0.05
    342 y          7.613525      7.617897     0.004372    Cartesian    0.06
    342 z         -2.537842     -2.537394     0.000448    Cartesian   -0.02
    343 x         -3.806763     -3.811222    -0.004459    Cartesian    0.12
    343 y          3.806763      3.808129     0.001366    Cartesian    0.04
    343 z          8.882446      8.874904    -0.007542    Cartesian   -0.08
    344 x         -3.806763     -3.808185    -0.001422    Cartesian    0.04
    344 y          3.806763      3.805982    -0.000780    Cartesian   -0.02
    344 z         -6.344605     -6.349857    -0.005253    Cartesian    0.08
    345 x         -2.537842     -2.536924     0.000917    Cartesian   -0.04
    345 y         -5.075684     -5.083146    -0.007462    Cartesian    0.15
    345 z          7.613525      7.620988     0.007462    Cartesian    0.10
    346 x         -2.537842     -2.536897     0.000945    Cartesian   -0.04
    346 y         -7.613525     -7.617586    -0.004061    Cartesian    0.05
    346 z          0.000000     -0.000301    -0.000301    Cartesian    0.00
    347 x         -6.344605     -6.343080     0.001524    Cartesian   -0.02
    347 y          1.268921      1.261784    -0.007137    Cartesian   -0.56
    347 z          6.344605      6.339487    -0.005118    Cartesian   -0.08
    348 x          3.806763      3.803574    -0.003189    Cartesian   -0.08
    348 y          3.806763      3.805598    -0.001165    Cartesian   -0.03
    348 z         11.420288     11.412801    -0.007487    Cartesian   -0.07
    349 x          3.806763      3.807099     0.000336    Cartesian    0.01
    349 y         -1.268921     -1.267656     0.001265    Cartesian   -0.10
    349 z         11.420288     11.426651     0.006363    Cartesian    0.06
    350 x          1.268921      1.267554    -0.001367    Cartesian   -0.11
    350 y         -1.268921     -1.267159     0.001762    Cartesian   -0.14
    350 z         11.420288     11.422073     0.001785    Cartesian    0.02
    351 x          1.268921      1.270797     0.001876    Cartesian    0.15
    351 y          3.806763      3.804786    -0.001977    Cartesian   -0.05
    351 z         11.420288     11.424479     0.004191    Cartesian    0.04
    352 x         -7.613525     -7.615078    -0.001553    Cartesian    0.02
    352 y         -0.000000     -0.016801    -0.016801    Cartesian *******
    352 z          2.537842      2.554643     0.016801    Cartesian    0.66
    353 x         12.689209     12.696872     0.007663    Cartesian    0.06
    353 y          5.075684      5.075452    -0.000232    Cartesian   -0.00
    353 z          2.537842      2.535208    -0.002634    Cartesian   -0.10
    354 x          6.344605      6.341561    -0.003044    Cartesian   -0.05
    354 y          1.268921      1.267485    -0.001436    Cartesian   -0.11
    354 z         11.420288     11.415766    -0.004522    Cartesian   -0.04
    355 x          7.613525      7.617323     0.003798    Cartesian    0.05
    355 y         10.151367     10.155697     0.004330    Cartesian    0.04
    355 z         -2.537842     -2.539621    -0.001779    Cartesian    0.07
    356 x         -6.344605     -6.340262     0.004343    Cartesian   -0.07
    356 y         -3.806763     -3.810616    -0.003853    Cartesian    0.10
    356 z         -1.268921     -1.269462    -0.000541    Cartesian    0.04
    357 x         -6.344605     -6.345178    -0.000574    Cartesian    0.01
    357 y         -3.806763     -3.801827     0.004936    Cartesian   -0.13
    357 z          3.806763      3.805493    -0.001270    Cartesian   -0.03
    358 x          3.806763      3.807608     0.000846    Cartesian    0.02
    358 y          8.882446      8.880718    -0.001728    Cartesian   -0.02
    358 z          8.882446      8.880718    -0.001728    Cartesian   -0.02
    359 x          3.806763      3.801083    -0.005680    Cartesian   -0.15
    359 y         -6.344605     -6.342837     0.001768    Cartesian   -0.03
    359 z          8.882446      8.880679    -0.001768    Cartesian   -0.02
    360 x         -5.075684     -5.078886    -0.003203    Cartesian    0.06
    360 y         -2.537842     -2.540205    -0.002363    Cartesian    0.09
    360 z          7.613525      7.621924     0.008398    Cartesian    0.11
    361 x          1.268921      1.270474     0.001554    Cartesian    0.12
    361 y          8.882446      8.881242    -0.001204    Cartesian   -0.01
    361 z         -6.344605     -6.343401     0.001204    Cartesian   -0.02
    362 x          1.268921      1.265776    -0.003145    Cartesian   -0.25
    362 y          8.882446      8.880511    -0.001935    Cartesian   -0.02
    362 z          8.882446      8.880511    -0.001935    Cartesian   -0.02
    363 x          2.537842      2.539077     0.001235    Cartesian    0.05
    363 y          7.613525      7.616782     0.003257    Cartesian    0.04
    363 z         10.151367     10.158056     0.006689    Cartesian    0.07
    364 x         -1.268921     -1.271807    -0.002886    Cartesian    0.23
    364 y          1.268921      1.265852    -0.003068    Cartesian   -0.24
    364 z         11.420288     11.407750    -0.012538    Cartesian   -0.11
    365 x          8.882446      8.881348    -0.001098    Cartesian   -0.01
    365 y         -3.806763     -3.805804     0.000959    Cartesian   -0.03
    365 z          8.882446      8.879546    -0.002900    Cartesian   -0.03
    366 x          8.882446      8.882546     0.000100    Cartesian    0.00
    366 y          8.882446      8.882937     0.000490    Cartesian    0.01
    366 z          6.344605      6.342139    -0.002466    Cartesian   -0.04
    367 x          6.344605      6.343248    -0.001357    Cartesian   -0.02
    367 y          3.806763      3.806065    -0.000697    Cartesian   -0.02
    367 z         11.420288     11.424127     0.003839    Cartesian    0.03
    368 x          6.344605      6.343306    -0.001298    Cartesian   -0.02
    368 y         -1.268921     -1.266484     0.002437    Cartesian   -0.19
    368 z         11.420288     11.411266    -0.009022    Cartesian   -0.08
    369 x         -2.537842     -2.540578    -0.002737    Cartesian    0.11
    369 y          5.075684      5.077345     0.001661    Cartesian    0.03
    369 z         -7.613525     -7.619608    -0.006082    Cartesian    0.08
    370 x         13.958130     13.879886    -0.078244    Cartesian   -0.56
    370 y          1.268921      1.268921     0.000000    Cartesian    0.00
    370 z          1.268921      1.268921     0.000000    Cartesian    0.00
    371 x          5.075684      5.077696     0.002012    Cartesian    0.04
    371 y         -7.613525     -7.619665    -0.006140    Cartesian    0.08
    371 z          7.613525      7.617016     0.003490    Cartesian    0.05
    372 x         11.420288     11.411301    -0.008987    Cartesian   -0.08
    372 y         -3.806763     -3.803763     0.002999    Cartesian   -0.08
    372 z         -3.806763     -3.803763     0.002999    Cartesian   -0.08
    373 x         11.420288     11.417573    -0.002715    Cartesian   -0.02
    373 y          6.344605      6.344333    -0.000271    Cartesian   -0.00
    373 z         -3.806763     -3.806491     0.000271    Cartesian   -0.01
    374 x         -7.613525     -7.626913    -0.013388    Cartesian    0.18
    374 y          2.537842      2.536355    -0.001486    Cartesian   -0.06
    374 z          5.075684      5.077864     0.002181    Cartesian    0.04
    375 x         12.689209     12.693983     0.004774    Cartesian    0.04
    375 y          5.075684      5.082304     0.006620    Cartesian    0.13
    375 z         -2.537842     -2.544462    -0.006620    Cartesian    0.26
    376 x         -1.268921     -1.266689     0.002232    Cartesian   -0.18
    376 y          3.806763      3.805531    -0.001232    Cartesian   -0.03
    376 z         -8.882446     -8.872892     0.009554    Cartesian   -0.11
    377 x         -1.268921     -1.267309     0.001612    Cartesian   -0.13
    377 y         11.420288     11.421034     0.000746    Cartesian    0.01
    377 z          3.806763      3.803250    -0.003513    Cartesian   -0.09
    378 x          0.000000     -0.000856    -0.000856    Cartesian *******
    378 y          7.613525      7.617634     0.004109    Cartesian    0.05
    378 z         -7.613525     -7.621763    -0.008238    Cartesian    0.11
    379 x         -3.806763     -3.806874    -0.000111    Cartesian    0.00
    379 y         -3.806763     -3.805598     0.001164    Cartesian   -0.03
    379 z          8.882446      8.877663    -0.004784    Cartesian   -0.05
    380 x         -3.806763     -3.802193     0.004570    Cartesian   -0.12
    380 y          6.344605      6.342219    -0.002385    Cartesian   -0.04
    380 z          8.882446      8.878981    -0.003465    Cartesian   -0.04
    381 x          6.344605      6.343249    -0.001356    Cartesian   -0.02
    381 y         -6.344605     -6.341901     0.002703    Cartesian   -0.04
    381 z          8.882446      8.879743    -0.002703    Cartesian   -0.03
    382 x          6.344605      6.340316    -0.004289    Cartesian   -0.07
    382 y          8.882446      8.880959    -0.001488    Cartesian   -0.02
    382 z          8.882446      8.880959    -0.001488    Cartesian   -0.02
    383 x          3.806763      3.804474    -0.002289    Cartesian   -0.06
    383 y         -3.806763     -3.804636     0.002127    Cartesian   -0.06
    383 z         11.420288     11.412911    -0.007378    Cartesian   -0.06
    384 x          3.806763      3.806226    -0.000536    Cartesian   -0.01
    384 y          6.344605      6.344088    -0.000517    Cartesian   -0.01
    384 z         11.420288     11.417104    -0.003184    Cartesian   -0.03
    385 x         13.958130     13.984862     0.026733    Cartesian    0.19
    385 y          3.806763      3.801089    -0.005674    Cartesian   -0.15
    385 z          1.268921      1.264929    -0.003992    Cartesian   -0.31
    386 x          1.268921      1.268266    -0.000654    Cartesian   -0.05
    386 y         -8.882446     -8.875109     0.007337    Cartesian   -0.08
    386 z          6.344605      6.343405    -0.001200    Cartesian   -0.02
    387 x          1.268921      1.269977     0.001056    Cartesian    0.08
    387 y          6.344605      6.341732    -0.002872    Cartesian   -0.05
    387 z         11.420288     11.411231    -0.009057    Cartesian   -0.08
    388 x         11.420288     11.421454     0.001166    Cartesian    0.01
    388 y          8.882446      8.880565    -0.001881    Cartesian   -0.02
    388 z          1.268921      1.270382     0.001461    Cartesian    0.12
    389 x          2.537842      2.539406     0.001564    Cartesian    0.06
    389 y         -0.000000     -0.003920    -0.003920    Cartesian *******
    389 z         12.689209     12.697025     0.007816    Cartesian    0.06
    390 x         -1.268921     -1.264216     0.004705    Cartesian   -0.37
    390 y          8.882446      8.874512    -0.007934    Cartesian   -0.09
    390 z          8.882446      8.874512    -0.007934    Cartesian   -0.09
    391 x         -1.268921     -1.271329    -0.002408    Cartesian    0.19
    391 y         -6.344605     -6.341186     0.003418    Cartesian   -0.05
    391 z          8.882446      8.879028    -0.003418    Cartesian   -0.04
    392 x         10.151367     10.156104     0.004737    Cartesian    0.05
    392 y          7.613525      7.620116     0.006590    Cartesian    0.09
    392 z          7.613525      7.620116     0.006590    Cartesian    0.09
    393 x         10.151367     10.156074     0.004707    Cartesian    0.05
    393 y          0.000000     -0.000445    -0.000445    Cartesian    0.00
    393 z         10.151367     10.157815     0.006448    Cartesian    0.06
    394 x         -6.344605     -6.339412     0.005192    Cartesian   -0.08
    394 y          6.344605      6.337822    -0.006782    Cartesian   -0.11
    394 z          6.344605      6.337822    -0.006782    Cartesian   -0.11
    395 x         -6.344605     -6.349745    -0.005141    Cartesian    0.08
    395 y         -3.806763     -3.804980     0.001782    Cartesian   -0.05
    395 z          6.344605      6.342822    -0.001782    Cartesian   -0.03
    396 x         13.958130     13.935550    -0.022580    Cartesian   -0.16
    396 y          3.806763      3.805419    -0.001344    Cartesian   -0.04
    396 z          3.806763      3.805419    -0.001344    Cartesian   -0.04
    397 x         13.958130     13.931524    -0.026606    Cartesian   -0.19
    397 y          3.806763      3.806785     0.000023    Cartesian    0.00
    397 z         -1.268921     -1.268944    -0.000023    Cartesian    0.00
    398 x          5.075684      5.078806     0.003122    Cartesian    0.06
    398 y          2.537842      2.540086     0.002244    Cartesian    0.09
    398 z         12.689209     12.698306     0.009097    Cartesian    0.07
    399 x         -8.882446     -8.774685     0.107761    Cartesian   -1.21
    399 y          1.268921      1.268921     0.000000    Cartesian    0.00
    399 z          1.268921      1.268921     0.000000    Cartesian    0.00
    400 x         11.420288     11.408855    -0.011433    Cartesian   -0.10
    400 y         -6.344605     -6.338324     0.006281    Cartesian   -0.10
    400 z         -1.268921     -1.264241     0.004680    Cartesian   -0.37
    401 x         11.420288     11.416454    -0.003834    Cartesian   -0.03
    401 y          8.882446      8.878789    -0.003657    Cartesian   -0.04
    401 z         -1.268921     -1.269067    -0.000146    Cartesian    0.01
    402 x         -7.613525     -7.624658    -0.011133    Cartesian    0.15
    402 y          5.075684      5.086477     0.010793    Cartesian    0.21
    402 z         -2.537842     -2.548635    -0.010793    Cartesian    0.43
    403 x         12.689209     12.698811     0.009602    Cartesian    0.08
    403 y          7.613525      7.619257     0.005732    Cartesian    0.08
    403 z          0.000000     -0.001910    -0.001910    Cartesian    0.00
    404 x          8.882446      8.877981    -0.004465    Cartesian   -0.05
    404 y          1.268921      1.269173     0.000252    Cartesian    0.02
    404 z         11.420288     11.410776    -0.009513    Cartesian   -0.08
    405 x          0.000000     -0.001572    -0.001572    Cartesian    0.00
    405 y          2.537842      2.541758     0.003916    Cartesian    0.15
    405 z         12.689209     12.698712     0.009503    Cartesian    0.07
    406 x          6.344605      6.341539    -0.003065    Cartesian   -0.05
    406 y         -3.806763     -3.804348     0.002415    Cartesian   -0.06
    406 z         11.420288     11.414179    -0.006109    Cartesian   -0.05
    407 x          6.344605      6.342084    -0.002521    Cartesian   -0.04
    407 y         11.420288     11.410549    -0.009739    Cartesian   -0.09
    407 z          6.344605      6.341607    -0.002998    Cartesian   -0.05
    408 x          7.613525      7.618125     0.004600    Cartesian    0.06
    408 y         10.151367     10.159142     0.007775    Cartesian    0.08
    408 z          7.613525      7.618542     0.005017    Cartesian    0.07
    409 x         -6.344605     -6.335976     0.008628    Cartesian   -0.14
    409 y         -6.344605     -6.336270     0.008334    Cartesian   -0.13
    409 z          1.268921      1.265550    -0.003371    Cartesian   -0.27
    410 x         -5.075684     -5.081437    -0.005754    Cartesian    0.11
    410 y         -5.075684     -5.084190    -0.008506    Cartesian    0.17
    410 z         -5.075684     -5.084190    -0.008506    Cartesian    0.17
    411 x         -5.075684     -5.080557    -0.004873    Cartesian    0.10
    411 y         -7.613525     -7.623532    -0.010006    Cartesian    0.13
    411 z          2.537842      2.540278     0.002436    Cartesian    0.10
    412 x         -8.882446     -8.904422    -0.021976    Cartesian    0.25
    412 y          1.268921      1.262978    -0.005943    Cartesian   -0.47
    412 z          3.806763      3.797948    -0.008815    Cartesian   -0.23
--------------------------------------------------------------------------------


  Time to end of optimisation  =      127.5848 seconds


  Peak dynamic memory used =     401.92 MB 


  Timing analysis for GULP :

--------------------------------------------------------------------------------
  Task / Subroutine                                          Time (Seconds)
--------------------------------------------------------------------------------
  Calculation of reciprocal space energy and derivatives          0.0002
  Calculation of reciprocal space energy using symmetry           0.0002
  Calculation of real space energy and derivatives                0.0020
  Calculation of real space energy using symmetry                 0.0071
  Calculation for region 1 energy and derivatives (2-b)          31.5163
  Calculation for region 2a energy                               83.4765
  Calculation for region 2b energy                                0.0112
  Calculation and manipulation of Hessian matrix                 11.3132
  Calculation of matrix inversion                                 0.8309
  Symmetry generation of equivalent positions                     0.0016
--------------------------------------------------------------------------------
  Total CPU time                                                127.5849
--------------------------------------------------------------------------------


  Dump file written as ZrO2.grs


  Job Finished at 12:47.42 14th October    2020                               

