********************************************************************************
*                       GENERAL UTILITY LATTICE PROGRAM                        *
*                                 Julian Gale                                  *
*                       Curtin Institute for Computation                       *
*                    School of Molecular and Life Sciences                     *
*                    Curtin University, Western Australia                      *
********************************************************************************
* Version = 5.2.0 * Last modified =  10th September 2020                       *
********************************************************************************
* Zirconia doped with calcium                                                  *
*  optimise     - perform optimisation run                                     *
*  conp         - constant pressure calculation                                *
*  property     - calculate properties for final geometry                      *
*  defect       - perform defect calculation after bulk run                    *
*  distance     - calculate distances                                          *
*  compare      - compare initial and final structures                         *
********************************************************************************
* Zirconia doped with calcium                                                  *
********************************************************************************


  Job Started  at 12:47.42 14th October    2020                               

  Number of CPUs =     1


  Total number of configurations input =      1

********************************************************************************
*  Input for Configuration =   1 : ZrO2                                        *
********************************************************************************

  Formula = ZrO2                                                        

  Number of irreducible atoms/shells =       4


  Total number atoms/shells =       6

  Dimensionality = 3               :  Bulk   


  Symmetry :

  Crystal family                   :  Cubic       
  Crystal class  (Groth - 1921)    :  Cubic Hexakisoctahedral              

  Space group (centrosymmetric)    :  F M 3 M         

  Patterson group                  :  F m -3 m 

  Cartesian lattice vectors (Angstroms) :

        0.000000    2.535000    2.535000
        2.535000    0.000000    2.535000
        2.535000    2.535000    0.000000

  Primitive cell parameters :            Full cell parameters :

  a =   3.5850    alpha =  60.0000       a =   5.0700    alpha =  90.0000
  b =   3.5850    beta  =  60.0000       b =   5.0700    beta  =  90.0000
  c =   3.5850    gamma =  60.0000       c =   5.0700    gamma =  90.0000

  Initial volumes (Angstroms**3):

  Primitive cell =          32.580961    Full cell =         130.323843

  Temperature of configuration =   0.00     K 

  Pressure of configuration =         0.000 GPa 

  Fractional coordinates of asymmetric unit :

--------------------------------------------------------------------------------
   No.  Atomic       x           y          z         Charge      Occupancy
        Label      (Frac)      (Frac)     (Frac)        (e)         (Frac)  
--------------------------------------------------------------------------------
      1 Zr    c    0.000000    0.000000    0.000000     2.65000    1.000000    
      2 O     c    0.250000    0.250000    0.250000     0.07700    1.000000    
      3 Zr    s    0.000000    0.000000    0.000000     1.35000    1.000000    
      4 O     s    0.250000    0.250000    0.250000    -2.07700    1.000000    
--------------------------------------------------------------------------------


  Constraints : 

--------------------------------------------------------------------------------
  Constraint no.      Unconstrained     Constrained    Coefficient    Offset
                         Variable         Variable
--------------------------------------------------------------------------------
           1              Strain 1        Strain 2       1.00000      0.0000
           2              Strain 1        Strain 3       1.00000      0.0000
--------------------------------------------------------------------------------


  Distance calculation :


  Cutoff for distances  =      4.000000 Angstroms

--------------------------------------------------------------------------------
  Asymmetric unit site  Full lattice sites    No.  Distance      No.  Distance
      No.   At.No.            At.No.                (Angs)             (Angs) 
--------------------------------------------------------------------------------
       1   Zr    core        Zr    core        12    3.5850
                             Zr    shell       12    3.5850
                             O     core         8    2.1954
                             O     shell        8    2.1954
--------------------------------------------------------------------------------
       2   O     core        Zr    core         4    2.1954
                             Zr    shell        4    2.1954
                             O     core         6    2.5350       12    3.5850
                             O     shell        6    2.5350       12    3.5850
--------------------------------------------------------------------------------
       3   Zr    shell       Zr    core        12    3.5850
                             Zr    shell       12    3.5850
                             O     core         8    2.1954
                             O     shell        8    2.1954
--------------------------------------------------------------------------------
       4   O     shell       Zr    core         4    2.1954
                             Zr    shell        4    2.1954
                             O     core         6    2.5350       12    3.5850
                             O     shell        6    2.5350       12    3.5850
--------------------------------------------------------------------------------



********************************************************************************
*  General input information                                                   *
********************************************************************************

  Species output for all configurations : 

--------------------------------------------------------------------------------
  Species    Type    Atomic    Atomic    Charge       Radii (Angs)     Library
                     Number     Mass       (e)     Cova   Ionic  VDW   Symbol
--------------------------------------------------------------------------------
    Zr       Core       40      91.22   2.650000   1.560  0.000  2.330          
    Zr       Shell      40       0.00   1.350000   1.560  0.000  2.330          
    O        Core        8      16.00   0.077000   0.730  0.000  1.360          
    O        Shell       8       0.00  -2.077000   0.730  0.000  1.360          
--------------------------------------------------------------------------------


  Lattice summation method               =    Ewald          (3-D)
                                         =    Parry          (2-D)
                                         =    Saunders et al (1-D)
  Accuracy factor for lattice sums       =   12.000


  Analytic derivatives to be used

  Time limit = Infinity

  Maximum range for interatomic potentials =    100000.000000 Angstroms

  General interatomic potentials :

--------------------------------------------------------------------------------
Atom  Types   Potential      Parameter       Value         Units   Cutoffs(Ang)
  1     2                                                            Min /  Max 
--------------------------------------------------------------------------------
O    s Zr   s Buckingham    Buckingham A     985.86900    eV        0.000 12.000
                            Buckingham rho  0.37600000    Ang       
                            Buckingham C     0.0000000    eV*Ang^6  
--------------------------------------------------------------------------------
O    s O    s Buckingham    Buckingham A     22764.300    eV        0.000 12.000
                            Buckingham rho  0.14900000    Ang       
                            Buckingham C     27.890000    eV*Ang^6  
--------------------------------------------------------------------------------
Zr   c Zr   s Spring (c-s)  Spring k 2       169.61700    eV*Ang^-2 0.000  0.800
                            Spring k 4       0.0000000    eV*Ang^-4 
--------------------------------------------------------------------------------
O    c O    s Spring (c-s)  Spring k 2       27.290000    eV*Ang^-2 0.000  0.800
                            Spring k 4       0.0000000    eV*Ang^-4 
--------------------------------------------------------------------------------

********************************************************************************
*  Output for configuration   1 : ZrO2                                         *
********************************************************************************


  Components of energy : 

--------------------------------------------------------------------------------
  Interatomic potentials     =          22.43756329 eV    
  Monopole - monopole (real) =         -15.67991073 eV    
  Monopole - monopole (recip)=        -116.52038266 eV    
  Monopole - monopole (total)=        -132.20029339 eV    
--------------------------------------------------------------------------------
  Total lattice energy : 
    Primitive unit cell      =        -109.76273010 eV    
    Non-primitive unit cell  =        -439.05092039 eV    
--------------------------------------------------------------------------------
  Total lattice energy (in kJmol-1): 
    Primitive unit cell      =          -10590.4256 kJ/(mole unit cells)
    Non-primitive unit cell  =          -42361.7023 kJ/(mole unit cells)
--------------------------------------------------------------------------------


  Number of variables =        1

  Maximum number of calculations  =          1000
  Maximum Hessian update interval =            10
  Maximum step size               =   1.000000000
  Maximum parameter tolerance     =   0.000010000
  Maximum function  tolerance     =   0.000010000
  Maximum gradient  tolerance     =   0.001000000
  Maximum gradient  component     =   0.010000000

  Symmetry constrained optimisation

  Symmetry used for second derivatives

  Cell parameters to be optimised using strains

  Newton-Raphson optimiser to be used

  BFGS hessian update to be used

  Lower half triangular hessian to be used

  Start of bulk optimisation :

  Cycle:      0 Energy:      -109.762730  Gnorm:      0.588311  CPU:    0.006
  ** Hessian calculated **
  Cycle:      1 Energy:      -109.763059  Gnorm:      0.000316  CPU:    0.009


  **** Optimisation achieved ****


  Final energy =    -109.76305939 eV
  Final Gnorm  =       0.00000099

  Components of energy : 

--------------------------------------------------------------------------------
  Interatomic potentials     =          22.28919976 eV    
  Monopole - monopole (real) =         -15.66235280 eV    
  Monopole - monopole (recip)=        -116.38990634 eV    
  Monopole - monopole (total)=        -132.05225914 eV    
--------------------------------------------------------------------------------
  Total lattice energy : 
    Primitive unit cell      =        -109.76305939 eV    
    Non-primitive unit cell  =        -439.05223754 eV    
--------------------------------------------------------------------------------
  Total lattice energy (in kJmol-1): 
    Primitive unit cell      =          -10590.4573 kJ/(mole unit cells)
    Non-primitive unit cell  =          -42361.8294 kJ/(mole unit cells)
--------------------------------------------------------------------------------

  Final asymmetric unit coordinates :

--------------------------------------------------------------------------------
   No.  Atomic        x           y           z         Radius
        Label       (Frac)      (Frac)      (Frac)       (Angs) 
--------------------------------------------------------------------------------
     1  Zr    c     0.000000    0.000000    0.000000    0.000000
     2  O     c     0.250000    0.250000    0.250000    0.000000
     3  Zr    s     0.000000    0.000000    0.000000    0.000000
     4  O     s     0.250000    0.250000    0.250000    0.000000
--------------------------------------------------------------------------------

  Final Cartesian lattice vectors (Angstroms) :

        0.000000    2.537842    2.537842
        2.537842    0.000000    2.537842
        2.537842    2.537842    0.000000


  Final cell parameters and derivatives :

--------------------------------------------------------------------------------
       a            3.589050 Angstrom     dE/de1(xx)    -0.000001 eV/strain
       b            3.589050 Angstrom     dE/de2(yy)     0.000000 eV/strain
       c            3.589050 Angstrom     dE/de3(zz)     0.000000 eV/strain
       alpha       60.000000 Degrees      dE/de4(yz)     0.000000 eV/strain
       beta        60.000000 Degrees      dE/de5(xz)     0.000000 eV/strain
       gamma       60.000000 Degrees      dE/de6(xy)     0.000000 eV/strain
--------------------------------------------------------------------------------

  Primitive cell volume =            32.690656 Angs**3

  Density of cell =      6.259124 g/cm**3

  Non-primitive lattice parameters :

  a    =     5.075684  b   =     5.075684  c    =     5.075684
  alpha=    90.000000  beta=    90.000000  gamma=    90.000000

  Non-primitive cell volume =           130.762624 Angs**3


  Final internal derivatives :

--------------------------------------------------------------------------------
   No.  Atomic          a             b             c           Radius
        Label          (eV)          (eV)          (eV)        (eV/Angs)
--------------------------------------------------------------------------------
      1 Zr    c       0.000000      0.000000      0.000000      0.000000
      2 O     c       0.000000      0.000000      0.000000      0.000000
      3 Zr    s       0.000000      0.000000      0.000000      0.000000
      4 O     s       0.000000      0.000000      0.000000      0.000000
--------------------------------------------------------------------------------
  Maximum abs         0.000000      0.000000      0.000000      0.000000
--------------------------------------------------------------------------------

  Comparison of initial and final structures : 

--------------------------------------------------------------------------------
  Parameter   Initial value   Final value   Difference    Units      Percent
--------------------------------------------------------------------------------
    Volume       130.323843    130.762624     0.438781    Angs**3      0.34
    a              5.070000      5.075684     0.005684    Angstroms    0.11
    b              5.070000      5.075684     0.005684    Angstroms    0.11
    c              5.070000      5.075684     0.005684    Angstroms    0.11
    alpha         90.000000     90.000000     0.000000    Degrees      0.00
    beta          90.000000     90.000000     0.000000    Degrees      0.00
    gamma         90.000000     90.000000     0.000000    Degrees      0.00
      1 x          0.000000      0.000000     0.000000    Fractional   0.00
      1 y          0.000000      0.000000     0.000000    Fractional   0.00
      1 z          0.000000      0.000000     0.000000    Fractional   0.00
      2 x          0.250000      0.250000     0.000000    Fractional   0.00
      2 y          0.250000      0.250000     0.000000    Fractional   0.00
      2 z          0.250000      0.250000     0.000000    Fractional   0.00
      3 x          0.000000      0.000000     0.000000    Fractional   0.00
      3 y          0.000000      0.000000     0.000000    Fractional   0.00
      3 z          0.000000      0.000000     0.000000    Fractional   0.00
      4 x          0.250000      0.250000     0.000000    Fractional   0.00
      4 y          0.250000      0.250000     0.000000    Fractional   0.00
      4 z          0.250000      0.250000     0.000000    Fractional   0.00
--------------------------------------------------------------------------------


  Distance calculation :


  Cutoff for distances  =      4.000000 Angstroms

--------------------------------------------------------------------------------
  Asymmetric unit site  Full lattice sites    No.  Distance      No.  Distance
      No.   At.No.            At.No.                (Angs)             (Angs) 
--------------------------------------------------------------------------------
       1   Zr    core        Zr    core        12    3.5891
                             Zr    shell       12    3.5891
                             O     core         8    2.1978
                             O     shell        8    2.1978
--------------------------------------------------------------------------------
       2   O     core        Zr    core         4    2.1978
                             Zr    shell        4    2.1978
                             O     core         6    2.5378       12    3.5891
                             O     shell        6    2.5378       12    3.5891
--------------------------------------------------------------------------------
       3   Zr    shell       Zr    core        12    3.5891
                             Zr    shell       12    3.5891
                             O     core         8    2.1978
                             O     shell        8    2.1978
--------------------------------------------------------------------------------
       4   O     shell       Zr    core         4    2.1978
                             Zr    shell        4    2.1978
                             O     core         6    2.5378       12    3.5891
                             O     shell        6    2.5378       12    3.5891
--------------------------------------------------------------------------------



  Born effective charge tensors : 

-------------------------------------------------------------------------------
  Atom             x           y             z
-------------------------------------------------------------------------------
    1 Zr    x       3.6770      0.0000      0.0000
            y       0.0000      3.6770      0.0000
            z       0.0000      0.0000      3.6770
-------------------------------------------------------------------------------
    2 O     x      -1.8385      0.0000      0.0000
            y       0.0000     -1.8385     -0.0000
            z       0.0000     -0.0000     -1.8385
-------------------------------------------------------------------------------




  Elastic Constant Matrix: (Units=GPa)

-------------------------------------------------------------------------------
  Indices      1         2         3         4         5         6    
-------------------------------------------------------------------------------
       1    616.2933  119.6612  119.6612   -0.0000   -0.0000   -0.0000
       2    119.6612  616.2933  119.6612   -0.0000   -0.0000   -0.0000
       3    119.6612  119.6612  616.2933   -0.0000   -0.0000   -0.0000
       4     -0.0000   -0.0000   -0.0000  100.8598    0.0000   -0.0000
       5     -0.0000   -0.0000   -0.0000    0.0000  100.8598    0.0000
       6     -0.0000   -0.0000   -0.0000   -0.0000    0.0000  100.8598
-------------------------------------------------------------------------------


  Elastic Compliance Matrix: (Units=1/GPa)

-------------------------------------------------------------------------------
  Indices      1         2         3         4         5         6    
-------------------------------------------------------------------------------
       1    0.001732 -0.000282 -0.000282  0.000000  0.000000  0.000000
       2   -0.000282  0.001732 -0.000282 -0.000000  0.000000  0.000000
       3   -0.000282 -0.000282  0.001732  0.000000  0.000000  0.000000
       4    0.000000 -0.000000  0.000000  0.009915 -0.000000  0.000000
       5    0.000000  0.000000  0.000000 -0.000000  0.009915 -0.000000
       6    0.000000  0.000000  0.000000  0.000000 -0.000000  0.009915
-------------------------------------------------------------------------------

  Mechanical properties :

-------------------------------------------------------------------------------
  Convention :                    Reuss         Voigt         Hill
-------------------------------------------------------------------------------
  Bulk  Modulus (GPa)     =     285.20524     285.20524     285.20524
  Shear Modulus (GPa)     =     132.28031     159.84228     146.06129
-------------------------------------------------------------------------------
  Velocity S-wave (km/s)  =       4.59717       5.05346       4.83071
  Velocity P-wave (km/s)  =       8.58749       8.92280       8.75675
-------------------------------------------------------------------------------
  Compressibility (1/GPa) =    0.00350625
-------------------------------------------------------------------------------
  Stress axis :                     x             y             z
-------------------------------------------------------------------------------
  Youngs Moduli (GPa)     =     577.38110     577.38110     577.38110
-------------------------------------------------------------------------------
  Poissons Ratio (x)      =                     0.16259       0.16259
  Poissons Ratio (y)      =       0.16259                     0.16259
  Poissons Ratio (z)      =       0.16259       0.16259
-------------------------------------------------------------------------------


  Piezoelectric Strain Matrix: (Units=C/m**2)

-------------------------------------------------------------------------------
  Indices      1         2         3         4         5         6    
-------------------------------------------------------------------------------
       x    -0.00000   0.00000   0.00000   0.00000   0.00000   0.00000
       y    -0.00000  -0.00000  -0.00000   0.00000   0.00000   0.00000
       z    -0.00000  -0.00000  -0.00000   0.00000   0.00000   0.00000
-------------------------------------------------------------------------------


  Piezoelectric Stress Matrix: (Units=10**-11 C/N)

-------------------------------------------------------------------------------
  Indices      1         2         3         4         5         6    
-------------------------------------------------------------------------------
       x    -0.00000   0.00000   0.00000   0.00000   0.00000   0.00000
       y    -0.00000  -0.00000  -0.00000   0.00000   0.00000   0.00000
       z     0.00000   0.00000  -0.00000   0.00000   0.00000   0.00000
-------------------------------------------------------------------------------


  Static dielectric constant tensor : 

-------------------------------------------------------------------------------
              x         y         z
-------------------------------------------------------------------------------
       x    26.88485   0.00000   0.00000
       y     0.00000  26.88485   0.00000
       z     0.00000   0.00000  26.88485
--------------------------------------------------------------------------------

  High frequency dielectric constant tensor : 

-------------------------------------------------------------------------------
              x         y         z
-------------------------------------------------------------------------------
       x     2.63099   0.00000   0.00000
       y     0.00000   2.63099   0.00000
       z     0.00000   0.00000   2.63099
-------------------------------------------------------------------------------

  Static refractive indices : 

-------------------------------------------------------------------------------
    1 =    5.18506      2 =    5.18506      3 =    5.18506
-------------------------------------------------------------------------------

  High frequency refractive indices : 

-------------------------------------------------------------------------------
    1 =    1.62203      2 =    1.62203      3 =    1.62203
-------------------------------------------------------------------------------


  Time to end of optimisation =       0.0143 seconds

********************************************************************************
*  Defect calculation for configuration   1 :                                  *
********************************************************************************

  Total number of defects =      3

  Total charge on defect  =   2.00

  Defect centre is at   0.5700   0.2500   0.2500  Frac

  Region 1 radius =  12.0000      Number of ions =   1306

  Number of symmetry inequivalent region 1 ions  =    406

  Region 2 radius =  24.0000      Number of ions =   9294

  Number of symmetry inequivalent region 2a ions =   2548

  Region 2a mode = 4 : screened electrostatics due to region 1 
                       neglect correction to region 1 forces from 2a
                       region 2a displacements based on defects only

  Region 2a ions will only interact with defects in region 1

  Vacancies:

--------------------------------------------------------------------------------
    Specification type     Symbol/Number         x          y          z
--------------------------------------------------------------------------------
    Fractional                               0.250000   0.250000   0.250000
    Fractional                               0.750000   0.250000   0.250000
--------------------------------------------------------------------------------

  Interstitials:

--------------------------------------------------------------------------------
    Specification type     Symbol/Number         x          y          z
--------------------------------------------------------------------------------
    Atom/Fractional         O                0.570000   0.250000   0.250000
--------------------------------------------------------------------------------


  Symmetry reduced region 1 (Relative to defect centre) :

--------------------------------------------------------------------------------
   No.   Atomic       x            y             z       Radius  Multiplicity   
         Label      (Angs)       (Angs)        (Angs)    (Angs)     
--------------------------------------------------------------------------------
     1  O     c      0.0000       0.0000       0.0000    0.0000     1    Defect
     2  Zr    c     -0.3553 *    -1.2689 *     1.2689    0.0000     2          
     3  O     c      0.9136 *     2.5378 *     0.0000 *  0.0000     4          
     4  Zr    c      2.1825 *    -1.2689 *    -1.2689    0.0000     2          
     5  O     c     -1.6242 *    -0.0000 *     2.5378 *  0.0000     4          
     6  Zr    c     -2.8931 *    -1.2689 *    -1.2689    0.0000     2          
     7  O     c      3.4515 *     0.0000       0.0000    0.0000     1          
     8  O     c      0.9136 *     2.5378 *     2.5378    0.0000     2          
     9  O     c      0.9136 *    -2.5378 *     2.5378    0.0000     2          
    10  O     c     -1.6242 *    -2.5378 *     2.5378    0.0000     2          
    11  O     c     -1.6242 *     2.5378 *     2.5378    0.0000     2          
    12  Zr    c     -0.3553 *     1.2689 *     3.8068 *  0.0000     4          
    13  O     c     -4.1621 *    -0.0000      -0.0000    0.0000     1          
    14  O     c      3.4515 *     2.5378 *    -0.0000 *  0.0000     4          
    15  Zr    c      2.1825 *     1.2689 *    -3.8068 *  0.0000     4          
    16  O     c     -4.1621 *     0.0000 *     2.5378 *  0.0000     4          
    17  Zr    c     -2.8931 *     1.2689 *    -3.8068 *  0.0000     4          
    18  O     c      3.4515 *     2.5378 *     2.5378    0.0000     2          
    19  O     c      3.4515 *     2.5378 *    -2.5378    0.0000     2          
    20  Zr    c      4.7204 *     1.2689 *    -1.2689    0.0000     2          
    21  O     c      0.9136 *    -0.0000 *     5.0757 *  0.0000     4          
    22  O     c     -1.6242 *    -5.0757 *     0.0000 *  0.0000     4          
    23  Zr    c     -0.3553 *    -3.8068 *     3.8068    0.0000     2          
    24  O     c     -4.1621 *     2.5378 *    -2.5378    0.0000     2          
    25  O     c     -4.1621 *     2.5378 *     2.5378    0.0000     2          
    26  Zr    c     -5.4310 *    -1.2689 *     1.2689    0.0000     2          
    27  O     c      0.9136 *    -5.0757 *     2.5378 *  0.0000     4          
    28  O     c      0.9136 *     5.0757 *     2.5378 *  0.0000     4          
    29  Zr    c      2.1825 *     3.8068 *     3.8068    0.0000     2          
    30  O     c     -1.6242 *     5.0757 *     2.5378 *  0.0000     4          
    31  O     c     -1.6242 *     5.0757 *    -2.5378 *  0.0000     4          
    32  O     c      5.9893 *    -0.0000      -0.0000    0.0000     1          
    33  Zr    c     -2.8931 *     3.8068 *     3.8068    0.0000     2          
    34  O     c      3.4515 *     5.0757 *     0.0000 *  0.0000     4          
    35  Zr    c      4.7204 *     3.8068 *     1.2689 *  0.0000     4          
    36  Zr    c     -0.3553 *    -6.3446 *     1.2689 *  0.0000     4          
    37  O     c      5.9893 *     2.5378 *     0.0000 *  0.0000     4          
    38  O     c     -4.1621 *     5.0757 *    -0.0000 *  0.0000     4          
    39  O     c      3.4515 *     5.0757 *     2.5378 *  0.0000     4          
    40  O     c      3.4515 *    -2.5378 *     5.0757 *  0.0000     4          
    41  O     c     -6.6999 *     0.0000       0.0000    0.0000     1          
    42  Zr    c     -5.4310 *     1.2689 *     3.8068 *  0.0000     4          
    43  Zr    c      2.1825 *     6.3446 *     1.2689 *  0.0000     4          
    44  O     c      5.9893 *     2.5378 *     2.5378    0.0000     2          
    45  O     c      5.9893 *     2.5378 *    -2.5378    0.0000     2          
    46  O     c     -4.1621 *    -5.0757 *    -2.5378 *  0.0000     4          
    47  O     c     -4.1621 *    -5.0757 *     2.5378 *  0.0000     4          
    48  Zr    c     -2.8931 *    -1.2689 *    -6.3446 *  0.0000     4          
    49  Zr    c      4.7204 *    -3.8068 *     3.8068    0.0000     2          
    50  O     c     -6.6999 *    -0.0000 *     2.5378 *  0.0000     4          
    51  O     c      0.9136 *     5.0757 *     5.0757    0.0000     2          
    52  O     c      0.9136 *    -5.0757 *     5.0757    0.0000     2          
    53  O     c     -1.6242 *     5.0757 *     5.0757    0.0000     2          
    54  O     c     -1.6242 *    -5.0757 *     5.0757    0.0000     2          
    55  Zr    c     -0.3553 *     3.8068 *     6.3446 *  0.0000     4          
    56  Zr    c      7.2582 *    -1.2689 *    -1.2689    0.0000     2          
    57  O     c     -6.6999 *     2.5378 *     2.5378    0.0000     2          
    58  O     c     -6.6999 *    -2.5378 *     2.5378    0.0000     2          
    59  Zr    c     -5.4310 *    -3.8068 *     3.8068    0.0000     2          
    60  O     c      0.9136 *     7.6135 *     0.0000 *  0.0000     4          
    61  Zr    c      2.1825 *    -6.3446 *     3.8068 *  0.0000     4          
    62  O     c     -1.6242 *    -0.0000 *     7.6135 *  0.0000     4          
    63  O     c      5.9893 *     5.0757 *    -0.0000 *  0.0000     4          
    64  Zr    c     -2.8931 *     3.8068 *    -6.3446 *  0.0000     4          
    65  O     c      3.4515 *    -5.0757 *    -5.0757    0.0000     2          
    66  O     c      3.4515 *     5.0757 *    -5.0757    0.0000     2          
    67  Zr    c      4.7204 *    -1.2689 *     6.3446 *  0.0000     4          
    68  O     c      0.9136 *    -2.5378 *     7.6135 *  0.0000     4          
    69  O     c      0.9136 *     2.5378 *     7.6135 *  0.0000     4          
    70  Zr    c     -7.9688 *    -1.2689 *    -1.2689    0.0000     2          
    71  O     c     -1.6242 *    -7.6135 *     2.5378 *  0.0000     4          
    72  O     c     -1.6242 *     2.5378 *     7.6135 *  0.0000     4          
    73  O     c      5.9893 *    -2.5378 *    -5.0757 *  0.0000     4          
    74  O     c      5.9893 *     5.0757 *    -2.5378 *  0.0000     4          
    75  Zr    c      7.2582 *     3.8068 *    -1.2689 *  0.0000     4          
    76  O     c     -4.1621 *     5.0757 *    -5.0757    0.0000     2          
    77  O     c     -4.1621 *     5.0757 *     5.0757    0.0000     2          
    78  O     c      3.4515 *    -0.0000 *     7.6135 *  0.0000     4          
    79  O     c     -6.6999 *     5.0757 *     0.0000 *  0.0000     4          
    80  Zr    c     -5.4310 *    -6.3446 *     1.2689 *  0.0000     4          
    81  O     c      8.5271 *     0.0000       0.0000    0.0000     1          
    82  O     c     -4.1621 *    -7.6135 *     0.0000 *  0.0000     4          
    83  O     c      3.4515 *     7.6135 *    -2.5378 *  0.0000     4          
    84  O     c      3.4515 *     7.6135 *     2.5378 *  0.0000     4          
    85  Zr    c      4.7204 *     6.3446 *     3.8068 *  0.0000     4          
    86  O     c     -6.6999 *    -2.5378 *     5.0757 *  0.0000     4          
    87  O     c     -6.6999 *     2.5378 *     5.0757 *  0.0000     4          
    88  O     c      8.5271 *     2.5378 *    -0.0000 *  0.0000     4          
    89  Zr    c     -7.9688 *    -1.2689 *     3.8068 *  0.0000     4          
    90  Zr    c     -0.3553 *    -6.3446 *     6.3446    0.0000     2          
    91  Zr    c     -0.3553 *     1.2689 *     8.8824 *  0.0000     4          
    92  Zr    c      7.2582 *     3.8068 *     3.8068    0.0000     2          
    93  O     c     -4.1621 *    -2.5378 *     7.6135 *  0.0000     4          
    94  O     c     -4.1621 *     2.5378 *     7.6135 *  0.0000     4          
    95  Zr    c     -5.4310 *    -6.3446 *    -3.8068 *  0.0000     4          
    96  O     c      0.9136 *     7.6135 *    -5.0757 *  0.0000     4          
    97  O     c      0.9136 *     7.6135 *     5.0757 *  0.0000     4          
    98  Zr    c      2.1825 *     6.3446 *     6.3446    0.0000     2          
    99  Zr    c      2.1825 *    -1.2689 *     8.8824 *  0.0000     4          
   100  O     c     -9.2377 *    -0.0000      -0.0000    0.0000     1          
   101  O     c      8.5271 *     2.5378 *     2.5378    0.0000     2          
   102  O     c      8.5271 *     2.5378 *    -2.5378    0.0000     2          
   103  O     c     -1.6242 *     5.0757 *     7.6135 *  0.0000     4          
   104  O     c     -1.6242 *     5.0757 *    -7.6135 *  0.0000     4          
   105  O     c      5.9893 *     5.0757 *     5.0757    0.0000     2          
   106  O     c      5.9893 *    -5.0757 *     5.0757    0.0000     2          
   107  Zr    c     -2.8931 *     6.3446 *     6.3446    0.0000     2          
   108  Zr    c     -2.8931 *    -8.8824 *     1.2689 *  0.0000     4          
   109  O     c     -9.2377 *    -2.5378 *     0.0000 *  0.0000     4          
   110  Zr    c     -7.9688 *    -3.8068 *    -3.8068    0.0000     2          
   111  Zr    c     -0.3553 *    -8.8824 *     3.8068 *  0.0000     4          
   112  O     c      5.9893 *     7.6135 *     0.0000 *  0.0000     4          
   113  Zr    c      7.2582 *     6.3446 *     1.2689 *  0.0000     4          
   114  O     c      3.4515 *     7.6135 *     5.0757 *  0.0000     4          
   115  O     c      3.4515 *    -5.0757 *     7.6135 *  0.0000     4          
   116  O     c     -6.6999 *     5.0757 *     5.0757    0.0000     2          
   117  O     c     -6.6999 *    -5.0757 *     5.0757    0.0000     2          
   118  Zr    c      2.1825 *     3.8068 *     8.8824 *  0.0000     4          
   119  O     c     -9.2377 *    -2.5378 *    -2.5378    0.0000     2          
   120  O     c     -9.2377 *    -2.5378 *     2.5378    0.0000     2          
   121  O     c      8.5271 *     5.0757 *     0.0000 *  0.0000     4          
   122  Zr    c      9.7961 *     1.2689 *    -1.2689    0.0000     2          
   123  O     c      5.9893 *     7.6135 *    -2.5378 *  0.0000     4          
   124  O     c      5.9893 *     7.6135 *     2.5378 *  0.0000     4          
   125  O     c     -4.1621 *     7.6135 *     5.0757 *  0.0000     4          
   126  O     c     -4.1621 *    -7.6135 *     5.0757 *  0.0000     4          
   127  Zr    c     -2.8931 *     8.8824 *     3.8068 *  0.0000     4          
   128  Zr    c      4.7204 *    -6.3446 *     6.3446    0.0000     2          
   129  Zr    c      4.7204 *     8.8824 *     1.2689 *  0.0000     4          
   130  O     c     -6.6999 *    -0.0000 *     7.6135 *  0.0000     4          
   131  O     c      0.9136 *    -0.0000 *    10.1514 *  0.0000     4          
   132  O     c      8.5271 *     5.0757 *     2.5378 *  0.0000     4          
   133  O     c      8.5271 *     5.0757 *    -2.5378 *  0.0000     4          
   134  Zr    c     -7.9688 *    -6.3446 *    -1.2689 *  0.0000     4          
   135  O     c     -1.6242 *    -0.0000 *    10.1514 *  0.0000     4          
   136  Zr    c      7.2582 *     6.3446 *    -3.8068 *  0.0000     4          
   137  O     c     -6.6999 *    -7.6135 *    -2.5378 *  0.0000     4          
   138  O     c     -6.6999 *    -7.6135 *     2.5378 *  0.0000     4          
   139  Zr    c     -5.4310 *    -8.8824 *    -1.2689 *  0.0000     4          
   140  Zr    c     -5.4310 *    -6.3446 *     6.3446    0.0000     2          
   141  O     c      0.9136 *     2.5378 *    10.1514 *  0.0000     4          
   142  O     c      0.9136 *    -2.5378 *    10.1514 *  0.0000     4          
   143  O     c     -9.2377 *    -0.0000 *     5.0757 *  0.0000     4          
   144  Zr    c      9.7961 *     3.8068 *     1.2689 *  0.0000     4          
   145  O     c     -1.6242 *    -2.5378 *    10.1514 *  0.0000     4          
   146  O     c     -1.6242 *     2.5378 *    10.1514 *  0.0000     4          
   147  Zr    c    -10.5067 *    -1.2689 *     1.2689    0.0000     2          
   148  O     c      3.4515 *     0.0000 *    10.1514 *  0.0000     4          
   149  Zr    c      4.7204 *     8.8824 *    -3.8068 *  0.0000     4          
   150  O     c      0.9136 *     7.6135 *     7.6135    0.0000     2          
   151  O     c      0.9136 *    -7.6135 *     7.6135    0.0000     2          
   152  O     c     -9.2377 *    -5.0757 *    -2.5378 *  0.0000     4          
   153  O     c     -9.2377 *    -5.0757 *     2.5378 *  0.0000     4          
   154  Zr    c     -7.9688 *     3.8068 *    -6.3446 *  0.0000     4          
   155  O     c     -1.6242 *    -7.6135 *     7.6135    0.0000     2          
   156  O     c     -1.6242 *     7.6135 *     7.6135    0.0000     2          
   157  Zr    c     -0.3553 *     6.3446 *     8.8824 *  0.0000     4          
   158  O     c      5.9893 *    -5.0757 *     7.6135 *  0.0000     4          
   159  O     c      5.9893 *     7.6135 *     5.0757 *  0.0000     4          
   160  O     c     -4.1621 *    10.1514 *    -0.0000 *  0.0000     4          
   161  O     c      3.4515 *     2.5378 *    10.1514 *  0.0000     4          
   162  O     c      3.4515 *    -2.5378 *    10.1514 *  0.0000     4          
   163  O     c     11.0650 *    -0.0000      -0.0000    0.0000     1          
   164  Zr    c     -5.4310 *    -8.8824 *     3.8068 *  0.0000     4          
   165  Zr    c      2.1825 *    -8.8824 *     6.3446 *  0.0000     4          
   166  O     c      8.5271 *     5.0757 *     5.0757    0.0000     2          
   167  O     c      8.5271 *     5.0757 *    -5.0757    0.0000     2          
   168  Zr    c      9.7961 *     3.8068 *    -3.8068    0.0000     2          
   169  Zr    c    -10.5067 *     1.2689 *     3.8068 *  0.0000     4          
   170  O     c     -4.1621 *   -10.1514 *     2.5378 *  0.0000     4          
   171  O     c     -4.1621 *     2.5378 *    10.1514 *  0.0000     4          
   172  Zr    c     -2.8931 *    -8.8824 *     6.3446 *  0.0000     4          
   173  O     c      3.4515 *     7.6135 *    -7.6135    0.0000     2          
   174  O     c      3.4515 *     7.6135 *     7.6135    0.0000     2          
   175  O     c     -6.6999 *     5.0757 *     7.6135 *  0.0000     4          
   176  O     c     -6.6999 *    -7.6135 *     5.0757 *  0.0000     4          
   177  O     c     11.0650 *     2.5378 *     0.0000 *  0.0000     4          
   178  O     c      0.9136 *     5.0757 *    10.1514 *  0.0000     4          
   179  O     c      0.9136 *    -5.0757 *    10.1514 *  0.0000     4          
   180  O     c      8.5271 *     7.6135 *    -0.0000 *  0.0000     4          
   181  O     c     -1.6242 *   -10.1514 *     5.0757 *  0.0000     4          
   182  O     c     -1.6242 *     5.0757 *    10.1514 *  0.0000     4          
   183  Zr    c     -0.3553 *    -1.2689 *    11.4203 *  0.0000     4          
   184  Zr    c      7.2582 *     6.3446 *     6.3446    0.0000     2          
   185  Zr    c      7.2582 *    -1.2689 *     8.8824 *  0.0000     4          
   186  O     c     -4.1621 *     7.6135 *     7.6135    0.0000     2          
   187  O     c     -4.1621 *    -7.6135 *     7.6135    0.0000     2          
   188  O     c     11.0650 *    -2.5378 *     2.5378    0.0000     2          
   189  O     c     11.0650 *     2.5378 *     2.5378    0.0000     2          
   190  Zr    c      2.1825 *     1.2689 *    11.4203 *  0.0000     4          
   191  O     c     -9.2377 *     5.0757 *     5.0757    0.0000     2          
   192  O     c     -9.2377 *    -5.0757 *     5.0757    0.0000     2          
   193  O     c      8.5271 *    -2.5378 *     7.6135 *  0.0000     4          
   194  O     c      8.5271 *     2.5378 *     7.6135 *  0.0000     4          
   195  Zr    c      9.7961 *    -1.2689 *     6.3446 *  0.0000     4          
   196  O     c    -11.7756 *    -0.0000       0.0000    0.0000     1          
   197  O     c      5.9893 *    -0.0000 *    10.1514 *  0.0000     4          
   198  Zr    c    -10.5067 *    -3.8068 *     3.8068    0.0000     2          
   199  Zr    c     -2.8931 *     1.2689 *    11.4203 *  0.0000     4          
   200  O     c      3.4515 *    -5.0757 *    10.1514 *  0.0000     4          
   201  O     c      3.4515 *    10.1514 *     5.0757 *  0.0000     4          
   202  Zr    c      4.7204 *     8.8824 *     6.3446 *  0.0000     4          
   203  O     c     -9.2377 *    -7.6135 *     0.0000 *  0.0000     4          
   204  O     s      0.0000       0.0000       0.0000    0.0000     1    Defect
   205  Zr    s     -0.3553 *    -1.2689 *     1.2689    0.0000     2          
   206  O     s      0.9136 *     2.5378 *     0.0000 *  0.0000     4          
   207  Zr    s      2.1825 *    -1.2689 *    -1.2689    0.0000     2          
   208  O     s     -1.6242 *    -0.0000 *     2.5378 *  0.0000     4          
   209  Zr    s     -2.8931 *    -1.2689 *    -1.2689    0.0000     2          
   210  O     s      3.4515 *     0.0000       0.0000    0.0000     1          
   211  O     s      0.9136 *     2.5378 *     2.5378    0.0000     2          
   212  O     s      0.9136 *    -2.5378 *     2.5378    0.0000     2          
   213  O     s     -1.6242 *    -2.5378 *     2.5378    0.0000     2          
   214  O     s     -1.6242 *     2.5378 *     2.5378    0.0000     2          
   215  Zr    s     -0.3553 *     1.2689 *     3.8068 *  0.0000     4          
   216  O     s     -4.1621 *    -0.0000      -0.0000    0.0000     1          
   217  O     s      3.4515 *     2.5378 *    -0.0000 *  0.0000     4          
   218  Zr    s      2.1825 *     1.2689 *    -3.8068 *  0.0000     4          
   219  O     s     -4.1621 *     0.0000 *     2.5378 *  0.0000     4          
   220  Zr    s     -2.8931 *     1.2689 *    -3.8068 *  0.0000     4          
   221  O     s      3.4515 *     2.5378 *     2.5378    0.0000     2          
   222  O     s      3.4515 *     2.5378 *    -2.5378    0.0000     2          
   223  Zr    s      4.7204 *     1.2689 *    -1.2689    0.0000     2          
   224  O     s      0.9136 *    -0.0000 *     5.0757 *  0.0000     4          
   225  O     s     -1.6242 *    -5.0757 *     0.0000 *  0.0000     4          
   226  Zr    s     -0.3553 *    -3.8068 *     3.8068    0.0000     2          
   227  O     s     -4.1621 *     2.5378 *    -2.5378    0.0000     2          
   228  O     s     -4.1621 *     2.5378 *     2.5378    0.0000     2          
   229  Zr    s     -5.4310 *    -1.2689 *     1.2689    0.0000     2          
   230  O     s      0.9136 *    -5.0757 *     2.5378 *  0.0000     4          
   231  O     s      0.9136 *     5.0757 *     2.5378 *  0.0000     4          
   232  Zr    s      2.1825 *     3.8068 *     3.8068    0.0000     2          
   233  O     s     -1.6242 *     5.0757 *     2.5378 *  0.0000     4          
   234  O     s     -1.6242 *     5.0757 *    -2.5378 *  0.0000     4          
   235  O     s      5.9893 *    -0.0000      -0.0000    0.0000     1          
   236  Zr    s     -2.8931 *     3.8068 *     3.8068    0.0000     2          
   237  O     s      3.4515 *     5.0757 *     0.0000 *  0.0000     4          
   238  Zr    s      4.7204 *     3.8068 *     1.2689 *  0.0000     4          
   239  Zr    s     -0.3553 *    -6.3446 *     1.2689 *  0.0000     4          
   240  O     s      5.9893 *     2.5378 *     0.0000 *  0.0000     4          
   241  O     s     -4.1621 *     5.0757 *    -0.0000 *  0.0000     4          
   242  O     s      3.4515 *     5.0757 *     2.5378 *  0.0000     4          
   243  O     s      3.4515 *    -2.5378 *     5.0757 *  0.0000     4          
   244  O     s     -6.6999 *     0.0000       0.0000    0.0000     1          
   245  Zr    s     -5.4310 *     1.2689 *     3.8068 *  0.0000     4          
   246  Zr    s      2.1825 *     6.3446 *     1.2689 *  0.0000     4          
   247  O     s      5.9893 *     2.5378 *     2.5378    0.0000     2          
   248  O     s      5.9893 *     2.5378 *    -2.5378    0.0000     2          
   249  O     s     -4.1621 *    -5.0757 *    -2.5378 *  0.0000     4          
   250  O     s     -4.1621 *    -5.0757 *     2.5378 *  0.0000     4          
   251  Zr    s     -2.8931 *    -1.2689 *    -6.3446 *  0.0000     4          
   252  Zr    s      4.7204 *    -3.8068 *     3.8068    0.0000     2          
   253  O     s     -6.6999 *    -0.0000 *     2.5378 *  0.0000     4          
   254  O     s      0.9136 *     5.0757 *     5.0757    0.0000     2          
   255  O     s      0.9136 *    -5.0757 *     5.0757    0.0000     2          
   256  O     s     -1.6242 *     5.0757 *     5.0757    0.0000     2          
   257  O     s     -1.6242 *    -5.0757 *     5.0757    0.0000     2          
   258  Zr    s     -0.3553 *     3.8068 *     6.3446 *  0.0000     4          
   259  Zr    s      7.2582 *    -1.2689 *    -1.2689    0.0000     2          
   260  O     s     -6.6999 *     2.5378 *     2.5378    0.0000     2          
   261  O     s     -6.6999 *    -2.5378 *     2.5378    0.0000     2          
   262  Zr    s     -5.4310 *    -3.8068 *     3.8068    0.0000     2          
   263  O     s      0.9136 *     7.6135 *     0.0000 *  0.0000     4          
   264  Zr    s      2.1825 *    -6.3446 *     3.8068 *  0.0000     4          
   265  O     s     -1.6242 *    -0.0000 *     7.6135 *  0.0000     4          
   266  O     s      5.9893 *     5.0757 *    -0.0000 *  0.0000     4          
   267  Zr    s     -2.8931 *     3.8068 *    -6.3446 *  0.0000     4          
   268  O     s      3.4515 *    -5.0757 *    -5.0757    0.0000     2          
   269  O     s      3.4515 *     5.0757 *    -5.0757    0.0000     2          
   270  Zr    s      4.7204 *    -1.2689 *     6.3446 *  0.0000     4          
   271  O     s      0.9136 *    -2.5378 *     7.6135 *  0.0000     4          
   272  O     s      0.9136 *     2.5378 *     7.6135 *  0.0000     4          
   273  Zr    s     -7.9688 *    -1.2689 *    -1.2689    0.0000     2          
   274  O     s     -1.6242 *    -7.6135 *     2.5378 *  0.0000     4          
   275  O     s     -1.6242 *     2.5378 *     7.6135 *  0.0000     4          
   276  O     s      5.9893 *    -2.5378 *    -5.0757 *  0.0000     4          
   277  O     s      5.9893 *     5.0757 *    -2.5378 *  0.0000     4          
   278  Zr    s      7.2582 *     3.8068 *    -1.2689 *  0.0000     4          
   279  O     s     -4.1621 *     5.0757 *    -5.0757    0.0000     2          
   280  O     s     -4.1621 *     5.0757 *     5.0757    0.0000     2          
   281  O     s      3.4515 *    -0.0000 *     7.6135 *  0.0000     4          
   282  O     s     -6.6999 *     5.0757 *     0.0000 *  0.0000     4          
   283  Zr    s     -5.4310 *    -6.3446 *     1.2689 *  0.0000     4          
   284  O     s      8.5271 *     0.0000       0.0000    0.0000     1          
   285  O     s     -4.1621 *    -7.6135 *     0.0000 *  0.0000     4          
   286  O     s      3.4515 *     7.6135 *    -2.5378 *  0.0000     4          
   287  O     s      3.4515 *     7.6135 *     2.5378 *  0.0000     4          
   288  Zr    s      4.7204 *     6.3446 *     3.8068 *  0.0000     4          
   289  O     s     -6.6999 *    -2.5378 *     5.0757 *  0.0000     4          
   290  O     s     -6.6999 *     2.5378 *     5.0757 *  0.0000     4          
   291  O     s      8.5271 *     2.5378 *    -0.0000 *  0.0000     4          
   292  Zr    s     -7.9688 *    -1.2689 *     3.8068 *  0.0000     4          
   293  Zr    s     -0.3553 *    -6.3446 *     6.3446    0.0000     2          
   294  Zr    s     -0.3553 *     1.2689 *     8.8824 *  0.0000     4          
   295  Zr    s      7.2582 *     3.8068 *     3.8068    0.0000     2          
   296  O     s     -4.1621 *    -2.5378 *     7.6135 *  0.0000     4          
   297  O     s     -4.1621 *     2.5378 *     7.6135 *  0.0000     4          
   298  Zr    s     -5.4310 *    -6.3446 *    -3.8068 *  0.0000     4          
   299  O     s      0.9136 *     7.6135 *    -5.0757 *  0.0000     4          
   300  O     s      0.9136 *     7.6135 *     5.0757 *  0.0000     4          
   301  Zr    s      2.1825 *     6.3446 *     6.3446    0.0000     2          
   302  Zr    s      2.1825 *    -1.2689 *     8.8824 *  0.0000     4          
   303  O     s     -9.2377 *    -0.0000      -0.0000    0.0000     1          
   304  O     s      8.5271 *     2.5378 *     2.5378    0.0000     2          
   305  O     s      8.5271 *     2.5378 *    -2.5378    0.0000     2          
   306  O     s     -1.6242 *     5.0757 *     7.6135 *  0.0000     4          
   307  O     s     -1.6242 *     5.0757 *    -7.6135 *  0.0000     4          
   308  O     s      5.9893 *     5.0757 *     5.0757    0.0000     2          
   309  O     s      5.9893 *    -5.0757 *     5.0757    0.0000     2          
   310  Zr    s     -2.8931 *     6.3446 *     6.3446    0.0000     2          
   311  Zr    s     -2.8931 *    -8.8824 *     1.2689 *  0.0000     4          
   312  O     s     -9.2377 *    -2.5378 *     0.0000 *  0.0000     4          
   313  Zr    s     -7.9688 *    -3.8068 *    -3.8068    0.0000     2          
   314  Zr    s     -0.3553 *    -8.8824 *     3.8068 *  0.0000     4          
   315  O     s      5.9893 *     7.6135 *     0.0000 *  0.0000     4          
   316  Zr    s      7.2582 *     6.3446 *     1.2689 *  0.0000     4          
   317  O     s      3.4515 *     7.6135 *     5.0757 *  0.0000     4          
   318  O     s      3.4515 *    -5.0757 *     7.6135 *  0.0000     4          
   319  O     s     -6.6999 *     5.0757 *     5.0757    0.0000     2          
   320  O     s     -6.6999 *    -5.0757 *     5.0757    0.0000     2          
   321  Zr    s      2.1825 *     3.8068 *     8.8824 *  0.0000     4          
   322  O     s     -9.2377 *    -2.5378 *    -2.5378    0.0000     2          
   323  O     s     -9.2377 *    -2.5378 *     2.5378    0.0000     2          
   324  O     s      8.5271 *     5.0757 *     0.0000 *  0.0000     4          
   325  Zr    s      9.7961 *     1.2689 *    -1.2689    0.0000     2          
   326  O     s      5.9893 *     7.6135 *    -2.5378 *  0.0000     4          
   327  O     s      5.9893 *     7.6135 *     2.5378 *  0.0000     4          
   328  O     s     -4.1621 *     7.6135 *     5.0757 *  0.0000     4          
   329  O     s     -4.1621 *    -7.6135 *     5.0757 *  0.0000     4          
   330  Zr    s     -2.8931 *     8.8824 *     3.8068 *  0.0000     4          
   331  Zr    s      4.7204 *    -6.3446 *     6.3446    0.0000     2          
   332  Zr    s      4.7204 *     8.8824 *     1.2689 *  0.0000     4          
   333  O     s     -6.6999 *    -0.0000 *     7.6135 *  0.0000     4          
   334  O     s      0.9136 *    -0.0000 *    10.1514 *  0.0000     4          
   335  O     s      8.5271 *     5.0757 *     2.5378 *  0.0000     4          
   336  O     s      8.5271 *     5.0757 *    -2.5378 *  0.0000     4          
   337  Zr    s     -7.9688 *    -6.3446 *    -1.2689 *  0.0000     4          
   338  O     s     -1.6242 *    -0.0000 *    10.1514 *  0.0000     4          
   339  Zr    s      7.2582 *     6.3446 *    -3.8068 *  0.0000     4          
   340  O     s     -6.6999 *    -7.6135 *    -2.5378 *  0.0000     4          
   341  O     s     -6.6999 *    -7.6135 *     2.5378 *  0.0000     4          
   342  Zr    s     -5.4310 *    -8.8824 *    -1.2689 *  0.0000     4          
   343  Zr    s     -5.4310 *    -6.3446 *     6.3446    0.0000     2          
   344  O     s      0.9136 *     2.5378 *    10.1514 *  0.0000     4          
   345  O     s      0.9136 *    -2.5378 *    10.1514 *  0.0000     4          
   346  O     s     -9.2377 *    -0.0000 *     5.0757 *  0.0000     4          
   347  Zr    s      9.7961 *     3.8068 *     1.2689 *  0.0000     4          
   348  O     s     -1.6242 *    -2.5378 *    10.1514 *  0.0000     4          
   349  O     s     -1.6242 *     2.5378 *    10.1514 *  0.0000     4          
   350  Zr    s    -10.5067 *    -1.2689 *     1.2689    0.0000     2          
   351  O     s      3.4515 *     0.0000 *    10.1514 *  0.0000     4          
   352  Zr    s      4.7204 *     8.8824 *    -3.8068 *  0.0000     4          
   353  O     s      0.9136 *     7.6135 *     7.6135    0.0000     2          
   354  O     s      0.9136 *    -7.6135 *     7.6135    0.0000     2          
   355  O     s     -9.2377 *    -5.0757 *    -2.5378 *  0.0000     4          
   356  O     s     -9.2377 *    -5.0757 *     2.5378 *  0.0000     4          
   357  Zr    s     -7.9688 *     3.8068 *    -6.3446 *  0.0000     4          
   358  O     s     -1.6242 *    -7.6135 *     7.6135    0.0000     2          
   359  O     s     -1.6242 *     7.6135 *     7.6135    0.0000     2          
   360  Zr    s     -0.3553 *     6.3446 *     8.8824 *  0.0000     4          
   361  O     s      5.9893 *    -5.0757 *     7.6135 *  0.0000     4          
   362  O     s      5.9893 *     7.6135 *     5.0757 *  0.0000     4          
   363  O     s     -4.1621 *    10.1514 *    -0.0000 *  0.0000     4          
   364  O     s      3.4515 *     2.5378 *    10.1514 *  0.0000     4          
   365  O     s      3.4515 *    -2.5378 *    10.1514 *  0.0000     4          
   366  O     s     11.0650 *    -0.0000      -0.0000    0.0000     1          
   367  Zr    s     -5.4310 *    -8.8824 *     3.8068 *  0.0000     4          
   368  Zr    s      2.1825 *    -8.8824 *     6.3446 *  0.0000     4          
   369  O     s      8.5271 *     5.0757 *     5.0757    0.0000     2          
   370  O     s      8.5271 *     5.0757 *    -5.0757    0.0000     2          
   371  Zr    s      9.7961 *     3.8068 *    -3.8068    0.0000     2          
   372  Zr    s    -10.5067 *     1.2689 *     3.8068 *  0.0000     4          
   373  O     s     -4.1621 *   -10.1514 *     2.5378 *  0.0000     4          
   374  O     s     -4.1621 *     2.5378 *    10.1514 *  0.0000     4          
   375  Zr    s     -2.8931 *    -8.8824 *     6.3446 *  0.0000     4          
   376  O     s      3.4515 *     7.6135 *    -7.6135    0.0000     2          
   377  O     s      3.4515 *     7.6135 *     7.6135    0.0000     2          
   378  O     s     -6.6999 *     5.0757 *     7.6135 *  0.0000     4          
   379  O     s     -6.6999 *    -7.6135 *     5.0757 *  0.0000     4          
   380  O     s     11.0650 *     2.5378 *     0.0000 *  0.0000     4          
   381  O     s      0.9136 *     5.0757 *    10.1514 *  0.0000     4          
   382  O     s      0.9136 *    -5.0757 *    10.1514 *  0.0000     4          
   383  O     s      8.5271 *     7.6135 *    -0.0000 *  0.0000     4          
   384  O     s     -1.6242 *   -10.1514 *     5.0757 *  0.0000     4          
   385  O     s     -1.6242 *     5.0757 *    10.1514 *  0.0000     4          
   386  Zr    s     -0.3553 *    -1.2689 *    11.4203 *  0.0000     4          
   387  Zr    s      7.2582 *     6.3446 *     6.3446    0.0000     2          
   388  Zr    s      7.2582 *    -1.2689 *     8.8824 *  0.0000     4          
   389  O     s     -4.1621 *     7.6135 *     7.6135    0.0000     2          
   390  O     s     -4.1621 *    -7.6135 *     7.6135    0.0000     2          
   391  O     s     11.0650 *    -2.5378 *     2.5378    0.0000     2          
   392  O     s     11.0650 *     2.5378 *     2.5378    0.0000     2          
   393  Zr    s      2.1825 *     1.2689 *    11.4203 *  0.0000     4          
   394  O     s     -9.2377 *     5.0757 *     5.0757    0.0000     2          
   395  O     s     -9.2377 *    -5.0757 *     5.0757    0.0000     2          
   396  O     s      8.5271 *    -2.5378 *     7.6135 *  0.0000     4          
   397  O     s      8.5271 *     2.5378 *     7.6135 *  0.0000     4          
   398  Zr    s      9.7961 *    -1.2689 *     6.3446 *  0.0000     4          
   399  O     s    -11.7756 *    -0.0000       0.0000    0.0000     1          
   400  O     s      5.9893 *    -0.0000 *    10.1514 *  0.0000     4          
   401  Zr    s    -10.5067 *    -3.8068 *     3.8068    0.0000     2          
   402  Zr    s     -2.8931 *     1.2689 *    11.4203 *  0.0000     4          
   403  O     s      3.4515 *    -5.0757 *    10.1514 *  0.0000     4          
   404  O     s      3.4515 *    10.1514 *     5.0757 *  0.0000     4          
   405  Zr    s      4.7204 *     8.8824 *     6.3446 *  0.0000     4          
   406  O     s     -9.2377 *    -7.6135 *     0.0000 *  0.0000     4          
--------------------------------------------------------------------------------


  Constraints on symmetry reduced coordinates :

--------------------------------------------------------------------------------
  Constraint no.      Unconstrained     Constrained    Coefficient    
                         Variable         Variable
--------------------------------------------------------------------------------
           1                 2 y             2 z        -1.00000
           2                 4 y             4 z         1.00000
           3                 6 y             6 z         1.00000
           4                 8 y             8 z         1.00000
           5                 9 y             9 z        -1.00000
           6                10 y            10 z        -1.00000
           7                11 y            11 z         1.00000
           8                18 y            18 z         1.00000
           9                19 y            19 z        -1.00000
          10                20 y            20 z        -1.00000
          11                23 y            23 z        -1.00000
          12                24 y            24 z        -1.00000
          13                25 y            25 z         1.00000
          14                26 y            26 z        -1.00000
          15                29 y            29 z         1.00000
          16                33 y            33 z         1.00000
          17                44 y            44 z         1.00000
          18                45 y            45 z        -1.00000
          19                49 y            49 z        -1.00000
          20                51 y            51 z         1.00000
          21                52 y            52 z        -1.00000
          22                53 y            53 z         1.00000
          23                54 y            54 z        -1.00000
          24                56 y            56 z         1.00000
          25                57 y            57 z         1.00000
          26                58 y            58 z        -1.00000
          27                59 y            59 z        -1.00000
          28                65 y            65 z         1.00000
          29                66 y            66 z        -1.00000
          30                70 y            70 z         1.00000
          31                76 y            76 z        -1.00000
          32                77 y            77 z         1.00000
          33                90 y            90 z        -1.00000
          34                92 y            92 z         1.00000
          35                98 y            98 z         1.00000
          36               101 y           101 z         1.00000
          37               102 y           102 z        -1.00000
          38               105 y           105 z         1.00000
          39               106 y           106 z        -1.00000
          40               107 y           107 z         1.00000
          41               110 y           110 z         1.00000
          42               116 y           116 z         1.00000
          43               117 y           117 z        -1.00000
          44               119 y           119 z         1.00000
          45               120 y           120 z        -1.00000
          46               122 y           122 z        -1.00000
          47               128 y           128 z        -1.00000
          48               140 y           140 z        -1.00000
          49               147 y           147 z        -1.00000
          50               150 y           150 z         1.00000
          51               151 y           151 z        -1.00000
          52               155 y           155 z        -1.00000
          53               156 y           156 z         1.00000
          54               166 y           166 z         1.00000
          55               167 y           167 z        -1.00000
          56               168 y           168 z        -1.00000
          57               173 y           173 z        -1.00000
          58               174 y           174 z         1.00000
          59               184 y           184 z         1.00000
          60               186 y           186 z         1.00000
          61               187 y           187 z        -1.00000
          62               188 y           188 z        -1.00000
          63               189 y           189 z         1.00000
          64               191 y           191 z         1.00000
          65               192 y           192 z        -1.00000
          66               198 y           198 z        -1.00000
          67               205 y           205 z        -1.00000
          68               207 y           207 z         1.00000
          69               209 y           209 z         1.00000
          70               211 y           211 z         1.00000
          71               212 y           212 z        -1.00000
          72               213 y           213 z        -1.00000
          73               214 y           214 z         1.00000
          74               221 y           221 z         1.00000
          75               222 y           222 z        -1.00000
          76               223 y           223 z        -1.00000
          77               226 y           226 z        -1.00000
          78               227 y           227 z        -1.00000
          79               228 y           228 z         1.00000
          80               229 y           229 z        -1.00000
          81               232 y           232 z         1.00000
          82               236 y           236 z         1.00000
          83               247 y           247 z         1.00000
          84               248 y           248 z        -1.00000
          85               252 y           252 z        -1.00000
          86               254 y           254 z         1.00000
          87               255 y           255 z        -1.00000
          88               256 y           256 z         1.00000
          89               257 y           257 z        -1.00000
          90               259 y           259 z         1.00000
          91               260 y           260 z         1.00000
          92               261 y           261 z        -1.00000
          93               262 y           262 z        -1.00000
          94               268 y           268 z         1.00000
          95               269 y           269 z        -1.00000
          96               273 y           273 z         1.00000
          97               279 y           279 z        -1.00000
          98               280 y           280 z         1.00000
          99               293 y           293 z        -1.00000
         100               295 y           295 z         1.00000
         101               301 y           301 z         1.00000
         102               304 y           304 z         1.00000
         103               305 y           305 z        -1.00000
         104               308 y           308 z         1.00000
         105               309 y           309 z        -1.00000
         106               310 y           310 z         1.00000
         107               313 y           313 z         1.00000
         108               319 y           319 z         1.00000
         109               320 y           320 z        -1.00000
         110               322 y           322 z         1.00000
         111               323 y           323 z        -1.00000
         112               325 y           325 z        -1.00000
         113               331 y           331 z        -1.00000
         114               343 y           343 z        -1.00000
         115               350 y           350 z        -1.00000
         116               353 y           353 z         1.00000
         117               354 y           354 z        -1.00000
         118               358 y           358 z        -1.00000
         119               359 y           359 z         1.00000
         120               369 y           369 z         1.00000
         121               370 y           370 z        -1.00000
         122               371 y           371 z        -1.00000
         123               376 y           376 z        -1.00000
         124               377 y           377 z         1.00000
         125               387 y           387 z         1.00000
         126               389 y           389 z         1.00000
         127               390 y           390 z        -1.00000
         128               391 y           391 z        -1.00000
         129               392 y           392 z         1.00000
         130               394 y           394 z         1.00000
         131               395 y           395 z        -1.00000
         132               401 y           401 z        -1.00000
--------------------------------------------------------------------------------


  Components of defect energy : 

--------------------------------------------------------------------------------
  Region 1 - region 1                   =      1.14811563 eV
  Region 1 - region 2a (unrelaxed)      =     30.10760775 eV
  Region 1 - 2a (relaxed - correction)  =     -2.35296681 eV
  Region 1 (Total)                      =     28.90275657 eV
  Region 2a                             =      1.17650793 eV
  Region 2b                             =     -1.15665092 eV
--------------------------------------------------------------------------------
  Total defect energy                   =     28.92261358 eV
--------------------------------------------------------------------------------

  Largest displacement in region 2 =   0.0055 Angstroms


  Number of variables =     1048

  Maximum number of calculations  =        1000
  Maximum Hessian update interval =          10
  Maximum step size               =   1.0000000
  Maximum parameter tolerance     =   0.0000100
  Maximum function  tolerance     =   0.0000100
  Maximum gradient  tolerance     =   0.0010000

  Symmetry adapted optimisation

  Symmetry to be used for second derivatives

  Newton-Raphson optimiser to be used

  BFGS hessian update to be used

  Lower half triangular hessian to be used

  Start of defect optimisation :

  Cycle:      0 Defect Energy:  28.922614  Gnorm:     0.084852  CPU:    4.758
  ** Hessian calculated **
  Cycle:      1 Defect Energy:  21.079498  Gnorm:     0.032767  CPU:   14.371
  Cycle:      2 Defect Energy:  16.969683  Gnorm:     0.016884  CPU:   22.837
  Cycle:      3 Defect Energy:  16.468516  Gnorm:     0.013123  CPU:   28.529
  Cycle:      4 Defect Energy:  15.873778  Gnorm:     0.008375  CPU:   36.981
  Cycle:      5 Defect Energy:  15.507401  Gnorm:     0.007552  CPU:   44.049
  Cycle:      6 Defect Energy:  15.365476  Gnorm:     0.007192  CPU:   51.113
  Cycle:      7 Defect Energy:  15.228669  Gnorm:     0.004910  CPU:   58.168
  Cycle:      8 Defect Energy:  15.114823  Gnorm:     0.003884  CPU:   65.230
  Cycle:      9 Defect Energy:  15.031283  Gnorm:     0.003964  CPU:   72.296
  Cycle:     10 Defect Energy:  14.943824  Gnorm:     0.003685  CPU:   79.400
  ** Hessian calculated **
  Cycle:     11 Defect Energy:  14.892793  Gnorm:     0.003358  CPU:   86.470
  Cycle:     12 Defect Energy:  14.826255  Gnorm:     0.002878  CPU:   87.973
  Cycle:     13 Defect Energy:  14.748375  Gnorm:     0.002196  CPU:   89.492
  Cycle:     14 Defect Energy:  14.694723  Gnorm:     0.001579  CPU:   90.999
  Cycle:     15 Defect Energy:  14.667966  Gnorm:     0.001161  CPU:   92.501
  Cycle:     16 Defect Energy:  14.654373  Gnorm:     0.000878  CPU:   94.002
  Cycle:     17 Defect Energy:  14.647329  Gnorm:     0.000687  CPU:   95.507
  Cycle:     18 Defect Energy:  14.643384  Gnorm:     0.000551  CPU:   97.009
  Cycle:     19 Defect Energy:  14.641009  Gnorm:     0.000449  CPU:   98.511
  Cycle:     20 Defect Energy:  14.639752  Gnorm:     0.000367  CPU:  100.028
  ** Hessian calculated **
  Cycle:     21 Defect Energy:  14.638781  Gnorm:     0.000274  CPU:  107.023
  Cycle:     22 Defect Energy:  14.638336  Gnorm:     0.000213  CPU:  108.520
  Cycle:     23 Defect Energy:  14.638070  Gnorm:     0.000158  CPU:  110.035
  Cycle:     24 Defect Energy:  14.637977  Gnorm:     0.000114  CPU:  111.537
  Cycle:     25 Defect Energy:  14.637939  Gnorm:     0.000082  CPU:  113.033
  Cycle:     26 Defect Energy:  14.637926  Gnorm:     0.000058  CPU:  114.538
  Cycle:     27 Defect Energy:  14.637924  Gnorm:     0.000041  CPU:  116.046
  Cycle:     28 Defect Energy:  14.637926  Gnorm:     0.000029  CPU:  117.549


  **** Optimisation achieved ****


  Final defect energy  =       14.63792872
  Final defect Gnorm   =        0.00002048

  Components of defect energy : 

--------------------------------------------------------------------------------
  Region 1 - region 1                   =     -4.25214022 eV
  Region 1 - region 2a (unrelaxed)      =     21.08209626 eV
  Region 1 - 2a (relaxed - correction)  =     -2.07158938 eV
  Region 1 (Total)                      =     14.75836666 eV
  Region 2a                             =      1.03569686 eV
  Region 2b                             =     -1.15613481 eV
--------------------------------------------------------------------------------
  Total defect energy                   =     14.63792872 eV
--------------------------------------------------------------------------------

  Largest displacement in region 2 =   0.0055 Angstroms

  Final coordinates of region 1 :

--------------------------------------------------------------------------------
   No.  Atomic        x           y           z          Radius      Charge
        Label       (Angs)      (Angs)      (Angs)       (Angs)       (e) 
--------------------------------------------------------------------------------
     1  O     c     2.893140    1.268921    1.268921    0.000000    0.077000
     2  Zr    c     2.579954   -0.042634    2.580476    0.000000    2.650000
     3  Zr    c     2.579954    2.580476   -0.042634    0.000000    2.650000
     4  O     c     3.898819    3.754011    1.218237    0.000000    0.077000
     5  O     c     3.898819    1.218237    3.754011    0.000000    0.077000
     6  O     c     3.898819    1.319605   -1.216169    0.000000    0.077000
     7  O     c     3.898819   -1.216169    1.319605    0.000000    0.077000
     8  Zr    c     5.120181   -0.041555   -0.041555    0.000000    2.650000
     9  Zr    c     5.120181    2.579397    2.579397    0.000000    2.650000
    10  O     c     1.286565    1.276895    3.681634    0.000000    0.077000
    11  O     c     1.286565    3.681634    1.276895    0.000000    0.077000
    12  O     c     1.286565   -1.143792    1.260947    0.000000    0.077000
    13  O     c     1.286565    1.260947   -1.143792    0.000000    0.077000
    14  Zr    c    -0.027420   -0.040809   -0.040809    0.000000    2.650000
    15  Zr    c    -0.027420    2.578651    2.578651    0.000000    2.650000
    16  O     c     5.791668    1.268921    1.268921    0.000000    0.077000
    17  O     c     3.771212    3.790334    3.790334    0.000000    0.077000
    18  O     c     3.771212   -1.252492   -1.252492    0.000000    0.077000
    19  O     c     3.778462   -1.313355    3.851197    0.000000    0.077000
    20  O     c     3.778462    3.851197   -1.313355    0.000000    0.077000
    21  O     c     1.247927   -1.294458    3.832300    0.000000    0.077000
    22  O     c     1.247927    3.832300   -1.294458    0.000000    0.077000
    23  O     c     1.252854    3.844415    3.844415    0.000000    0.077000
    24  O     c     1.252854   -1.306573   -1.306573    0.000000    0.077000
    25  Zr    c     2.542674    2.563750    5.096547    0.000000    2.650000
    26  Zr    c     2.542674    5.096547    2.563750    0.000000    2.650000
    27  Zr    c     2.542674   -2.558705   -0.025909    0.000000    2.650000
    28  Zr    c     2.542674   -0.025909   -2.558705    0.000000    2.650000
    29  O     c    -0.287985    1.268921    1.268921    0.000000    0.077000
    30  O     c     6.454255    3.779274    1.316643    0.000000    0.077000
    31  O     c     6.454255    1.316643    3.779274    0.000000    0.077000
    32  O     c     6.454255    1.221199   -1.241432    0.000000    0.077000
    33  O     c     6.454255   -1.241432    1.221199    0.000000    0.077000
    34  Zr    c     5.088695    2.552325   -2.556738    0.000000    2.650000
    35  Zr    c     5.088695    5.094579   -0.014483    0.000000    2.650000
    36  Zr    c     5.088695   -2.556738    2.552325    0.000000    2.650000
    37  Zr    c     5.088695   -0.014483    5.094579    0.000000    2.650000
    38  O     c    -1.333720    1.308495    3.742556    0.000000    0.077000
    39  O     c    -1.333720    3.742556    1.308495    0.000000    0.077000
    40  O     c    -1.333720   -1.204715    1.229347    0.000000    0.077000
    41  O     c    -1.333720    1.229347   -1.204715    0.000000    0.077000
    42  Zr    c    -0.003054    2.565736   -2.559286    0.000000    2.650000
    43  Zr    c    -0.003054   -2.559286    2.565736    0.000000    2.650000
    44  Zr    c    -0.003054   -0.027895    5.097128    0.000000    2.650000
    45  Zr    c    -0.003054    5.097128   -0.027895    0.000000    2.650000
    46  O     c     6.295175    3.834635    3.834635    0.000000    0.077000
    47  O     c     6.295175   -1.296794   -1.296794    0.000000    0.077000
    48  O     c     6.309288    3.783134   -1.245293    0.000000    0.077000
    49  O     c     6.309288   -1.245293    3.783134    0.000000    0.077000
    50  Zr    c     7.636700    2.567204   -0.029363    0.000000    2.650000
    51  Zr    c     7.636700   -0.029363    2.567204    0.000000    2.650000
    52  O     c     3.780740    1.277857    6.309003    0.000000    0.077000
    53  O     c     3.780740    6.309003    1.277857    0.000000    0.077000
    54  O     c     3.780740   -3.771161    1.259985    0.000000    0.077000
    55  O     c     3.780740    1.259985   -3.771161    0.000000    0.077000
    56  O     c     1.252356   -3.718064    1.269041    0.000000    0.077000
    57  O     c     1.252356    1.269041   -3.718064    0.000000    0.077000
    58  O     c     1.252356    1.268801    6.255906    0.000000    0.077000
    59  O     c     1.252356    6.255906    1.268801    0.000000    0.077000
    60  Zr    c     2.543679   -2.561118    5.098960    0.000000    2.650000
    61  Zr    c     2.543679    5.098960   -2.561118    0.000000    2.650000
    62  O     c    -1.272702    3.801538   -1.263696    0.000000    0.077000
    63  O     c    -1.272702   -1.263696    3.801538    0.000000    0.077000
    64  O     c    -1.277691    3.844282    3.844282    0.000000    0.077000
    65  O     c    -1.277691   -1.306441   -1.306441    0.000000    0.077000
    66  Zr    c    -2.584068   -0.047986    2.585827    0.000000    2.650000
    67  Zr    c    -2.584068    2.585827   -0.047986    0.000000    2.650000
    68  O     c     3.819852   -3.833651    3.794129    0.000000    0.077000
    69  O     c     3.819852    3.794129   -3.833651    0.000000    0.077000
    70  O     c     3.819852   -1.256287    6.371493    0.000000    0.077000
    71  O     c     3.819852    6.371493   -1.256287    0.000000    0.077000
    72  O     c     3.814360    6.324408    3.805669    0.000000    0.077000
    73  O     c     3.814360    3.805669    6.324408    0.000000    0.077000
    74  O     c     3.814360   -1.267827   -3.786566    0.000000    0.077000
    75  O     c     3.814360   -3.786566   -1.267827    0.000000    0.077000
    76  Zr    c     5.088534    5.095822    5.095822    0.000000    2.650000
    77  Zr    c     5.088534   -2.557980   -2.557980    0.000000    2.650000
    78  O     c     1.286707    6.364298    3.793134    0.000000    0.077000
    79  O     c     1.286707    3.793134    6.364298    0.000000    0.077000
    80  O     c     1.286707   -3.826456   -1.255292    0.000000    0.077000
    81  O     c     1.286707   -1.255292   -3.826456    0.000000    0.077000
    82  O     c     1.273859    6.354564   -1.257274    0.000000    0.077000
    83  O     c     1.273859   -1.257274    6.354564    0.000000    0.077000
    84  O     c     1.273859   -3.816722    3.795116    0.000000    0.077000
    85  O     c     1.273859    3.795116   -3.816722    0.000000    0.077000
    86  O     c     8.554559    1.268921    1.268921    0.000000    0.077000
    87  Zr    c    -0.003249    5.097362    5.097362    0.000000    2.650000
    88  Zr    c    -0.003249   -2.559520   -2.559520    0.000000    2.650000
    89  O     c     6.317825    6.326674    1.259553    0.000000    0.077000
[...]
    326 y          8.882446      8.886148     0.003701    Cartesian    0.04
    326 z         -1.268921     -1.267295     0.001626    Cartesian   -0.13
    327 x          8.882446      8.873728    -0.008718    Cartesian   -0.10
    327 y          8.882446      8.879479    -0.002967    Cartesian   -0.03
    327 z          3.806763      3.808225     0.001462    Cartesian    0.04
    328 x         -1.268921     -1.268095     0.000826    Cartesian   -0.07
    328 y          8.882446      8.878032    -0.004414    Cartesian   -0.05
    328 z          6.344605      6.341113    -0.003492    Cartesian   -0.06
    329 x         -1.268921     -1.266284     0.002637    Cartesian   -0.21
    329 y         -6.344605     -6.346113    -0.001508    Cartesian    0.02
    329 z          6.344605      6.342933    -0.001672    Cartesian   -0.03
    330 x          0.000000      0.000996     0.000996    Cartesian    0.00
    330 y         10.151367     10.156284     0.004917    Cartesian    0.05
    330 z          5.075684      5.074123    -0.001561    Cartesian   -0.03
    331 x          7.613525      7.615657     0.002132    Cartesian    0.03
    331 y         -5.075684     -5.080133    -0.004449    Cartesian    0.09
    331 z          7.613525      7.617975     0.004449    Cartesian    0.06
    332 x          7.613525      7.614458     0.000933    Cartesian    0.01
    332 y         10.151367     10.154482     0.003115    Cartesian    0.03
    332 z          2.537842      2.537783    -0.000059    Cartesian   -0.00
    333 x         -3.806763     -3.799599     0.007164    Cartesian   -0.19
    333 y          1.268921      1.265708    -0.003213    Cartesian   -0.25
    333 z          8.882446      8.874637    -0.007810    Cartesian   -0.09
    334 x          3.806763      3.802545    -0.004218    Cartesian   -0.11
    334 y          1.268921      1.269409     0.000489    Cartesian    0.04
    334 z         11.420288     11.410785    -0.009504    Cartesian   -0.08
    335 x         11.420288     11.425215     0.004927    Cartesian    0.04
    335 y          6.344605      6.344524    -0.000080    Cartesian   -0.00
    335 z          3.806763      3.810349     0.003586    Cartesian    0.09
    336 x         11.420288     11.429096     0.008808    Cartesian    0.08
    336 y          6.344605      6.340845    -0.003760    Cartesian   -0.06
    336 z         -1.268921     -1.270896    -0.001976    Cartesian    0.16
    337 x         -5.075684     -5.080227    -0.004544    Cartesian    0.09
    337 y         -5.075684     -5.080659    -0.004976    Cartesian    0.10
    337 z          0.000000     -0.002343    -0.002343    Cartesian    0.00
    338 x          1.268921      1.266014    -0.002907    Cartesian   -0.23
    338 y          1.268921      1.268362    -0.000559    Cartesian   -0.04
    338 z         11.420288     11.395702    -0.024587    Cartesian   -0.22
    339 x         10.151367     10.156990     0.005623    Cartesian    0.06
    339 y          7.613525      7.617755     0.004229    Cartesian    0.06
    339 z         -2.537842     -2.537296     0.000546    Cartesian   -0.02
    340 x         -3.806763     -3.811119    -0.004356    Cartesian    0.11
    340 y         -6.344605     -6.336317     0.008288    Cartesian   -0.13
    340 z         -1.268921     -1.267223     0.001698    Cartesian   -0.13
    341 x         -3.806763     -3.808282    -0.001519    Cartesian    0.04
    341 y         -6.344605     -6.347314    -0.002709    Cartesian    0.04
    341 z          3.806763      3.805243    -0.001520    Cartesian   -0.04
    342 x         -2.537842     -2.536450     0.001391    Cartesian   -0.05
    342 y         -7.613525     -7.618474    -0.004948    Cartesian    0.06
    342 z          0.000000     -0.000437    -0.000437    Cartesian    0.00
    343 x         -2.537842     -2.536425     0.001417    Cartesian   -0.06
    343 y         -5.075684     -5.083409    -0.007725    Cartesian    0.15
    343 z          7.613525      7.621251     0.007725    Cartesian    0.10
    344 x          3.806763      3.803463    -0.003299    Cartesian   -0.09
    344 y          3.806763      3.805535    -0.001227    Cartesian   -0.03
    344 z         11.420288     11.411877    -0.008411    Cartesian   -0.07
    345 x          3.806763      3.807070     0.000308    Cartesian    0.01
    345 y         -1.268921     -1.267766     0.001155    Cartesian   -0.09
    345 z         11.420288     11.426718     0.006429    Cartesian    0.06
    346 x         -6.344605     -6.343044     0.001560    Cartesian   -0.02
    346 y          1.268921      1.261135    -0.007786    Cartesian   -0.61
    346 z          6.344605      6.337499    -0.007106    Cartesian   -0.11
    347 x         12.689209     12.696863     0.007654    Cartesian    0.06
    347 y          5.075684      5.075450    -0.000234    Cartesian   -0.00
    347 z          2.537842      2.535238    -0.002604    Cartesian   -0.10
    348 x          1.268921      1.267603    -0.001318    Cartesian   -0.10
    348 y         -1.268921     -1.267040     0.001881    Cartesian   -0.15
    348 z         11.420288     11.421886     0.001598    Cartesian    0.01
    349 x          1.268921      1.270753     0.001832    Cartesian    0.14
    349 y          3.806763      3.804885    -0.001878    Cartesian   -0.05
    349 z         11.420288     11.425521     0.005233    Cartesian    0.05
    350 x         -7.613525     -7.604031     0.009494    Cartesian   -0.12
    350 y         -0.000000     -0.017172    -0.017172    Cartesian *******
    350 z          2.537842      2.555013     0.017172    Cartesian    0.68
    351 x          6.344605      6.341472    -0.003133    Cartesian   -0.05
    351 y          1.268921      1.267469    -0.001452    Cartesian   -0.11
    351 z         11.420288     11.416116    -0.004172    Cartesian   -0.04
    352 x          7.613525      7.617549     0.004024    Cartesian    0.05
    352 y         10.151367     10.155792     0.004424    Cartesian    0.04
    352 z         -2.537842     -2.539674    -0.001832    Cartesian    0.07
    353 x          3.806763      3.807309     0.000546    Cartesian    0.01
    353 y          8.882446      8.880796    -0.001650    Cartesian   -0.02
    353 z          8.882446      8.880796    -0.001650    Cartesian   -0.02
    354 x          3.806763      3.800898    -0.005865    Cartesian   -0.15
    354 y         -6.344605     -6.342777     0.001827    Cartesian   -0.03
    354 z          8.882446      8.880619    -0.001827    Cartesian   -0.02
    355 x         -6.344605     -6.336997     0.007607    Cartesian   -0.12
    355 y         -3.806763     -3.811005    -0.004242    Cartesian    0.11
    355 z         -1.268921     -1.269390    -0.000469    Cartesian    0.04
    356 x         -6.344605     -6.343692     0.000913    Cartesian   -0.01
    356 y         -3.806763     -3.802011     0.004752    Cartesian   -0.12
    356 z          3.806763      3.806366    -0.000396    Cartesian   -0.01
    357 x         -5.075684     -5.078914    -0.003230    Cartesian    0.06
    357 y          5.075684      5.079071     0.003387    Cartesian    0.07
    357 z         -5.075684     -5.084105    -0.008421    Cartesian    0.17
    358 x          1.268921      1.270374     0.001453    Cartesian    0.11
    358 y         -6.344605     -6.343458     0.001147    Cartesian   -0.02
    358 z          8.882446      8.881300    -0.001147    Cartesian   -0.01
    359 x          1.268921      1.265588    -0.003333    Cartesian   -0.26
    359 y          8.882446      8.880312    -0.002134    Cartesian   -0.02
    359 z          8.882446      8.880312    -0.002134    Cartesian   -0.02
    360 x          2.537842      2.539450     0.001609    Cartesian    0.06
    360 y          7.613525      7.616830     0.003305    Cartesian    0.04
    360 z         10.151367     10.158036     0.006669    Cartesian    0.07
    361 x          8.882446      8.881379    -0.001067    Cartesian   -0.01
    361 y         -3.806763     -3.805887     0.000875    Cartesian   -0.02
    361 z          8.882446      8.879755    -0.002692    Cartesian   -0.03
    362 x          8.882446      8.883004     0.000558    Cartesian    0.01
    362 y          8.882446      8.882836     0.000390    Cartesian    0.00
    362 z          6.344605      6.342118    -0.002487    Cartesian   -0.04
    363 x         -1.268921     -1.271323    -0.002403    Cartesian    0.19
    363 y         11.420288     11.407314    -0.012974    Cartesian   -0.11
    363 z          1.268921      1.265887    -0.003034    Cartesian   -0.24
    364 x          6.344605      6.343301    -0.001304    Cartesian   -0.02
    364 y          3.806763      3.806243    -0.000520    Cartesian   -0.01
    364 z         11.420288     11.424044     0.003755    Cartesian    0.03
    365 x          6.344605      6.343364    -0.001241    Cartesian   -0.02
    365 y         -1.268921     -1.266506     0.002415    Cartesian   -0.19
    365 z         11.420288     11.411501    -0.008787    Cartesian   -0.08
    366 x         13.958130     13.882345    -0.075785    Cartesian   -0.54
    366 y          1.268921      1.268921     0.000000    Cartesian    0.00
    366 z          1.268921      1.268921     0.000000    Cartesian    0.00
    367 x         -2.537842     -2.541162    -0.003320    Cartesian    0.13
    367 y         -7.613525     -7.620513    -0.006988    Cartesian    0.09
    367 z          5.075684      5.077379     0.001696    Cartesian    0.03
    368 x          5.075684      5.077925     0.002242    Cartesian    0.04
    368 y         -7.613525     -7.619735    -0.006209    Cartesian    0.08
    368 z          7.613525      7.617104     0.003578    Cartesian    0.05
    369 x         11.420288     11.410927    -0.009361    Cartesian   -0.08
    369 y          6.344605      6.341812    -0.002793    Cartesian   -0.04
    369 z          6.344605      6.341812    -0.002793    Cartesian   -0.04
    370 x         11.420288     11.417196    -0.003092    Cartesian   -0.03
    370 y          6.344605      6.344373    -0.000232    Cartesian   -0.00
    370 z         -3.806763     -3.806531     0.000232    Cartesian   -0.01
    371 x         12.689209     12.694099     0.004889    Cartesian    0.04
    371 y          5.075684      5.082092     0.006408    Cartesian    0.13
    371 z         -2.537842     -2.544250    -0.006408    Cartesian    0.25
    372 x         -7.613525     -7.625680    -0.012155    Cartesian    0.16
    372 y          2.537842      2.534701    -0.003141    Cartesian   -0.12
    372 z          5.075684      5.076919     0.001236    Cartesian    0.02
    373 x         -1.268921     -1.266185     0.002736    Cartesian   -0.22
    373 y         -8.882446     -8.872341     0.010106    Cartesian   -0.11
    373 z          3.806763      3.805670    -0.001093    Cartesian   -0.03
    374 x         -1.268921     -1.267538     0.001383    Cartesian   -0.11
    374 y          3.806763      3.802833    -0.003930    Cartesian   -0.10
    374 z         11.420288     11.420619     0.000331    Cartesian    0.00
    375 x          0.000000     -0.000771    -0.000771    Cartesian *******
    375 y         -7.613525     -7.621943    -0.008418    Cartesian    0.11
    375 z          7.613525      7.617668     0.004143    Cartesian    0.05
    376 x          6.344605      6.343096    -0.001509    Cartesian   -0.02
    376 y          8.882446      8.879890    -0.002557    Cartesian   -0.03
    376 z         -6.344605     -6.342048     0.002557    Cartesian   -0.04
    377 x          6.344605      6.340211    -0.004393    Cartesian   -0.07
    377 y          8.882446      8.880894    -0.001552    Cartesian   -0.02
    377 z          8.882446      8.880894    -0.001552    Cartesian   -0.02
    378 x         -3.806763     -3.799294     0.007469    Cartesian   -0.20
    378 y          6.344605      6.338250    -0.006355    Cartesian   -0.10
    378 z          8.882446      8.876432    -0.006014    Cartesian   -0.07
    379 x         -3.806763     -3.806742     0.000020    Cartesian   -0.00
    379 y         -6.344605     -6.339788     0.004817    Cartesian   -0.08
    379 z          6.344605      6.343168    -0.001437    Cartesian   -0.02
    380 x         13.958130     13.984560     0.026430    Cartesian    0.19
    380 y          3.806763      3.801275    -0.005488    Cartesian   -0.14
    380 z          1.268921      1.265150    -0.003771    Cartesian   -0.30
    381 x          3.806763      3.806132    -0.000631    Cartesian   -0.02
    381 y          6.344605      6.344128    -0.000477    Cartesian   -0.01
    381 z         11.420288     11.417238    -0.003050    Cartesian   -0.03
    382 x          3.806763      3.804377    -0.002385    Cartesian   -0.06
    382 y         -3.806763     -3.804517     0.002246    Cartesian   -0.06
    382 z         11.420288     11.412942    -0.007347    Cartesian   -0.06
    383 x         11.420288     11.421661     0.001373    Cartesian    0.01
    383 y          8.882446      8.880751    -0.001696    Cartesian   -0.02
    383 z          1.268921      1.270325     0.001404    Cartesian    0.11
    384 x          1.268921      1.268271    -0.000650    Cartesian   -0.05
    384 y         -8.882446     -8.875048     0.007398    Cartesian   -0.08
    384 z          6.344605      6.343436    -0.001169    Cartesian   -0.02
    385 x          1.268921      1.269885     0.000964    Cartesian    0.08
    385 y          6.344605      6.341554    -0.003051    Cartesian   -0.05
    385 z         11.420288     11.410920    -0.009368    Cartesian   -0.08
    386 x          2.537842      2.539762     0.001920    Cartesian    0.08
    386 y         -0.000000     -0.003978    -0.003978    Cartesian *******
    386 z         12.689209     12.697095     0.007886    Cartesian    0.06
    387 x         10.151367     10.156302     0.004935    Cartesian    0.05
    387 y          7.613525      7.620077     0.006552    Cartesian    0.09
    387 z          7.613525      7.620077     0.006552    Cartesian    0.09
    388 x         10.151367     10.156378     0.005010    Cartesian    0.05
    388 y          0.000000     -0.000350    -0.000350    Cartesian    0.00
    388 z         10.151367     10.157859     0.006492    Cartesian    0.06
    389 x         -1.268921     -1.263984     0.004936    Cartesian   -0.39
    389 y          8.882446      8.874071    -0.008375    Cartesian   -0.09
    389 z          8.882446      8.874071    -0.008375    Cartesian   -0.09
    390 x         -1.268921     -1.271526    -0.002605    Cartesian    0.21
    390 y         -6.344605     -6.341074     0.003531    Cartesian   -0.06
    390 z          8.882446      8.878916    -0.003531    Cartesian   -0.04
    391 x         13.958130     13.931689    -0.026441    Cartesian   -0.19
    391 y         -1.268921     -1.269015    -0.000094    Cartesian    0.01
    391 z          3.806763      3.806857     0.000094    Cartesian    0.00
    392 x         13.958130     13.935320    -0.022810    Cartesian   -0.16
    392 y          3.806763      3.805476    -0.001287    Cartesian   -0.03
    392 z          3.806763      3.805476    -0.001287    Cartesian   -0.03
    393 x          5.075684      5.078927     0.003244    Cartesian    0.06
    393 y          2.537842      2.539925     0.002083    Cartesian    0.08
    393 z         12.689209     12.698453     0.009244    Cartesian    0.07
    394 x         -6.344605     -6.337517     0.007088    Cartesian   -0.11
    394 y          6.344605      6.336645    -0.007960    Cartesian   -0.13
    394 z          6.344605      6.336645    -0.007960    Cartesian   -0.13
    395 x         -6.344605     -6.349514    -0.004909    Cartesian    0.08
    395 y         -3.806763     -3.805285     0.001478    Cartesian   -0.04
    395 z          6.344605      6.343126    -0.001478    Cartesian   -0.02
    396 x         11.420288     11.416269    -0.004020    Cartesian   -0.04
    396 y         -1.268921     -1.269119    -0.000199    Cartesian    0.02
    396 z          8.882446      8.879018    -0.003429    Cartesian   -0.04
    397 x         11.420288     11.408621    -0.011667    Cartesian   -0.10
    397 y          3.806763      3.802104    -0.004658    Cartesian   -0.12
    397 z          8.882446      8.876167    -0.006279    Cartesian   -0.07
    398 x         12.689209     12.698882     0.009673    Cartesian    0.08
    398 y          0.000000     -0.001953    -0.001953    Cartesian    0.00
    398 z          7.613525      7.619160     0.005635    Cartesian    0.07
    399 x         -8.882446     -8.793774     0.088672    Cartesian   -1.00
    399 y          1.268921      1.268921     0.000000    Cartesian    0.00
    399 z          1.268921      1.268921     0.000000    Cartesian    0.00
    400 x          8.882446      8.877917    -0.004530    Cartesian   -0.05
    400 y          1.268921      1.269313     0.000392    Cartesian    0.03
    400 z         11.420288     11.410933    -0.009355    Cartesian   -0.08
    401 x         -7.613525     -7.623692    -0.010166    Cartesian    0.13
    401 y         -2.537842     -2.548544    -0.010702    Cartesian    0.42
    401 z          5.075684      5.086386     0.010702    Cartesian    0.21
    402 x          0.000000     -0.001475    -0.001475    Cartesian *******
    402 y          2.537842      2.541849     0.004007    Cartesian    0.16
    402 z         12.689209     12.698928     0.009719    Cartesian    0.08
    403 x          6.344605      6.341488    -0.003117    Cartesian   -0.05
    403 y         -3.806763     -3.804467     0.002295    Cartesian   -0.06
    403 z         11.420288     11.414133    -0.006155    Cartesian   -0.05
    404 x          6.344605      6.341921    -0.002683    Cartesian   -0.04
    404 y         11.420288     11.410507    -0.009781    Cartesian   -0.09
    404 z          6.344605      6.341516    -0.003088    Cartesian   -0.05
    405 x          7.613525      7.618317     0.004792    Cartesian    0.06
    405 y         10.151367     10.159077     0.007710    Cartesian    0.08
    405 z          7.613525      7.618538     0.005013    Cartesian    0.07
    406 x         -6.344605     -6.333522     0.011082    Cartesian   -0.17
    406 y         -6.344605     -6.332737     0.011867    Cartesian   -0.19
    406 z          1.268921      1.265778    -0.003143    Cartesian   -0.25
--------------------------------------------------------------------------------


  Time to end of optimisation  =      119.0856 seconds


  Peak dynamic memory used =     390.15 MB 


  Timing analysis for GULP :

--------------------------------------------------------------------------------
  Task / Subroutine                                          Time (Seconds)
--------------------------------------------------------------------------------
  Calculation of reciprocal space energy and derivatives          0.0002
  Calculation of reciprocal space energy using symmetry           0.0002
  Calculation of real space energy and derivatives                0.0020
  Calculation of real space energy using symmetry                 0.0069
  Calculation for region 1 energy and derivatives (2-b)          31.3359
  Calculation for region 2a energy                               75.6515
  Calculation for region 2b energy                                0.0114
  Calculation and manipulation of Hessian matrix                 10.8418
  Calculation of matrix inversion                                 0.8261
  Symmetry generation of equivalent positions                     0.0015
--------------------------------------------------------------------------------
  Total CPU time                                                119.0856
--------------------------------------------------------------------------------


  Dump file written as ZrO2.grs


  Job Finished at 12:49.41 14th October    2020                               

