********************************************************************************
*                       GENERAL UTILITY LATTICE PROGRAM                        *
*                                 Julian Gale                                  *
*                       Curtin Institute for Computation                       *
*                    School of Molecular and Life Sciences                     *
*                    Curtin University, Western Australia                      *
********************************************************************************
* Version = 5.2.0 * Last modified =  10th September 2020                       *
********************************************************************************
* Zirconia doped with calcium                                                  *
*  optimise     - perform optimisation run                                     *
*  conp         - constant pressure calculation                                *
*  property     - calculate properties for final geometry                      *
*  defect       - perform defect calculation after bulk run                    *
*  distance     - calculate distances                                          *
*  compare      - compare initial and final structures                         *
********************************************************************************
* Zirconia doped with calcium                                                  *
********************************************************************************


  Job Started  at 12:51.37 14th October    2020                               

  Number of CPUs =     1


  Total number of configurations input =      1

********************************************************************************
*  Input for Configuration =   1 : ZrO2                                        *
********************************************************************************

  Formula = ZrO2                                                        

  Number of irreducible atoms/shells =       4


  Total number atoms/shells =       6

  Dimensionality = 3               :  Bulk   


  Symmetry :

  Crystal family                   :  Cubic       
  Crystal class  (Groth - 1921)    :  Cubic Hexakisoctahedral              

  Space group (centrosymmetric)    :  F M 3 M         

  Patterson group                  :  F m -3 m 

  Cartesian lattice vectors (Angstroms) :

        0.000000    2.535000    2.535000
        2.535000    0.000000    2.535000
        2.535000    2.535000    0.000000

  Primitive cell parameters :            Full cell parameters :

  a =   3.5850    alpha =  60.0000       a =   5.0700    alpha =  90.0000
  b =   3.5850    beta  =  60.0000       b =   5.0700    beta  =  90.0000
  c =   3.5850    gamma =  60.0000       c =   5.0700    gamma =  90.0000

  Initial volumes (Angstroms**3):

  Primitive cell =          32.580961    Full cell =         130.323843

  Temperature of configuration =   0.00     K 

  Pressure of configuration =         0.000 GPa 

  Fractional coordinates of asymmetric unit :

--------------------------------------------------------------------------------
   No.  Atomic       x           y          z         Charge      Occupancy
        Label      (Frac)      (Frac)     (Frac)        (e)         (Frac)  
--------------------------------------------------------------------------------
      1 Zr    c    0.000000    0.000000    0.000000     2.65000    1.000000    
      2 O     c    0.250000    0.250000    0.250000     0.07700    1.000000    
      3 Zr    s    0.000000    0.000000    0.000000     1.35000    1.000000    
      4 O     s    0.250000    0.250000    0.250000    -2.07700    1.000000    
--------------------------------------------------------------------------------


  Constraints : 

--------------------------------------------------------------------------------
  Constraint no.      Unconstrained     Constrained    Coefficient    Offset
                         Variable         Variable
--------------------------------------------------------------------------------
           1              Strain 1        Strain 2       1.00000      0.0000
           2              Strain 1        Strain 3       1.00000      0.0000
--------------------------------------------------------------------------------


  Distance calculation :


  Cutoff for distances  =      4.000000 Angstroms

--------------------------------------------------------------------------------
  Asymmetric unit site  Full lattice sites    No.  Distance      No.  Distance
      No.   At.No.            At.No.                (Angs)             (Angs) 
--------------------------------------------------------------------------------
       1   Zr    core        Zr    core        12    3.5850
                             Zr    shell       12    3.5850
                             O     core         8    2.1954
                             O     shell        8    2.1954
--------------------------------------------------------------------------------
       2   O     core        Zr    core         4    2.1954
                             Zr    shell        4    2.1954
                             O     core         6    2.5350       12    3.5850
                             O     shell        6    2.5350       12    3.5850
--------------------------------------------------------------------------------
       3   Zr    shell       Zr    core        12    3.5850
                             Zr    shell       12    3.5850
                             O     core         8    2.1954
                             O     shell        8    2.1954
--------------------------------------------------------------------------------
       4   O     shell       Zr    core         4    2.1954
                             Zr    shell        4    2.1954
                             O     core         6    2.5350       12    3.5850
                             O     shell        6    2.5350       12    3.5850
--------------------------------------------------------------------------------



********************************************************************************
*  General input information                                                   *
********************************************************************************

  Species output for all configurations : 

--------------------------------------------------------------------------------
  Species    Type    Atomic    Atomic    Charge       Radii (Angs)     Library
                     Number     Mass       (e)     Cova   Ionic  VDW   Symbol
--------------------------------------------------------------------------------
    Zr       Core       40      91.22   2.650000   1.560  0.000  2.330          
    Zr       Shell      40       0.00   1.350000   1.560  0.000  2.330          
    O        Core        8      16.00   0.077000   0.730  0.000  1.360          
    O        Shell       8       0.00  -2.077000   0.730  0.000  1.360          
--------------------------------------------------------------------------------


  Lattice summation method               =    Ewald          (3-D)
                                         =    Parry          (2-D)
                                         =    Saunders et al (1-D)
  Accuracy factor for lattice sums       =   12.000


  Analytic derivatives to be used

  Time limit = Infinity

  Maximum range for interatomic potentials =    100000.000000 Angstroms

  General interatomic potentials :

--------------------------------------------------------------------------------
Atom  Types   Potential      Parameter       Value         Units   Cutoffs(Ang)
  1     2                                                            Min /  Max 
--------------------------------------------------------------------------------
O    s Zr   s Buckingham    Buckingham A     985.86900    eV        0.000 12.000
                            Buckingham rho  0.37600000    Ang       
                            Buckingham C     0.0000000    eV*Ang^6  
--------------------------------------------------------------------------------
O    s O    s Buckingham    Buckingham A     22764.300    eV        0.000 12.000
                            Buckingham rho  0.14900000    Ang       
                            Buckingham C     27.890000    eV*Ang^6  
--------------------------------------------------------------------------------
Zr   c Zr   s Spring (c-s)  Spring k 2       169.61700    eV*Ang^-2 0.000  0.800
                            Spring k 4       0.0000000    eV*Ang^-4 
--------------------------------------------------------------------------------
O    c O    s Spring (c-s)  Spring k 2       27.290000    eV*Ang^-2 0.000  0.800
                            Spring k 4       0.0000000    eV*Ang^-4 
--------------------------------------------------------------------------------

********************************************************************************
*  Output for configuration   1 : ZrO2                                         *
********************************************************************************


  Components of energy : 

--------------------------------------------------------------------------------
  Interatomic potentials     =          22.43756329 eV    
  Monopole - monopole (real) =         -15.67991073 eV    
  Monopole - monopole (recip)=        -116.52038266 eV    
  Monopole - monopole (total)=        -132.20029339 eV    
--------------------------------------------------------------------------------
  Total lattice energy : 
    Primitive unit cell      =        -109.76273010 eV    
    Non-primitive unit cell  =        -439.05092039 eV    
--------------------------------------------------------------------------------
  Total lattice energy (in kJmol-1): 
    Primitive unit cell      =          -10590.4256 kJ/(mole unit cells)
    Non-primitive unit cell  =          -42361.7023 kJ/(mole unit cells)
--------------------------------------------------------------------------------


  Number of variables =        1

  Maximum number of calculations  =          1000
  Maximum Hessian update interval =            10
  Maximum step size               =   1.000000000
  Maximum parameter tolerance     =   0.000010000
  Maximum function  tolerance     =   0.000010000
  Maximum gradient  tolerance     =   0.001000000
  Maximum gradient  component     =   0.010000000

  Symmetry constrained optimisation

  Symmetry used for second derivatives

  Cell parameters to be optimised using strains

  Newton-Raphson optimiser to be used

  BFGS hessian update to be used

  Lower half triangular hessian to be used

  Start of bulk optimisation :

  Cycle:      0 Energy:      -109.762730  Gnorm:      0.588311  CPU:    0.006
  ** Hessian calculated **
  Cycle:      1 Energy:      -109.763059  Gnorm:      0.000316  CPU:    0.009


  **** Optimisation achieved ****


  Final energy =    -109.76305939 eV
  Final Gnorm  =       0.00000099

  Components of energy : 

--------------------------------------------------------------------------------
  Interatomic potentials     =          22.28919976 eV    
  Monopole - monopole (real) =         -15.66235280 eV    
  Monopole - monopole (recip)=        -116.38990634 eV    
  Monopole - monopole (total)=        -132.05225914 eV    
--------------------------------------------------------------------------------
  Total lattice energy : 
    Primitive unit cell      =        -109.76305939 eV    
    Non-primitive unit cell  =        -439.05223754 eV    
--------------------------------------------------------------------------------
  Total lattice energy (in kJmol-1): 
    Primitive unit cell      =          -10590.4573 kJ/(mole unit cells)
    Non-primitive unit cell  =          -42361.8294 kJ/(mole unit cells)
--------------------------------------------------------------------------------

  Final asymmetric unit coordinates :

--------------------------------------------------------------------------------
   No.  Atomic        x           y           z         Radius
        Label       (Frac)      (Frac)      (Frac)       (Angs) 
--------------------------------------------------------------------------------
     1  Zr    c     0.000000    0.000000    0.000000    0.000000
     2  O     c     0.250000    0.250000    0.250000    0.000000
     3  Zr    s     0.000000    0.000000    0.000000    0.000000
     4  O     s     0.250000    0.250000    0.250000    0.000000
--------------------------------------------------------------------------------

  Final Cartesian lattice vectors (Angstroms) :

        0.000000    2.537842    2.537842
        2.537842    0.000000    2.537842
        2.537842    2.537842    0.000000


  Final cell parameters and derivatives :

--------------------------------------------------------------------------------
       a            3.589050 Angstrom     dE/de1(xx)    -0.000001 eV/strain
       b            3.589050 Angstrom     dE/de2(yy)     0.000000 eV/strain
       c            3.589050 Angstrom     dE/de3(zz)     0.000000 eV/strain
       alpha       60.000000 Degrees      dE/de4(yz)     0.000000 eV/strain
       beta        60.000000 Degrees      dE/de5(xz)     0.000000 eV/strain
       gamma       60.000000 Degrees      dE/de6(xy)     0.000000 eV/strain
--------------------------------------------------------------------------------

  Primitive cell volume =            32.690656 Angs**3

  Density of cell =      6.259124 g/cm**3

  Non-primitive lattice parameters :

  a    =     5.075684  b   =     5.075684  c    =     5.075684
  alpha=    90.000000  beta=    90.000000  gamma=    90.000000

  Non-primitive cell volume =           130.762624 Angs**3


  Final internal derivatives :

--------------------------------------------------------------------------------
   No.  Atomic          a             b             c           Radius
        Label          (eV)          (eV)          (eV)        (eV/Angs)
--------------------------------------------------------------------------------
      1 Zr    c       0.000000      0.000000      0.000000      0.000000
      2 O     c       0.000000      0.000000      0.000000      0.000000
      3 Zr    s       0.000000      0.000000      0.000000      0.000000
      4 O     s       0.000000      0.000000      0.000000      0.000000
--------------------------------------------------------------------------------
  Maximum abs         0.000000      0.000000      0.000000      0.000000
--------------------------------------------------------------------------------

  Comparison of initial and final structures : 

--------------------------------------------------------------------------------
  Parameter   Initial value   Final value   Difference    Units      Percent
--------------------------------------------------------------------------------
    Volume       130.323843    130.762624     0.438781    Angs**3      0.34
    a              5.070000      5.075684     0.005684    Angstroms    0.11
    b              5.070000      5.075684     0.005684    Angstroms    0.11
    c              5.070000      5.075684     0.005684    Angstroms    0.11
    alpha         90.000000     90.000000     0.000000    Degrees      0.00
    beta          90.000000     90.000000     0.000000    Degrees      0.00
    gamma         90.000000     90.000000     0.000000    Degrees      0.00
      1 x          0.000000      0.000000     0.000000    Fractional   0.00
      1 y          0.000000      0.000000     0.000000    Fractional   0.00
      1 z          0.000000      0.000000     0.000000    Fractional   0.00
      2 x          0.250000      0.250000     0.000000    Fractional   0.00
      2 y          0.250000      0.250000     0.000000    Fractional   0.00
      2 z          0.250000      0.250000     0.000000    Fractional   0.00
      3 x          0.000000      0.000000     0.000000    Fractional   0.00
      3 y          0.000000      0.000000     0.000000    Fractional   0.00
      3 z          0.000000      0.000000     0.000000    Fractional   0.00
      4 x          0.250000      0.250000     0.000000    Fractional   0.00
      4 y          0.250000      0.250000     0.000000    Fractional   0.00
      4 z          0.250000      0.250000     0.000000    Fractional   0.00
--------------------------------------------------------------------------------


  Distance calculation :


  Cutoff for distances  =      4.000000 Angstroms

--------------------------------------------------------------------------------
  Asymmetric unit site  Full lattice sites    No.  Distance      No.  Distance
      No.   At.No.            At.No.                (Angs)             (Angs) 
--------------------------------------------------------------------------------
       1   Zr    core        Zr    core        12    3.5891
                             Zr    shell       12    3.5891
                             O     core         8    2.1978
                             O     shell        8    2.1978
--------------------------------------------------------------------------------
       2   O     core        Zr    core         4    2.1978
                             Zr    shell        4    2.1978
                             O     core         6    2.5378       12    3.5891
                             O     shell        6    2.5378       12    3.5891
--------------------------------------------------------------------------------
       3   Zr    shell       Zr    core        12    3.5891
                             Zr    shell       12    3.5891
                             O     core         8    2.1978
                             O     shell        8    2.1978
--------------------------------------------------------------------------------
       4   O     shell       Zr    core         4    2.1978
                             Zr    shell        4    2.1978
                             O     core         6    2.5378       12    3.5891
                             O     shell        6    2.5378       12    3.5891
--------------------------------------------------------------------------------



  Born effective charge tensors : 

-------------------------------------------------------------------------------
  Atom             x           y             z
-------------------------------------------------------------------------------
    1 Zr    x       3.6770      0.0000      0.0000
            y       0.0000      3.6770      0.0000
            z       0.0000      0.0000      3.6770
-------------------------------------------------------------------------------
    2 O     x      -1.8385      0.0000      0.0000
            y       0.0000     -1.8385     -0.0000
            z       0.0000     -0.0000     -1.8385
-------------------------------------------------------------------------------




  Elastic Constant Matrix: (Units=GPa)

-------------------------------------------------------------------------------
  Indices      1         2         3         4         5         6    
-------------------------------------------------------------------------------
       1    616.2933  119.6612  119.6612   -0.0000   -0.0000   -0.0000
       2    119.6612  616.2933  119.6612   -0.0000   -0.0000   -0.0000
       3    119.6612  119.6612  616.2933   -0.0000   -0.0000   -0.0000
       4     -0.0000   -0.0000   -0.0000  100.8598    0.0000   -0.0000
       5     -0.0000   -0.0000   -0.0000    0.0000  100.8598    0.0000
       6     -0.0000   -0.0000   -0.0000   -0.0000    0.0000  100.8598
-------------------------------------------------------------------------------


  Elastic Compliance Matrix: (Units=1/GPa)

-------------------------------------------------------------------------------
  Indices      1         2         3         4         5         6    
-------------------------------------------------------------------------------
       1    0.001732 -0.000282 -0.000282  0.000000  0.000000  0.000000
       2   -0.000282  0.001732 -0.000282 -0.000000  0.000000  0.000000
       3   -0.000282 -0.000282  0.001732  0.000000  0.000000  0.000000
       4    0.000000 -0.000000  0.000000  0.009915 -0.000000  0.000000
       5    0.000000  0.000000  0.000000 -0.000000  0.009915 -0.000000
       6    0.000000  0.000000  0.000000  0.000000 -0.000000  0.009915
-------------------------------------------------------------------------------

  Mechanical properties :

-------------------------------------------------------------------------------
  Convention :                    Reuss         Voigt         Hill
-------------------------------------------------------------------------------
  Bulk  Modulus (GPa)     =     285.20524     285.20524     285.20524
  Shear Modulus (GPa)     =     132.28031     159.84228     146.06129
-------------------------------------------------------------------------------
  Velocity S-wave (km/s)  =       4.59717       5.05346       4.83071
  Velocity P-wave (km/s)  =       8.58749       8.92280       8.75675
-------------------------------------------------------------------------------
  Compressibility (1/GPa) =    0.00350625
-------------------------------------------------------------------------------
  Stress axis :                     x             y             z
-------------------------------------------------------------------------------
  Youngs Moduli (GPa)     =     577.38110     577.38110     577.38110
-------------------------------------------------------------------------------
  Poissons Ratio (x)      =                     0.16259       0.16259
  Poissons Ratio (y)      =       0.16259                     0.16259
  Poissons Ratio (z)      =       0.16259       0.16259
-------------------------------------------------------------------------------


  Piezoelectric Strain Matrix: (Units=C/m**2)

-------------------------------------------------------------------------------
  Indices      1         2         3         4         5         6    
-------------------------------------------------------------------------------
       x    -0.00000   0.00000   0.00000   0.00000   0.00000   0.00000
       y    -0.00000  -0.00000  -0.00000   0.00000   0.00000   0.00000
       z    -0.00000  -0.00000  -0.00000   0.00000   0.00000   0.00000
-------------------------------------------------------------------------------


  Piezoelectric Stress Matrix: (Units=10**-11 C/N)

-------------------------------------------------------------------------------
  Indices      1         2         3         4         5         6    
-------------------------------------------------------------------------------
       x    -0.00000   0.00000   0.00000   0.00000   0.00000   0.00000
       y    -0.00000  -0.00000  -0.00000   0.00000   0.00000   0.00000
       z     0.00000   0.00000  -0.00000   0.00000   0.00000   0.00000
-------------------------------------------------------------------------------


  Static dielectric constant tensor : 

-------------------------------------------------------------------------------
              x         y         z
-------------------------------------------------------------------------------
       x    26.88485   0.00000   0.00000
       y     0.00000  26.88485   0.00000
       z     0.00000   0.00000  26.88485
--------------------------------------------------------------------------------

  High frequency dielectric constant tensor : 

-------------------------------------------------------------------------------
              x         y         z
-------------------------------------------------------------------------------
       x     2.63099   0.00000   0.00000
       y     0.00000   2.63099   0.00000
       z     0.00000   0.00000   2.63099
-------------------------------------------------------------------------------

  Static refractive indices : 

-------------------------------------------------------------------------------
    1 =    5.18506      2 =    5.18506      3 =    5.18506
-------------------------------------------------------------------------------

  High frequency refractive indices : 

-------------------------------------------------------------------------------
    1 =    1.62203      2 =    1.62203      3 =    1.62203
-------------------------------------------------------------------------------


  Time to end of optimisation =       0.0146 seconds

********************************************************************************
*  Defect calculation for configuration   1 :                                  *
********************************************************************************

  Total number of defects =      3

  Total charge on defect  =   2.00

  Defect centre is at   0.5900   0.2500   0.2500  Frac

  Region 1 radius =  12.0000      Number of ions =   1298

  Number of symmetry inequivalent region 1 ions  =    404

  Region 2 radius =  24.0000      Number of ions =   9334

  Number of symmetry inequivalent region 2a ions =   2560

  Region 2a mode = 4 : screened electrostatics due to region 1 
                       neglect correction to region 1 forces from 2a
                       region 2a displacements based on defects only

  Region 2a ions will only interact with defects in region 1

  Vacancies:

--------------------------------------------------------------------------------
    Specification type     Symbol/Number         x          y          z
--------------------------------------------------------------------------------
    Fractional                               0.250000   0.250000   0.250000
    Fractional                               0.750000   0.250000   0.250000
--------------------------------------------------------------------------------

  Interstitials:

--------------------------------------------------------------------------------
    Specification type     Symbol/Number         x          y          z
--------------------------------------------------------------------------------
    Atom/Fractional         O                0.590000   0.250000   0.250000
--------------------------------------------------------------------------------


  Symmetry reduced region 1 (Relative to defect centre) :

--------------------------------------------------------------------------------
   No.   Atomic       x            y             z       Radius  Multiplicity   
         Label      (Angs)       (Angs)        (Angs)    (Angs)     
--------------------------------------------------------------------------------
     1  O     c      0.0000       0.0000       0.0000    0.0000     1    Defect
     2  Zr    c     -0.4568 *    -1.2689 *     1.2689    0.0000     2          
     3  O     c      0.8121 *     2.5378 *     0.0000 *  0.0000     4          
     4  Zr    c      2.0810 *    -1.2689 *    -1.2689    0.0000     2          
     5  O     c     -1.7257 *    -0.0000 *     2.5378 *  0.0000     4          
     6  O     c      3.3500 *     0.0000       0.0000    0.0000     1          
     7  Zr    c     -2.9947 *    -1.2689 *    -1.2689    0.0000     2          
     8  O     c      0.8121 *     2.5378 *     2.5378    0.0000     2          
     9  O     c      0.8121 *    -2.5378 *     2.5378    0.0000     2          
    10  O     c     -1.7257 *    -2.5378 *     2.5378    0.0000     2          
    11  O     c     -1.7257 *     2.5378 *     2.5378    0.0000     2          
    12  Zr    c     -0.4568 *     1.2689 *     3.8068 *  0.0000     4          
    13  O     c      3.3500 *     2.5378 *    -0.0000 *  0.0000     4          
    14  O     c     -4.2636 *    -0.0000      -0.0000    0.0000     1          
    15  Zr    c      2.0810 *     1.2689 *    -3.8068 *  0.0000     4          
    16  O     c      3.3500 *     2.5378 *    -2.5378    0.0000     2          
    17  O     c      3.3500 *     2.5378 *     2.5378    0.0000     2          
    18  Zr    c      4.6189 *     1.2689 *    -1.2689    0.0000     2          
    19  O     c     -4.2636 *    -2.5378 *     0.0000 *  0.0000     4          
    20  Zr    c     -2.9947 *    -3.8068 *     1.2689 *  0.0000     4          
    21  O     c      0.8121 *    -0.0000 *     5.0757 *  0.0000     4          
    22  O     c     -1.7257 *    -5.0757 *     0.0000 *  0.0000     4          
    23  Zr    c     -0.4568 *    -3.8068 *     3.8068    0.0000     2          
    24  O     c     -4.2636 *     2.5378 *    -2.5378    0.0000     2          
    25  O     c     -4.2636 *     2.5378 *     2.5378    0.0000     2          
    26  O     c      0.8121 *    -5.0757 *     2.5378 *  0.0000     4          
    27  O     c      0.8121 *     5.0757 *     2.5378 *  0.0000     4          
    28  Zr    c      2.0810 *     3.8068 *     3.8068    0.0000     2          
    29  Zr    c     -5.5325 *    -1.2689 *     1.2689    0.0000     2          
    30  O     c      5.8878 *    -0.0000      -0.0000    0.0000     1          
    31  O     c     -1.7257 *     5.0757 *     2.5378 *  0.0000     4          
    32  O     c     -1.7257 *    -2.5378 *     5.0757 *  0.0000     4          
    33  O     c      3.3500 *     5.0757 *     0.0000 *  0.0000     4          
    34  Zr    c      4.6189 *    -3.8068 *    -1.2689 *  0.0000     4          
    35  Zr    c     -2.9947 *     3.8068 *     3.8068    0.0000     2          
    36  O     c      5.8878 *     2.5378 *     0.0000 *  0.0000     4          
    37  Zr    c     -0.4568 *    -6.3446 *     1.2689 *  0.0000     4          
    38  O     c      3.3500 *    -2.5378 *     5.0757 *  0.0000     4          
    39  O     c      3.3500 *     5.0757 *     2.5378 *  0.0000     4          
    40  O     c     -4.2636 *     5.0757 *    -0.0000 *  0.0000     4          
    41  Zr    c      2.0810 *     6.3446 *     1.2689 *  0.0000     4          
    42  O     c     -6.8014 *     0.0000       0.0000    0.0000     1          
    43  Zr    c     -5.5325 *     1.2689 *     3.8068 *  0.0000     4          
    44  O     c      5.8878 *     2.5378 *     2.5378    0.0000     2          
    45  O     c      5.8878 *     2.5378 *    -2.5378    0.0000     2          
    46  Zr    c      4.6189 *    -3.8068 *     3.8068    0.0000     2          
    47  O     c     -4.2636 *    -5.0757 *     2.5378 *  0.0000     4          
    48  O     c     -4.2636 *     5.0757 *     2.5378 *  0.0000     4          
    49  Zr    c     -2.9947 *    -1.2689 *    -6.3446 *  0.0000     4          
    50  O     c      0.8121 *     5.0757 *     5.0757    0.0000     2          
    51  O     c      0.8121 *    -5.0757 *     5.0757    0.0000     2          
    52  O     c     -6.8014 *    -0.0000 *     2.5378 *  0.0000     4          
    53  Zr    c      7.1567 *    -1.2689 *    -1.2689    0.0000     2          
    54  O     c     -1.7257 *     5.0757 *     5.0757    0.0000     2          
    55  O     c     -1.7257 *    -5.0757 *     5.0757    0.0000     2          
    56  Zr    c     -0.4568 *     3.8068 *     6.3446 *  0.0000     4          
    57  O     c      0.8121 *     0.0000 *     7.6135 *  0.0000     4          
    58  Zr    c      2.0810 *     3.8068 *    -6.3446 *  0.0000     4          
    59  O     c     -6.8014 *     2.5378 *     2.5378    0.0000     2          
    60  O     c     -6.8014 *    -2.5378 *     2.5378    0.0000     2          
    61  Zr    c     -5.5325 *    -3.8068 *     3.8068    0.0000     2          
    62  O     c      5.8878 *     5.0757 *    -0.0000 *  0.0000     4          
    63  O     c     -1.7257 *    -0.0000 *     7.6135 *  0.0000     4          
    64  O     c      3.3500 *    -5.0757 *    -5.0757    0.0000     2          
    65  O     c      3.3500 *    -5.0757 *     5.0757    0.0000     2          
    66  Zr    c      4.6189 *    -1.2689 *     6.3446 *  0.0000     4          
    67  Zr    c     -2.9947 *    -6.3446 *     3.8068 *  0.0000     4          
    68  O     c      0.8121 *    -2.5378 *     7.6135 *  0.0000     4          
    69  O     c      0.8121 *     2.5378 *     7.6135 *  0.0000     4          
    70  O     c      5.8878 *     5.0757 *    -2.5378 *  0.0000     4          
    71  O     c      5.8878 *     5.0757 *     2.5378 *  0.0000     4          
    72  Zr    c      7.1567 *     3.8068 *    -1.2689 *  0.0000     4          
    73  O     c     -1.7257 *    -7.6135 *     2.5378 *  0.0000     4          
    74  O     c     -1.7257 *     2.5378 *     7.6135 *  0.0000     4          
    75  Zr    c     -8.0703 *    -1.2689 *    -1.2689    0.0000     2          
    76  O     c      3.3500 *    -0.0000 *     7.6135 *  0.0000     4          
    77  O     c     -4.2636 *     5.0757 *     5.0757    0.0000     2          
    78  O     c     -4.2636 *     5.0757 *    -5.0757    0.0000     2          
    79  O     c      8.4256 *     0.0000       0.0000    0.0000     1          
    80  O     c     -6.8014 *    -5.0757 *     0.0000 *  0.0000     4          
    81  Zr    c     -5.5325 *    -6.3446 *     1.2689 *  0.0000     4          
    82  O     c      3.3500 *     7.6135 *    -2.5378 *  0.0000     4          
    83  O     c      3.3500 *     7.6135 *     2.5378 *  0.0000     4          
    84  Zr    c      4.6189 *     6.3446 *     3.8068 *  0.0000     4          
    85  O     c     -4.2636 *    -7.6135 *     0.0000 *  0.0000     4          
    86  O     c      8.4256 *     2.5378 *    -0.0000 *  0.0000     4          
    87  O     c     -6.8014 *     2.5378 *     5.0757 *  0.0000     4          
    88  O     c     -6.8014 *     5.0757 *    -2.5378 *  0.0000     4          
    89  Zr    c      7.1567 *     3.8068 *     3.8068    0.0000     2          
    90  Zr    c     -0.4568 *    -6.3446 *     6.3446    0.0000     2          
    91  Zr    c     -0.4568 *     1.2689 *     8.8824 *  0.0000     4          
    92  Zr    c     -8.0703 *    -1.2689 *     3.8068 *  0.0000     4          
    93  O     c     -4.2636 *    -2.5378 *     7.6135 *  0.0000     4          
    94  O     c     -4.2636 *     2.5378 *     7.6135 *  0.0000     4          
    95  O     c      8.4256 *     2.5378 *     2.5378    0.0000     2          
    96  O     c      8.4256 *     2.5378 *    -2.5378    0.0000     2          
    97  O     c      0.8121 *     5.0757 *    -7.6135 *  0.0000     4          
    98  O     c      0.8121 *     5.0757 *     7.6135 *  0.0000     4          
    99  Zr    c      2.0810 *     6.3446 *     6.3446    0.0000     2          
   100  Zr    c      2.0810 *    -1.2689 *     8.8824 *  0.0000     4          
   101  Zr    c     -5.5325 *    -6.3446 *    -3.8068 *  0.0000     4          
   102  O     c      5.8878 *     5.0757 *     5.0757    0.0000     2          
   103  O     c      5.8878 *    -5.0757 *     5.0757    0.0000     2          
   104  O     c     -1.7257 *     5.0757 *     7.6135 *  0.0000     4          
   105  O     c     -1.7257 *     7.6135 *    -5.0757 *  0.0000     4          
   106  O     c     -9.3393 *    -0.0000      -0.0000    0.0000     1          
   107  Zr    c     -2.9947 *     6.3446 *     6.3446    0.0000     2          
   108  Zr    c     -2.9947 *    -8.8824 *     1.2689 *  0.0000     4          
   109  O     c      5.8878 *     7.6135 *     0.0000 *  0.0000     4          
   110  Zr    c      7.1567 *     6.3446 *     1.2689 *  0.0000     4          
   111  Zr    c     -0.4568 *    -8.8824 *     3.8068 *  0.0000     4          
   112  O     c     -9.3393 *    -2.5378 *     0.0000 *  0.0000     4          
   113  Zr    c     -8.0703 *    -3.8068 *    -3.8068    0.0000     2          
   114  O     c      3.3500 *    -5.0757 *     7.6135 *  0.0000     4          
   115  O     c      3.3500 *     7.6135 *     5.0757 *  0.0000     4          
   116  O     c      8.4256 *     5.0757 *     0.0000 *  0.0000     4          
   117  Zr    c      9.6946 *     1.2689 *    -1.2689    0.0000     2          
   118  Zr    c      2.0810 *     3.8068 *     8.8824 *  0.0000     4          
   119  O     c     -6.8014 *    -5.0757 *    -5.0757    0.0000     2          
   120  O     c     -6.8014 *    -5.0757 *     5.0757    0.0000     2          
   121  O     c      5.8878 *    -2.5378 *     7.6135 *  0.0000     4          
   122  O     c      5.8878 *     7.6135 *     2.5378 *  0.0000     4          
   123  O     c     -9.3393 *    -2.5378 *    -2.5378    0.0000     2          
   124  O     c     -9.3393 *    -2.5378 *     2.5378    0.0000     2          
   125  Zr    c      4.6189 *    -6.3446 *     6.3446    0.0000     2          
   126  Zr    c      4.6189 *     1.2689 *     8.8824 *  0.0000     4          
   127  O     c     -4.2636 *    -7.6135 *     5.0757 *  0.0000     4          
   128  O     c     -4.2636 *     5.0757 *     7.6135 *  0.0000     4          
   129  Zr    c     -2.9947 *     3.8068 *     8.8824 *  0.0000     4          
   130  O     c      8.4256 *     5.0757 *     2.5378 *  0.0000     4          
   131  O     c      8.4256 *     5.0757 *    -2.5378 *  0.0000     4          
   132  O     c      0.8121 *    -0.0000 *    10.1514 *  0.0000     4          
   133  O     c     -6.8014 *    -0.0000 *     7.6135 *  0.0000     4          
   134  Zr    c      7.1567 *     6.3446 *    -3.8068 *  0.0000     4          
   135  O     c     -1.7257 *    -0.0000 *    10.1514 *  0.0000     4          
   136  Zr    c     -8.0703 *    -6.3446 *    -1.2689 *  0.0000     4          
   137  Zr    c      9.6946 *     3.8068 *     1.2689 *  0.0000     4          
   138  O     c      0.8121 *    10.1514 *    -2.5378 *  0.0000     4          
   139  O     c      0.8121 *     2.5378 *    10.1514 *  0.0000     4          
   140  O     c     -6.8014 *    -2.5378 *    -7.6135 *  0.0000     4          
   141  O     c     -6.8014 *     2.5378 *    -7.6135 *  0.0000     4          
   142  Zr    c     -5.5325 *    -8.8824 *    -1.2689 *  0.0000     4          
   143  Zr    c     -5.5325 *    -6.3446 *     6.3446    0.0000     2          
   144  O     c     -1.7257 *    -2.5378 *    10.1514 *  0.0000     4          
   145  O     c     -1.7257 *     2.5378 *    10.1514 *  0.0000     4          
   146  O     c     -9.3393 *    -0.0000 *     5.0757 *  0.0000     4          
   147  O     c      3.3500 *    10.1514 *     0.0000 *  0.0000     4          
   148  Zr    c      4.6189 *    -3.8068 *     8.8824 *  0.0000     4          
   149  Zr    c    -10.6082 *    -1.2689 *     1.2689    0.0000     2          
   150  O     c      0.8121 *     7.6135 *     7.6135    0.0000     2          
   151  O     c      0.8121 *    -7.6135 *     7.6135    0.0000     2          
   152  O     c      5.8878 *    -5.0757 *     7.6135 *  0.0000     4          
   153  O     c      5.8878 *     7.6135 *     5.0757 *  0.0000     4          
   154  O     c     -1.7257 *    -7.6135 *     7.6135    0.0000     2          
   155  O     c     -1.7257 *     7.6135 *     7.6135    0.0000     2          
   156  Zr    c     -0.4568 *     6.3446 *     8.8824 *  0.0000     4          
   157  O     c     -9.3393 *    -2.5378 *    -5.0757 *  0.0000     4          
   158  O     c     -9.3393 *     2.5378 *    -5.0757 *  0.0000     4          
   159  Zr    c     -8.0703 *     3.8068 *    -6.3446 *  0.0000     4          
   160  O     c     10.9635 *    -0.0000      -0.0000    0.0000     1          
   161  O     c      3.3500 *    -2.5378 *    10.1514 *  0.0000     4          
   162  O     c      3.3500 *     2.5378 *    10.1514 *  0.0000     4          
   163  O     c     -4.2636 *    -0.0000 *    10.1514 *  0.0000     4          
   164  O     c      8.4256 *     5.0757 *     5.0757    0.0000     2          
   165  O     c      8.4256 *     5.0757 *    -5.0757    0.0000     2          
   166  Zr    c      9.6946 *     3.8068 *    -3.8068    0.0000     2          
   167  Zr    c      2.0810 *    -8.8824 *     6.3446 *  0.0000     4          
   168  Zr    c     -5.5325 *    -8.8824 *     3.8068 *  0.0000     4          
   169  O     c     10.9635 *     2.5378 *     0.0000 *  0.0000     4          
   170  O     c      3.3500 *    -7.6135 *     7.6135    0.0000     2          
   171  O     c      3.3500 *     7.6135 *     7.6135    0.0000     2          
   172  O     c     -4.2636 *   -10.1514 *     2.5378 *  0.0000     4          
   173  O     c     -4.2636 *     2.5378 *    10.1514 *  0.0000     4          
   174  Zr    c     -2.9947 *    -8.8824 *     6.3446 *  0.0000     4          
   175  Zr    c    -10.6082 *     1.2689 *     3.8068 *  0.0000     4          
   176  O     c      8.4256 *     7.6135 *    -0.0000 *  0.0000     4          
   177  O     c      0.8121 *    -5.0757 *    10.1514 *  0.0000     4          
   178  O     c      0.8121 *     5.0757 *    10.1514 *  0.0000     4          
   179  O     c     -6.8014 *    -5.0757 *     7.6135 *  0.0000     4          
   180  O     c     -6.8014 *     5.0757 *     7.6135 *  0.0000     4          
   181  Zr    c      7.1567 *    -1.2689 *     8.8824 *  0.0000     4          
   182  Zr    c      7.1567 *     6.3446 *     6.3446    0.0000     2          
   183  O     c     -1.7257 *     5.0757 *   -10.1514 *  0.0000     4          
   184  O     c     -1.7257 *     5.0757 *    10.1514 *  0.0000     4          
   185  Zr    c     -0.4568 *    -1.2689 *    11.4203 *  0.0000     4          
   186  O     c     10.9635 *     2.5378 *     2.5378    0.0000     2          
   187  O     c     10.9635 *     2.5378 *    -2.5378    0.0000     2          
   188  O     c     -4.2636 *     7.6135 *     7.6135    0.0000     2          
   189  O     c     -4.2636 *    -7.6135 *     7.6135    0.0000     2          
   190  O     c      8.4256 *    -2.5378 *     7.6135 *  0.0000     4          
   191  O     c      8.4256 *     7.6135 *     2.5378 *  0.0000     4          
   192  Zr    c      9.6946 *    -1.2689 *     6.3446 *  0.0000     4          
   193  Zr    c      2.0810 *     1.2689 *    11.4203 *  0.0000     4          
   194  O     c      5.8878 *    -0.0000 *    10.1514 *  0.0000     4          
   195  O     c     -9.3393 *     5.0757 *     5.0757    0.0000     2          
   196  O     c     -9.3393 *    -5.0757 *     5.0757    0.0000     2          
   197  O     c      3.3500 *    -5.0757 *    10.1514 *  0.0000     4          
   198  O     c      3.3500 *    10.1514 *     5.0757 *  0.0000     4          
   199  Zr    c      4.6189 *     6.3446 *     8.8824 *  0.0000     4          
   200  Zr    c     -2.9947 *     1.2689 *    11.4203 *  0.0000     4          
   201  O     c    -11.8771 *    -0.0000       0.0000    0.0000     1          
   202  Zr    c    -10.6082 *    -3.8068 *     3.8068    0.0000     2          
   203  O     s      0.0000       0.0000       0.0000    0.0000     1    Defect
   204  Zr    s     -0.4568 *    -1.2689 *     1.2689    0.0000     2          
   205  O     s      0.8121 *     2.5378 *     0.0000 *  0.0000     4          
   206  Zr    s      2.0810 *    -1.2689 *    -1.2689    0.0000     2          
   207  O     s     -1.7257 *    -0.0000 *     2.5378 *  0.0000     4          
   208  O     s      3.3500 *     0.0000       0.0000    0.0000     1          
   209  Zr    s     -2.9947 *    -1.2689 *    -1.2689    0.0000     2          
   210  O     s      0.8121 *     2.5378 *     2.5378    0.0000     2          
   211  O     s      0.8121 *    -2.5378 *     2.5378    0.0000     2          
   212  O     s     -1.7257 *    -2.5378 *     2.5378    0.0000     2          
   213  O     s     -1.7257 *     2.5378 *     2.5378    0.0000     2          
   214  Zr    s     -0.4568 *     1.2689 *     3.8068 *  0.0000     4          
   215  O     s      3.3500 *     2.5378 *    -0.0000 *  0.0000     4          
   216  O     s     -4.2636 *    -0.0000      -0.0000    0.0000     1          
   217  Zr    s      2.0810 *     1.2689 *    -3.8068 *  0.0000     4          
   218  O     s      3.3500 *     2.5378 *    -2.5378    0.0000     2          
   219  O     s      3.3500 *     2.5378 *     2.5378    0.0000     2          
   220  Zr    s      4.6189 *     1.2689 *    -1.2689    0.0000     2          
   221  O     s     -4.2636 *    -2.5378 *     0.0000 *  0.0000     4          
   222  Zr    s     -2.9947 *    -3.8068 *     1.2689 *  0.0000     4          
   223  O     s      0.8121 *    -0.0000 *     5.0757 *  0.0000     4          
   224  O     s     -1.7257 *    -5.0757 *     0.0000 *  0.0000     4          
   225  Zr    s     -0.4568 *    -3.8068 *     3.8068    0.0000     2          
   226  O     s     -4.2636 *     2.5378 *    -2.5378    0.0000     2          
   227  O     s     -4.2636 *     2.5378 *     2.5378    0.0000     2          
   228  O     s      0.8121 *    -5.0757 *     2.5378 *  0.0000     4          
   229  O     s      0.8121 *     5.0757 *     2.5378 *  0.0000     4          
   230  Zr    s      2.0810 *     3.8068 *     3.8068    0.0000     2          
   231  Zr    s     -5.5325 *    -1.2689 *     1.2689    0.0000     2          
   232  O     s      5.8878 *    -0.0000      -0.0000    0.0000     1          
   233  O     s     -1.7257 *     5.0757 *     2.5378 *  0.0000     4          
   234  O     s     -1.7257 *    -2.5378 *     5.0757 *  0.0000     4          
   235  O     s      3.3500 *     5.0757 *     0.0000 *  0.0000     4          
   236  Zr    s      4.6189 *    -3.8068 *    -1.2689 *  0.0000     4          
   237  Zr    s     -2.9947 *     3.8068 *     3.8068    0.0000     2          
   238  O     s      5.8878 *     2.5378 *     0.0000 *  0.0000     4          
   239  Zr    s     -0.4568 *    -6.3446 *     1.2689 *  0.0000     4          
   240  O     s      3.3500 *    -2.5378 *     5.0757 *  0.0000     4          
   241  O     s      3.3500 *     5.0757 *     2.5378 *  0.0000     4          
   242  O     s     -4.2636 *     5.0757 *    -0.0000 *  0.0000     4          
   243  Zr    s      2.0810 *     6.3446 *     1.2689 *  0.0000     4          
   244  O     s     -6.8014 *     0.0000       0.0000    0.0000     1          
   245  Zr    s     -5.5325 *     1.2689 *     3.8068 *  0.0000     4          
   246  O     s      5.8878 *     2.5378 *     2.5378    0.0000     2          
   247  O     s      5.8878 *     2.5378 *    -2.5378    0.0000     2          
   248  Zr    s      4.6189 *    -3.8068 *     3.8068    0.0000     2          
   249  O     s     -4.2636 *    -5.0757 *     2.5378 *  0.0000     4          
   250  O     s     -4.2636 *     5.0757 *     2.5378 *  0.0000     4          
   251  Zr    s     -2.9947 *    -1.2689 *    -6.3446 *  0.0000     4          
   252  O     s      0.8121 *     5.0757 *     5.0757    0.0000     2          
   253  O     s      0.8121 *    -5.0757 *     5.0757    0.0000     2          
   254  O     s     -6.8014 *    -0.0000 *     2.5378 *  0.0000     4          
   255  Zr    s      7.1567 *    -1.2689 *    -1.2689    0.0000     2          
   256  O     s     -1.7257 *     5.0757 *     5.0757    0.0000     2          
   257  O     s     -1.7257 *    -5.0757 *     5.0757    0.0000     2          
   258  Zr    s     -0.4568 *     3.8068 *     6.3446 *  0.0000     4          
   259  O     s      0.8121 *     0.0000 *     7.6135 *  0.0000     4          
   260  Zr    s      2.0810 *     3.8068 *    -6.3446 *  0.0000     4          
   261  O     s     -6.8014 *     2.5378 *     2.5378    0.0000     2          
   262  O     s     -6.8014 *    -2.5378 *     2.5378    0.0000     2          
   263  Zr    s     -5.5325 *    -3.8068 *     3.8068    0.0000     2          
   264  O     s      5.8878 *     5.0757 *    -0.0000 *  0.0000     4          
   265  O     s     -1.7257 *    -0.0000 *     7.6135 *  0.0000     4          
   266  O     s      3.3500 *    -5.0757 *    -5.0757    0.0000     2          
   267  O     s      3.3500 *    -5.0757 *     5.0757    0.0000     2          
   268  Zr    s      4.6189 *    -1.2689 *     6.3446 *  0.0000     4          
   269  Zr    s     -2.9947 *    -6.3446 *     3.8068 *  0.0000     4          
   270  O     s      0.8121 *    -2.5378 *     7.6135 *  0.0000     4          
   271  O     s      0.8121 *     2.5378 *     7.6135 *  0.0000     4          
   272  O     s      5.8878 *     5.0757 *    -2.5378 *  0.0000     4          
   273  O     s      5.8878 *     5.0757 *     2.5378 *  0.0000     4          
   274  Zr    s      7.1567 *     3.8068 *    -1.2689 *  0.0000     4          
   275  O     s     -1.7257 *    -7.6135 *     2.5378 *  0.0000     4          
   276  O     s     -1.7257 *     2.5378 *     7.6135 *  0.0000     4          
   277  Zr    s     -8.0703 *    -1.2689 *    -1.2689    0.0000     2          
   278  O     s      3.3500 *    -0.0000 *     7.6135 *  0.0000     4          
   279  O     s     -4.2636 *     5.0757 *     5.0757    0.0000     2          
   280  O     s     -4.2636 *     5.0757 *    -5.0757    0.0000     2          
   281  O     s      8.4256 *     0.0000       0.0000    0.0000     1          
   282  O     s     -6.8014 *    -5.0757 *     0.0000 *  0.0000     4          
   283  Zr    s     -5.5325 *    -6.3446 *     1.2689 *  0.0000     4          
   284  O     s      3.3500 *     7.6135 *    -2.5378 *  0.0000     4          
   285  O     s      3.3500 *     7.6135 *     2.5378 *  0.0000     4          
   286  Zr    s      4.6189 *     6.3446 *     3.8068 *  0.0000     4          
   287  O     s     -4.2636 *    -7.6135 *     0.0000 *  0.0000     4          
   288  O     s      8.4256 *     2.5378 *    -0.0000 *  0.0000     4          
   289  O     s     -6.8014 *     2.5378 *     5.0757 *  0.0000     4          
   290  O     s     -6.8014 *     5.0757 *    -2.5378 *  0.0000     4          
   291  Zr    s      7.1567 *     3.8068 *     3.8068    0.0000     2          
   292  Zr    s     -0.4568 *    -6.3446 *     6.3446    0.0000     2          
   293  Zr    s     -0.4568 *     1.2689 *     8.8824 *  0.0000     4          
   294  Zr    s     -8.0703 *    -1.2689 *     3.8068 *  0.0000     4          
   295  O     s     -4.2636 *    -2.5378 *     7.6135 *  0.0000     4          
   296  O     s     -4.2636 *     2.5378 *     7.6135 *  0.0000     4          
   297  O     s      8.4256 *     2.5378 *     2.5378    0.0000     2          
   298  O     s      8.4256 *     2.5378 *    -2.5378    0.0000     2          
   299  O     s      0.8121 *     5.0757 *    -7.6135 *  0.0000     4          
   300  O     s      0.8121 *     5.0757 *     7.6135 *  0.0000     4          
   301  Zr    s      2.0810 *     6.3446 *     6.3446    0.0000     2          
   302  Zr    s      2.0810 *    -1.2689 *     8.8824 *  0.0000     4          
   303  Zr    s     -5.5325 *    -6.3446 *    -3.8068 *  0.0000     4          
   304  O     s      5.8878 *     5.0757 *     5.0757    0.0000     2          
   305  O     s      5.8878 *    -5.0757 *     5.0757    0.0000     2          
   306  O     s     -1.7257 *     5.0757 *     7.6135 *  0.0000     4          
   307  O     s     -1.7257 *     7.6135 *    -5.0757 *  0.0000     4          
   308  O     s     -9.3393 *    -0.0000      -0.0000    0.0000     1          
   309  Zr    s     -2.9947 *     6.3446 *     6.3446    0.0000     2          
   310  Zr    s     -2.9947 *    -8.8824 *     1.2689 *  0.0000     4          
   311  O     s      5.8878 *     7.6135 *     0.0000 *  0.0000     4          
   312  Zr    s      7.1567 *     6.3446 *     1.2689 *  0.0000     4          
   313  Zr    s     -0.4568 *    -8.8824 *     3.8068 *  0.0000     4          
   314  O     s     -9.3393 *    -2.5378 *     0.0000 *  0.0000     4          
   315  Zr    s     -8.0703 *    -3.8068 *    -3.8068    0.0000     2          
   316  O     s      3.3500 *    -5.0757 *     7.6135 *  0.0000     4          
   317  O     s      3.3500 *     7.6135 *     5.0757 *  0.0000     4          
   318  O     s      8.4256 *     5.0757 *     0.0000 *  0.0000     4          
   319  Zr    s      9.6946 *     1.2689 *    -1.2689    0.0000     2          
   320  Zr    s      2.0810 *     3.8068 *     8.8824 *  0.0000     4          
   321  O     s     -6.8014 *    -5.0757 *    -5.0757    0.0000     2          
   322  O     s     -6.8014 *    -5.0757 *     5.0757    0.0000     2          
   323  O     s      5.8878 *    -2.5378 *     7.6135 *  0.0000     4          
   324  O     s      5.8878 *     7.6135 *     2.5378 *  0.0000     4          
   325  O     s     -9.3393 *    -2.5378 *    -2.5378    0.0000     2          
   326  O     s     -9.3393 *    -2.5378 *     2.5378    0.0000     2          
   327  Zr    s      4.6189 *    -6.3446 *     6.3446    0.0000     2          
   328  Zr    s      4.6189 *     1.2689 *     8.8824 *  0.0000     4          
   329  O     s     -4.2636 *    -7.6135 *     5.0757 *  0.0000     4          
   330  O     s     -4.2636 *     5.0757 *     7.6135 *  0.0000     4          
   331  Zr    s     -2.9947 *     3.8068 *     8.8824 *  0.0000     4          
   332  O     s      8.4256 *     5.0757 *     2.5378 *  0.0000     4          
   333  O     s      8.4256 *     5.0757 *    -2.5378 *  0.0000     4          
   334  O     s      0.8121 *    -0.0000 *    10.1514 *  0.0000     4          
   335  O     s     -6.8014 *    -0.0000 *     7.6135 *  0.0000     4          
   336  Zr    s      7.1567 *     6.3446 *    -3.8068 *  0.0000     4          
   337  O     s     -1.7257 *    -0.0000 *    10.1514 *  0.0000     4          
   338  Zr    s     -8.0703 *    -6.3446 *    -1.2689 *  0.0000     4          
   339  Zr    s      9.6946 *     3.8068 *     1.2689 *  0.0000     4          
   340  O     s      0.8121 *    10.1514 *    -2.5378 *  0.0000     4          
   341  O     s      0.8121 *     2.5378 *    10.1514 *  0.0000     4          
   342  O     s     -6.8014 *    -2.5378 *    -7.6135 *  0.0000     4          
   343  O     s     -6.8014 *     2.5378 *    -7.6135 *  0.0000     4          
   344  Zr    s     -5.5325 *    -8.8824 *    -1.2689 *  0.0000     4          
   345  Zr    s     -5.5325 *    -6.3446 *     6.3446    0.0000     2          
   346  O     s     -1.7257 *    -2.5378 *    10.1514 *  0.0000     4          
   347  O     s     -1.7257 *     2.5378 *    10.1514 *  0.0000     4          
   348  O     s     -9.3393 *    -0.0000 *     5.0757 *  0.0000     4          
   349  O     s      3.3500 *    10.1514 *     0.0000 *  0.0000     4          
   350  Zr    s      4.6189 *    -3.8068 *     8.8824 *  0.0000     4          
   351  Zr    s    -10.6082 *    -1.2689 *     1.2689    0.0000     2          
   352  O     s      0.8121 *     7.6135 *     7.6135    0.0000     2          
   353  O     s      0.8121 *    -7.6135 *     7.6135    0.0000     2          
   354  O     s      5.8878 *    -5.0757 *     7.6135 *  0.0000     4          
   355  O     s      5.8878 *     7.6135 *     5.0757 *  0.0000     4          
   356  O     s     -1.7257 *    -7.6135 *     7.6135    0.0000     2          
   357  O     s     -1.7257 *     7.6135 *     7.6135    0.0000     2          
   358  Zr    s     -0.4568 *     6.3446 *     8.8824 *  0.0000     4          
   359  O     s     -9.3393 *    -2.5378 *    -5.0757 *  0.0000     4          
   360  O     s     -9.3393 *     2.5378 *    -5.0757 *  0.0000     4          
   361  Zr    s     -8.0703 *     3.8068 *    -6.3446 *  0.0000     4          
   362  O     s     10.9635 *    -0.0000      -0.0000    0.0000     1          
   363  O     s      3.3500 *    -2.5378 *    10.1514 *  0.0000     4          
   364  O     s      3.3500 *     2.5378 *    10.1514 *  0.0000     4          
   365  O     s     -4.2636 *    -0.0000 *    10.1514 *  0.0000     4          
   366  O     s      8.4256 *     5.0757 *     5.0757    0.0000     2          
   367  O     s      8.4256 *     5.0757 *    -5.0757    0.0000     2          
   368  Zr    s      9.6946 *     3.8068 *    -3.8068    0.0000     2          
   369  Zr    s      2.0810 *    -8.8824 *     6.3446 *  0.0000     4          
   370  Zr    s     -5.5325 *    -8.8824 *     3.8068 *  0.0000     4          
   371  O     s     10.9635 *     2.5378 *     0.0000 *  0.0000     4          
   372  O     s      3.3500 *    -7.6135 *     7.6135    0.0000     2          
   373  O     s      3.3500 *     7.6135 *     7.6135    0.0000     2          
   374  O     s     -4.2636 *   -10.1514 *     2.5378 *  0.0000     4          
   375  O     s     -4.2636 *     2.5378 *    10.1514 *  0.0000     4          
   376  Zr    s     -2.9947 *    -8.8824 *     6.3446 *  0.0000     4          
   377  Zr    s    -10.6082 *     1.2689 *     3.8068 *  0.0000     4          
   378  O     s      8.4256 *     7.6135 *    -0.0000 *  0.0000     4          
   379  O     s      0.8121 *    -5.0757 *    10.1514 *  0.0000     4          
   380  O     s      0.8121 *     5.0757 *    10.1514 *  0.0000     4          
   381  O     s     -6.8014 *    -5.0757 *     7.6135 *  0.0000     4          
   382  O     s     -6.8014 *     5.0757 *     7.6135 *  0.0000     4          
   383  Zr    s      7.1567 *    -1.2689 *     8.8824 *  0.0000     4          
   384  Zr    s      7.1567 *     6.3446 *     6.3446    0.0000     2          
   385  O     s     -1.7257 *     5.0757 *   -10.1514 *  0.0000     4          
   386  O     s     -1.7257 *     5.0757 *    10.1514 *  0.0000     4          
   387  Zr    s     -0.4568 *    -1.2689 *    11.4203 *  0.0000     4          
   388  O     s     10.9635 *     2.5378 *     2.5378    0.0000     2          
   389  O     s     10.9635 *     2.5378 *    -2.5378    0.0000     2          
   390  O     s     -4.2636 *     7.6135 *     7.6135    0.0000     2          
   391  O     s     -4.2636 *    -7.6135 *     7.6135    0.0000     2          
   392  O     s      8.4256 *    -2.5378 *     7.6135 *  0.0000     4          
   393  O     s      8.4256 *     7.6135 *     2.5378 *  0.0000     4          
   394  Zr    s      9.6946 *    -1.2689 *     6.3446 *  0.0000     4          
   395  Zr    s      2.0810 *     1.2689 *    11.4203 *  0.0000     4          
   396  O     s      5.8878 *    -0.0000 *    10.1514 *  0.0000     4          
   397  O     s     -9.3393 *     5.0757 *     5.0757    0.0000     2          
   398  O     s     -9.3393 *    -5.0757 *     5.0757    0.0000     2          
   399  O     s      3.3500 *    -5.0757 *    10.1514 *  0.0000     4          
   400  O     s      3.3500 *    10.1514 *     5.0757 *  0.0000     4          
   401  Zr    s      4.6189 *     6.3446 *     8.8824 *  0.0000     4          
   402  Zr    s     -2.9947 *     1.2689 *    11.4203 *  0.0000     4          
   403  O     s    -11.8771 *    -0.0000       0.0000    0.0000     1          
   404  Zr    s    -10.6082 *    -3.8068 *     3.8068    0.0000     2          
--------------------------------------------------------------------------------


  Constraints on symmetry reduced coordinates :

--------------------------------------------------------------------------------
  Constraint no.      Unconstrained     Constrained    Coefficient    
                         Variable         Variable
--------------------------------------------------------------------------------
           1                 2 y             2 z        -1.00000
           2                 4 y             4 z         1.00000
           3                 7 y             7 z         1.00000
           4                 8 y             8 z         1.00000
           5                 9 y             9 z        -1.00000
           6                10 y            10 z        -1.00000
           7                11 y            11 z         1.00000
           8                16 y            16 z        -1.00000
           9                17 y            17 z         1.00000
          10                18 y            18 z        -1.00000
          11                23 y            23 z        -1.00000
          12                24 y            24 z        -1.00000
          13                25 y            25 z         1.00000
          14                28 y            28 z         1.00000
          15                29 y            29 z        -1.00000
          16                35 y            35 z         1.00000
          17                44 y            44 z         1.00000
          18                45 y            45 z        -1.00000
          19                46 y            46 z        -1.00000
          20                50 y            50 z         1.00000
          21                51 y            51 z        -1.00000
          22                53 y            53 z         1.00000
          23                54 y            54 z         1.00000
          24                55 y            55 z        -1.00000
          25                59 y            59 z         1.00000
          26                60 y            60 z        -1.00000
          27                61 y            61 z        -1.00000
          28                64 y            64 z         1.00000
          29                65 y            65 z        -1.00000
          30                75 y            75 z         1.00000
          31                77 y            77 z         1.00000
          32                78 y            78 z        -1.00000
          33                89 y            89 z         1.00000
          34                90 y            90 z        -1.00000
          35                95 y            95 z         1.00000
          36                96 y            96 z        -1.00000
          37                99 y            99 z         1.00000
          38               102 y           102 z         1.00000
          39               103 y           103 z        -1.00000
          40               107 y           107 z         1.00000
          41               113 y           113 z         1.00000
          42               117 y           117 z        -1.00000
          43               119 y           119 z         1.00000
          44               120 y           120 z        -1.00000
          45               123 y           123 z         1.00000
          46               124 y           124 z        -1.00000
          47               125 y           125 z        -1.00000
          48               143 y           143 z        -1.00000
          49               149 y           149 z        -1.00000
          50               150 y           150 z         1.00000
          51               151 y           151 z        -1.00000
          52               154 y           154 z        -1.00000
          53               155 y           155 z         1.00000
          54               164 y           164 z         1.00000
          55               165 y           165 z        -1.00000
          56               166 y           166 z        -1.00000
          57               170 y           170 z        -1.00000
          58               171 y           171 z         1.00000
          59               182 y           182 z         1.00000
          60               186 y           186 z         1.00000
          61               187 y           187 z        -1.00000
          62               188 y           188 z         1.00000
          63               189 y           189 z        -1.00000
          64               195 y           195 z         1.00000
          65               196 y           196 z        -1.00000
          66               202 y           202 z        -1.00000
          67               204 y           204 z        -1.00000
          68               206 y           206 z         1.00000
          69               209 y           209 z         1.00000
          70               210 y           210 z         1.00000
          71               211 y           211 z        -1.00000
          72               212 y           212 z        -1.00000
          73               213 y           213 z         1.00000
          74               218 y           218 z        -1.00000
          75               219 y           219 z         1.00000
          76               220 y           220 z        -1.00000
          77               225 y           225 z        -1.00000
          78               226 y           226 z        -1.00000
          79               227 y           227 z         1.00000
          80               230 y           230 z         1.00000
          81               231 y           231 z        -1.00000
          82               237 y           237 z         1.00000
          83               246 y           246 z         1.00000
          84               247 y           247 z        -1.00000
          85               248 y           248 z        -1.00000
          86               252 y           252 z         1.00000
          87               253 y           253 z        -1.00000
          88               255 y           255 z         1.00000
          89               256 y           256 z         1.00000
          90               257 y           257 z        -1.00000
          91               261 y           261 z         1.00000
          92               262 y           262 z        -1.00000
          93               263 y           263 z        -1.00000
          94               266 y           266 z         1.00000
          95               267 y           267 z        -1.00000
          96               277 y           277 z         1.00000
          97               279 y           279 z         1.00000
          98               280 y           280 z        -1.00000
          99               291 y           291 z         1.00000
         100               292 y           292 z        -1.00000
         101               297 y           297 z         1.00000
         102               298 y           298 z        -1.00000
         103               301 y           301 z         1.00000
         104               304 y           304 z         1.00000
         105               305 y           305 z        -1.00000
         106               309 y           309 z         1.00000
         107               315 y           315 z         1.00000
         108               319 y           319 z        -1.00000
         109               321 y           321 z         1.00000
         110               322 y           322 z        -1.00000
         111               325 y           325 z         1.00000
         112               326 y           326 z        -1.00000
         113               327 y           327 z        -1.00000
         114               345 y           345 z        -1.00000
         115               351 y           351 z        -1.00000
         116               352 y           352 z         1.00000
         117               353 y           353 z        -1.00000
         118               356 y           356 z        -1.00000
         119               357 y           357 z         1.00000
         120               366 y           366 z         1.00000
         121               367 y           367 z        -1.00000
         122               368 y           368 z        -1.00000
         123               372 y           372 z        -1.00000
         124               373 y           373 z         1.00000
         125               384 y           384 z         1.00000
         126               388 y           388 z         1.00000
         127               389 y           389 z        -1.00000
         128               390 y           390 z         1.00000
         129               391 y           391 z        -1.00000
         130               397 y           397 z         1.00000
         131               398 y           398 z        -1.00000
         132               404 y           404 z        -1.00000
--------------------------------------------------------------------------------


  Components of defect energy : 

--------------------------------------------------------------------------------
  Region 1 - region 1                   =     21.75781738 eV
  Region 1 - region 2a (unrelaxed)      =      9.66416895 eV
  Region 1 - 2a (relaxed - correction)  =     -2.36832313 eV
  Region 1 (Total)                      =     29.05366319 eV
  Region 2a                             =      1.18418855 eV
  Region 2b                             =     -1.15583612 eV
--------------------------------------------------------------------------------
  Total defect energy                   =     29.08201563 eV
--------------------------------------------------------------------------------

  Largest displacement in region 2 =   0.0056 Angstroms


  Number of variables =     1042

  Maximum number of calculations  =        1000
  Maximum Hessian update interval =          10
  Maximum step size               =   1.0000000
  Maximum parameter tolerance     =   0.0000100
  Maximum function  tolerance     =   0.0000100
  Maximum gradient  tolerance     =   0.0010000

  Symmetry adapted optimisation

  Symmetry to be used for second derivatives

  Newton-Raphson optimiser to be used

  BFGS hessian update to be used

  Lower half triangular hessian to be used

  Start of defect optimisation :

  Cycle:      0 Defect Energy:  29.082016  Gnorm:     0.085244  CPU:    4.756
  ** Hessian calculated **
  Cycle:      1 Defect Energy:  24.593322  Gnorm:     0.069211  CPU:   19.899
  ** Hessian calculated **
  Cycle:      2 Defect Energy:  17.459725  Gnorm:     0.039379  CPU:   36.589
  Cycle:      3 Defect Energy:  15.287997  Gnorm:     0.014535  CPU:   42.295
  Cycle:      4 Defect Energy:  14.828715  Gnorm:     0.003347  CPU:   48.017
  Cycle:      5 Defect Energy:  14.769734  Gnorm:     0.001915  CPU:   49.530
  Cycle:      6 Defect Energy:  14.746832  Gnorm:     0.001748  CPU:   51.043
  Cycle:      7 Defect Energy:  14.726238  Gnorm:     0.001789  CPU:   52.564
  Cycle:      8 Defect Energy:  14.710434  Gnorm:     0.001714  CPU:   54.081
  Cycle:      9 Defect Energy:  14.698329  Gnorm:     0.001610  CPU:   55.608
  Cycle:     10 Defect Energy:  14.688316  Gnorm:     0.001381  CPU:   57.125
  Cycle:     11 Defect Energy:  14.679992  Gnorm:     0.001149  CPU:   58.643
  ** Hessian calculated **
  Cycle:     12 Defect Energy:  14.672641  Gnorm:     0.000841  CPU:   65.601
  Cycle:     13 Defect Energy:  14.667910  Gnorm:     0.000645  CPU:   67.119
  Cycle:     14 Defect Energy:  14.664066  Gnorm:     0.000505  CPU:   68.638
  Cycle:     15 Defect Energy:  14.660774  Gnorm:     0.000416  CPU:   70.151
  Cycle:     16 Defect Energy:  14.658016  Gnorm:     0.000376  CPU:   71.670
  Cycle:     17 Defect Energy:  14.655529  Gnorm:     0.000390  CPU:   73.181
  Cycle:     18 Defect Energy:  14.653331  Gnorm:     0.000445  CPU:   74.706
  Cycle:     19 Defect Energy:  14.651832  Gnorm:     0.000468  CPU:   76.384
  Cycle:     20 Defect Energy:  14.651001  Gnorm:     0.000413  CPU:   77.918
  Cycle:     21 Defect Energy:  14.650493  Gnorm:     0.000328  CPU:   79.430
  ** Hessian calculated **
  Cycle:     22 Defect Energy:  14.650444  Gnorm:     0.000154  CPU:   86.387
  Cycle:     23 Defect Energy:  14.650427  Gnorm:     0.000107  CPU:   87.904
  Cycle:     24 Defect Energy:  14.650410  Gnorm:     0.000071  CPU:   89.417
  Cycle:     25 Defect Energy:  14.650390  Gnorm:     0.000048  CPU:   90.934
  Cycle:     26 Defect Energy:  14.650375  Gnorm:     0.000046  CPU:   92.488
  Cycle:     27 Defect Energy:  14.650360  Gnorm:     0.000052  CPU:   94.002
  Cycle:     28 Defect Energy:  14.650349  Gnorm:     0.000061  CPU:   95.533
  Cycle:     29 Defect Energy:  14.650337  Gnorm:     0.000065  CPU:   97.050
  Cycle:     30 Defect Energy:  14.650326  Gnorm:     0.000067  CPU:   98.563
  Cycle:     31 Defect Energy:  14.650315  Gnorm:     0.000065  CPU:  100.078
  ** Hessian calculated **
  Cycle:     32 Defect Energy:  14.650303  Gnorm:     0.000064  CPU:  107.026
  Cycle:     33 Defect Energy:  14.650286  Gnorm:     0.000063  CPU:  108.542
  Cycle:     34 Defect Energy:  14.650261  Gnorm:     0.000061  CPU:  110.057
  Cycle:     35 Defect Energy:  14.650224  Gnorm:     0.000057  CPU:  111.580
  Cycle:     36 Defect Energy:  14.650174  Gnorm:     0.000052  CPU:  113.092
  Cycle:     37 Defect Energy:  14.650106  Gnorm:     0.000044  CPU:  114.617
  Cycle:     38 Defect Energy:  14.650025  Gnorm:     0.000031  CPU:  116.135
  Cycle:     39 Defect Energy:  14.649969  Gnorm:     0.000018  CPU:  117.652
  Cycle:     40 Defect Energy:  14.649947  Gnorm:     0.000011  CPU:  119.168


  **** Optimisation achieved ****


  Final defect energy  =       14.64993913
  Final defect Gnorm   =        0.00000699

  Components of defect energy : 

--------------------------------------------------------------------------------
  Region 1 - region 1                   =     14.43381660 eV
  Region 1 - region 2a (unrelaxed)      =      2.41518385 eV
  Region 1 - 2a (relaxed - correction)  =     -2.08813901 eV
  Region 1 (Total)                      =     14.76086144 eV
  Region 2a                             =      1.04400151 eV
  Region 2b                             =     -1.15492382 eV
--------------------------------------------------------------------------------
  Total defect energy                   =     14.64993913 eV
--------------------------------------------------------------------------------

  Largest displacement in region 2 =   0.0056 Angstroms

  Final coordinates of region 1 :

--------------------------------------------------------------------------------
   No.  Atomic        x           y           z          Radius      Charge
        Label       (Angs)      (Angs)      (Angs)       (Angs)       (e) 
--------------------------------------------------------------------------------
     1  O     c     2.994653    1.268921    1.268921    0.000000    0.077000
     2  Zr    c     2.589977   -0.045725    2.583566    0.000000    2.650000
     3  Zr    c     2.589977    2.583566   -0.045725    0.000000    2.650000
     4  O     c     3.906509    3.764864    1.214443    0.000000    0.077000
     5  O     c     3.906509    1.214443    3.764864    0.000000    0.077000
     6  O     c     3.906509    1.323398   -1.227022    0.000000    0.077000
     7  O     c     3.906509   -1.227022    1.323398    0.000000    0.077000
     8  Zr    c     5.115782   -0.039194   -0.039194    0.000000    2.650000
     9  Zr    c     5.115782    2.577036    2.577036    0.000000    2.650000
    10  O     c     1.305299    1.287432    3.675215    0.000000    0.077000
    11  O     c     1.305299    3.675215    1.287432    0.000000    0.077000
    12  O     c     1.305299   -1.137373    1.250410    0.000000    0.077000
    13  O     c     1.305299    1.250410   -1.137373    0.000000    0.077000
    14  O     c     5.849002    1.268921    1.268921    0.000000    0.077000
    15  Zr    c    -0.017877   -0.039319   -0.039319    0.000000    2.650000
    16  Zr    c    -0.017877    2.577161    2.577161    0.000000    2.650000
    17  O     c     3.767682    3.784112    3.784112    0.000000    0.077000
    18  O     c     3.767682   -1.246271   -1.246271    0.000000    0.077000
    19  O     c     3.772999   -1.311300    3.849142    0.000000    0.077000
    20  O     c     3.772999    3.849142   -1.311300    0.000000    0.077000
    21  O     c     1.245284   -1.287952    3.825794    0.000000    0.077000
    22  O     c     1.245284    3.825794   -1.287952    0.000000    0.077000
    23  O     c     1.248080    3.850705    3.850705    0.000000    0.077000
    24  O     c     1.248080   -1.312863   -1.312863    0.000000    0.077000
    25  Zr    c     2.544415    2.561712    5.095448    0.000000    2.650000
    26  Zr    c     2.544415    5.095448    2.561712    0.000000    2.650000
    27  Zr    c     2.544415   -2.557606   -0.023871    0.000000    2.650000
    28  Zr    c     2.544415   -0.023871   -2.557606    0.000000    2.650000
    29  O     c     6.453834    3.784419    1.312243    0.000000    0.077000
    30  O     c     6.453834    1.312243    3.784419    0.000000    0.077000
    31  O     c     6.453834    1.225599   -1.246577    0.000000    0.077000
    32  O     c     6.453834   -1.246577    1.225599    0.000000    0.077000
    33  O     c    -0.213366    1.268921    1.268921    0.000000    0.077000
    34  Zr    c     5.091462    2.550315   -2.556820    0.000000    2.650000
    35  Zr    c     5.091462    5.094662   -0.012473    0.000000    2.650000
    36  Zr    c     5.091462   -2.556820    2.550315    0.000000    2.650000
    37  Zr    c     5.091462   -0.012473    5.094662    0.000000    2.650000
    38  O     c     6.306855    3.784495   -1.246653    0.000000    0.077000
    39  O     c     6.306855   -1.246653    3.784495    0.000000    0.077000
    40  O     c     6.290921    3.830590    3.830590    0.000000    0.077000
    41  O     c     6.290921   -1.292748   -1.292748    0.000000    0.077000
    42  Zr    c     7.632872    2.563858   -0.026017    0.000000    2.650000
    43  Zr    c     7.632872   -0.026017    2.563858    0.000000    2.650000
    44  O     c    -1.324278   -1.198203    1.234579    0.000000    0.077000
    45  O     c    -1.324278    1.234579   -1.198203    0.000000    0.077000
    46  O     c    -1.324278    1.303263    3.736045    0.000000    0.077000
    47  O     c    -1.324278    3.736045    1.303263    0.000000    0.077000
    48  Zr    c    -0.002757   -2.560339    2.567799    0.000000    2.650000
    49  Zr    c    -0.002757    5.098181   -0.029957    0.000000    2.650000
    50  Zr    c    -0.002757    2.567799   -2.560339    0.000000    2.650000
    51  Zr    c    -0.002757   -0.029957    5.098181    0.000000    2.650000
    52  O     c     3.778336    1.278627    6.317278    0.000000    0.077000
    53  O     c     3.778336    6.317278    1.278627    0.000000    0.077000
    54  O     c     3.778336   -3.779437    1.259215    0.000000    0.077000
    55  O     c     3.778336    1.259215   -3.779437    0.000000    0.077000
    56  O     c     1.249211   -3.713525    1.270940    0.000000    0.077000
    57  O     c     1.249211    1.270940   -3.713525    0.000000    0.077000
    58  O     c     1.249211    1.266902    6.251366    0.000000    0.077000
    59  O     c     1.249211    6.251366    1.266902    0.000000    0.077000
    60  Zr    c     2.545845   -2.561396    5.099238    0.000000    2.650000
    61  Zr    c     2.545845    5.099238   -2.561396    0.000000    2.650000
    62  O     c    -1.275392    3.807010   -1.269168    0.000000    0.077000
    63  O     c    -1.275392   -1.269168    3.807010    0.000000    0.077000
    64  O     c    -1.283502    3.844134    3.844134    0.000000    0.077000
    65  O     c    -1.283502   -1.306292   -1.306292    0.000000    0.077000
    66  O     c     3.819904   -3.833321    3.795234    0.000000    0.077000
    67  O     c     3.819904    3.795234   -3.833321    0.000000    0.077000
    68  O     c     3.819904   -1.257392    6.371163    0.000000    0.077000
    69  O     c     3.819904    6.371163   -1.257392    0.000000    0.077000
    70  O     c     3.815466    6.320448    3.807042    0.000000    0.077000
    71  O     c     3.815466    3.807042    6.320448    0.000000    0.077000
    72  O     c     3.815466   -1.269200   -3.782606    0.000000    0.077000
    73  O     c     3.815466   -3.782606   -1.269200    0.000000    0.077000
    74  Zr    c     5.089494    5.094724    5.094724    0.000000    2.650000
    75  Zr    c     5.089494   -2.556883   -2.556883    0.000000    2.650000
    76  Zr    c    -2.585616   -0.048835    2.586677    0.000000    2.650000
    77  Zr    c    -2.585616    2.586677   -0.048835    0.000000    2.650000
    78  O     c     8.584448    1.268921    1.268921    0.000000    0.077000
[...]
    324 y          8.882446      8.880130    -0.002316    Cartesian   -0.03
    324 z          3.806763      3.808221     0.001459    Cartesian    0.04
    325 x         -6.344605     -6.327571     0.017033    Cartesian   -0.27
    325 y         -1.268921     -1.268454     0.000467    Cartesian   -0.04
    325 z         -1.268921     -1.268454     0.000467    Cartesian   -0.04
    326 x         -6.344605     -6.351611    -0.007006    Cartesian    0.11
    326 y         -1.268921     -1.254812     0.014109    Cartesian   -1.11
    326 z          3.806763      3.792654    -0.014109    Cartesian   -0.37
    327 x          7.613525      7.616157     0.002631    Cartesian    0.03
    327 y         -5.075684     -5.079839    -0.004156    Cartesian    0.08
    327 z          7.613525      7.617681     0.004156    Cartesian    0.05
    328 x          7.613525      7.614802     0.001277    Cartesian    0.02
    328 y          2.537842      2.537768    -0.000074    Cartesian   -0.00
    328 z         10.151367     10.154618     0.003251    Cartesian    0.03
    329 x         -1.268921     -1.266573     0.002348    Cartesian   -0.19
    329 y         -6.344605     -6.345458    -0.000854    Cartesian    0.01
    329 z          6.344605      6.343129    -0.001475    Cartesian   -0.02
    330 x         -1.268921     -1.268411     0.000510    Cartesian   -0.04
    330 y          6.344605      6.340863    -0.003742    Cartesian   -0.06
    330 z          8.882446      8.877806    -0.004640    Cartesian   -0.05
    331 x          0.000000      0.001537     0.001537    Cartesian    0.00
    331 y          5.075684      5.074034    -0.001650    Cartesian   -0.03
    331 z         10.151367     10.156309     0.004942    Cartesian    0.05
    332 x         11.420288     11.425534     0.005246    Cartesian    0.05
    332 y          6.344605      6.344143    -0.000461    Cartesian   -0.01
    332 z          3.806763      3.810376     0.003614    Cartesian    0.09
    333 x         11.420288     11.429471     0.009183    Cartesian    0.08
    333 y          6.344605      6.341676    -0.002928    Cartesian   -0.05
    333 z         -1.268921     -1.270781    -0.001860    Cartesian    0.15
    334 x          3.806763      3.802124    -0.004639    Cartesian   -0.12
    334 y          1.268921      1.269492     0.000571    Cartesian    0.04
    334 z         11.420288     11.413233    -0.007055    Cartesian   -0.06
    335 x         -3.806763     -3.805490     0.001273    Cartesian   -0.03
    335 y          1.268921      1.266123    -0.002798    Cartesian   -0.22
    335 z          8.882446      8.871550    -0.010897    Cartesian   -0.12
    336 x         10.151367     10.157278     0.005911    Cartesian    0.06
    336 y          7.613525      7.617358     0.003833    Cartesian    0.05
    336 z         -2.537842     -2.537086     0.000756    Cartesian   -0.03
    337 x          1.268921      1.265643    -0.003278    Cartesian   -0.26
    337 y          1.268921      1.268237    -0.000684    Cartesian   -0.05
    337 z         11.420288     11.394397    -0.025891    Cartesian   -0.23
    338 x         -5.075684     -5.080587    -0.004903    Cartesian    0.10
    338 y         -5.075684     -5.081578    -0.005895    Cartesian    0.12
    338 z          0.000000     -0.002765    -0.002765    Cartesian    0.00
    339 x         12.689209     12.696517     0.007308    Cartesian    0.06
    339 y          5.075684      5.075384    -0.000299    Cartesian   -0.01
    339 z          2.537842      2.535245    -0.002597    Cartesian   -0.10
    340 x          3.806763      3.806469    -0.000294    Cartesian   -0.01
    340 y         11.420288     11.426733     0.006444    Cartesian    0.06
    340 z         -1.268921     -1.267957     0.000964    Cartesian   -0.08
    341 x          3.806763      3.802855    -0.003908    Cartesian   -0.10
    341 y          3.806763      3.805607    -0.001156    Cartesian   -0.03
    341 z         11.420288     11.410480    -0.009808    Cartesian   -0.09
    342 x         -3.806763     -3.811645    -0.004882    Cartesian    0.13
    342 y         -1.268921     -1.266913     0.002008    Cartesian   -0.16
    342 z         -6.344605     -6.336062     0.008542    Cartesian   -0.13
    343 x         -3.806763     -3.807461    -0.000698    Cartesian    0.02
    343 y          3.806763      3.805216    -0.001546    Cartesian   -0.04
    343 z         -6.344605     -6.347056    -0.002451    Cartesian    0.04
    344 x         -2.537842     -2.536484     0.001358    Cartesian   -0.05
    344 y         -7.613525     -7.618818    -0.005293    Cartesian    0.07
    344 z          0.000000     -0.000940    -0.000940    Cartesian    0.00
    345 x         -2.537842     -2.536203     0.001639    Cartesian   -0.06
    345 y         -5.075684     -5.083830    -0.008147    Cartesian    0.16
    345 z          7.613525      7.621672     0.008147    Cartesian    0.11
    346 x          1.268921      1.266930    -0.001991    Cartesian   -0.16
    346 y         -1.268921     -1.266988     0.001933    Cartesian   -0.15
    346 z         11.420288     11.420636     0.000348    Cartesian    0.00
    347 x          1.268921      1.270006     0.001085    Cartesian    0.09
    347 y          3.806763      3.804850    -0.001912    Cartesian   -0.05
    347 z         11.420288     11.427267     0.006979    Cartesian    0.06
    348 x         -6.344605     -6.342117     0.002488    Cartesian   -0.04
    348 y          1.268921      1.260929    -0.007992    Cartesian   -0.63
    348 z          6.344605      6.342593    -0.002011    Cartesian   -0.03
    349 x          6.344605      6.341149    -0.003456    Cartesian   -0.05
    349 y         11.420288     11.416930    -0.003358    Cartesian   -0.03
    349 z          1.268921      1.267532    -0.001389    Cartesian   -0.11
    350 x          7.613525      7.617728     0.004203    Cartesian    0.06
    350 y         -2.537842     -2.539690    -0.001849    Cartesian    0.07
    350 z         10.151367     10.155804     0.004437    Cartesian    0.04
    351 x         -7.613525     -7.603584     0.009941    Cartesian   -0.13
    351 y         -0.000000     -0.018881    -0.018881    Cartesian *******
    351 z          2.537842      2.556722     0.018881    Cartesian    0.74
    352 x          3.806763      3.806764     0.000001    Cartesian    0.00
    352 y          8.882446      8.880838    -0.001608    Cartesian   -0.02
    352 z          8.882446      8.880838    -0.001608    Cartesian   -0.02
    353 x          3.806763      3.800551    -0.006212    Cartesian   -0.16
    353 y         -6.344605     -6.342704     0.001901    Cartesian   -0.03
    353 z          8.882446      8.880546    -0.001901    Cartesian   -0.02
    354 x          8.882446      8.881045    -0.001401    Cartesian   -0.02
    354 y         -3.806763     -3.805937     0.000826    Cartesian   -0.02
    354 z          8.882446      8.880052    -0.002395    Cartesian   -0.03
    355 x          8.882446      8.883024     0.000578    Cartesian    0.01
    355 y          8.882446      8.882666     0.000220    Cartesian    0.00
    355 z          6.344605      6.342166    -0.002439    Cartesian   -0.04
    356 x          1.268921      1.269910     0.000989    Cartesian    0.08
    356 y         -6.344605     -6.343574     0.001030    Cartesian   -0.02
    356 z          8.882446      8.881416    -0.001030    Cartesian   -0.01
    357 x          1.268921      1.265158    -0.003763    Cartesian   -0.30
    357 y          8.882446      8.880116    -0.002330    Cartesian   -0.03
    357 z          8.882446      8.880116    -0.002330    Cartesian   -0.03
    358 x          2.537842      2.539800     0.001959    Cartesian    0.08
    358 y          7.613525      7.616820     0.003295    Cartesian    0.04
    358 z         10.151367     10.157951     0.006584    Cartesian    0.06
    359 x         -6.344605     -6.336888     0.007716    Cartesian   -0.12
    359 y         -1.268921     -1.268948    -0.000027    Cartesian    0.00
    359 z         -3.806763     -3.811290    -0.004528    Cartesian    0.12
    360 x         -6.344605     -6.342909     0.001695    Cartesian   -0.03
    360 y          3.806763      3.806031    -0.000731    Cartesian   -0.02
    360 z         -3.806763     -3.800323     0.006440    Cartesian   -0.17
    361 x         -5.075684     -5.078891    -0.003208    Cartesian    0.06
    361 y          5.075684      5.079408     0.003724    Cartesian    0.07
    361 z         -5.075684     -5.084966    -0.009283    Cartesian    0.18
    362 x         13.958130     13.887561    -0.070569    Cartesian   -0.51
    362 y          1.268921      1.268921     0.000000    Cartesian    0.00
    362 z          1.268921      1.268921     0.000000    Cartesian    0.00
    363 x          6.344605      6.343140    -0.001465    Cartesian   -0.02
    363 y         -1.268921     -1.266551     0.002370    Cartesian   -0.19
    363 z         11.420288     11.412015    -0.008273    Cartesian   -0.07
    364 x          6.344605      6.343118    -0.001487    Cartesian   -0.02
    364 y          3.806763      3.806521    -0.000242    Cartesian   -0.01
    364 z         11.420288     11.423673     0.003385    Cartesian    0.03
    365 x         -1.268921     -1.271618    -0.002697    Cartesian    0.21
    365 y          1.268921      1.265941    -0.002980    Cartesian   -0.23
    365 z         11.420288     11.405957    -0.014331    Cartesian   -0.13
    366 x         11.420288     11.410567    -0.009721    Cartesian   -0.09
    366 y          6.344605      6.342150    -0.002454    Cartesian   -0.04
    366 z          6.344605      6.342150    -0.002454    Cartesian   -0.04
    367 x         11.420288     11.416613    -0.003675    Cartesian   -0.03
    367 y          6.344605      6.344330    -0.000274    Cartesian   -0.00
    367 z         -3.806763     -3.806488     0.000274    Cartesian   -0.01
    368 x         12.689209     12.694051     0.004842    Cartesian    0.04
    368 y          5.075684      5.081639     0.005956    Cartesian    0.12
    368 z         -2.537842     -2.543798    -0.005956    Cartesian    0.23
    369 x          5.075684      5.078210     0.002526    Cartesian    0.05
    369 y         -7.613525     -7.619709    -0.006184    Cartesian    0.08
    369 z          7.613525      7.617214     0.003688    Cartesian    0.05
    370 x         -2.537842     -2.541093    -0.003251    Cartesian    0.13
    370 y         -7.613525     -7.620842    -0.007317    Cartesian    0.10
    370 z          5.075684      5.077181     0.001497    Cartesian    0.03
    371 x         13.958130     13.983288     0.025158    Cartesian    0.18
    371 y          3.806763      3.801673    -0.005090    Cartesian   -0.13
    371 z          1.268921      1.265583    -0.003338    Cartesian   -0.26
    372 x          6.344605      6.342701    -0.001903    Cartesian   -0.03
    372 y         -6.344605     -6.342269     0.002336    Cartesian   -0.04
    372 z          8.882446      8.880111    -0.002336    Cartesian   -0.03
    373 x          6.344605      6.340229    -0.004376    Cartesian   -0.07
    373 y          8.882446      8.880814    -0.001632    Cartesian   -0.02
    373 z          8.882446      8.880814    -0.001632    Cartesian   -0.02
    374 x         -1.268921     -1.266285     0.002635    Cartesian   -0.21
    374 y         -8.882446     -8.872727     0.009719    Cartesian   -0.11
    374 z          3.806763      3.805529    -0.001233    Cartesian   -0.03
    375 x         -1.268921     -1.268366     0.000555    Cartesian   -0.04
    375 y          3.806763      3.802324    -0.004439    Cartesian   -0.12
    375 z         11.420288     11.420020    -0.000268    Cartesian   -0.00
    376 x          0.000000     -0.000541    -0.000541    Cartesian *******
    376 y         -7.613525     -7.622143    -0.008618    Cartesian    0.11
    376 z          7.613525      7.617758     0.004232    Cartesian    0.06
    377 x         -7.613525     -7.626424    -0.012899    Cartesian    0.17
    377 y          2.537842      2.535224    -0.002618    Cartesian   -0.10
    377 z          5.075684      5.077872     0.002188    Cartesian    0.04
    378 x         11.420288     11.421322     0.001034    Cartesian    0.01
    378 y          8.882446      8.881095    -0.001351    Cartesian   -0.02
    378 z          1.268921      1.270207     0.001286    Cartesian    0.10
    379 x          3.806763      3.804182    -0.002581    Cartesian   -0.07
    379 y         -3.806763     -3.804317     0.002446    Cartesian   -0.06
    379 z         11.420288     11.412866    -0.007422    Cartesian   -0.06
    380 x          3.806763      3.806031    -0.000732    Cartesian   -0.02
    380 y          6.344605      6.344228    -0.000376    Cartesian   -0.01
    380 z         11.420288     11.417522    -0.002766    Cartesian   -0.02
    381 x         -3.806763     -3.807303    -0.000540    Cartesian    0.01
    381 y         -3.806763     -3.805155     0.001608    Cartesian   -0.04
    381 z          8.882446      8.877343    -0.005103    Cartesian   -0.06
    382 x         -3.806763     -3.799233     0.007529    Cartesian   -0.20
    382 y          6.344605      6.338084    -0.006521    Cartesian   -0.10
    382 z          8.882446      8.875982    -0.006464    Cartesian   -0.07
    383 x         10.151367     10.156747     0.005380    Cartesian    0.05
    383 y          0.000000     -0.000278    -0.000278    Cartesian    0.00
    383 z         10.151367     10.157856     0.006489    Cartesian    0.06
    384 x         10.151367     10.156507     0.005140    Cartesian    0.05
    384 y          7.613525      7.619861     0.006335    Cartesian    0.08
    384 z          7.613525      7.619861     0.006335    Cartesian    0.08
    385 x          1.268921      1.268225    -0.000696    Cartesian   -0.05
    385 y          6.344605      6.343530    -0.001075    Cartesian   -0.02
    385 z         -8.882446     -8.875260     0.007187    Cartesian   -0.08
    386 x          1.268921      1.269827     0.000906    Cartesian    0.07
    386 y          6.344605      6.341376    -0.003229    Cartesian   -0.05
    386 z         11.420288     11.410385    -0.009903    Cartesian   -0.09
    387 x          2.537842      2.540191     0.002349    Cartesian    0.09
    387 y         -0.000000     -0.003825    -0.003825    Cartesian *******
    387 z         12.689209     12.697119     0.007910    Cartesian    0.06
    388 x         13.958130     13.935048    -0.023082    Cartesian   -0.17
    388 y          3.806763      3.805527    -0.001236    Cartesian   -0.03
    388 z          3.806763      3.805527    -0.001236    Cartesian   -0.03
    389 x         13.958130     13.932071    -0.026059    Cartesian   -0.19
    389 y          3.806763      3.806937     0.000174    Cartesian    0.00
    389 z         -1.268921     -1.269095    -0.000174    Cartesian    0.01
    390 x         -1.268921     -1.264118     0.004803    Cartesian   -0.38
    390 y          8.882446      8.873915    -0.008531    Cartesian   -0.10
    390 z          8.882446      8.873915    -0.008531    Cartesian   -0.10
    391 x         -1.268921     -1.272020    -0.003099    Cartesian    0.24
    391 y         -6.344605     -6.340962     0.003642    Cartesian   -0.06
    391 z          8.882446      8.878804    -0.003642    Cartesian   -0.04
    392 x         11.420288     11.416010    -0.004278    Cartesian   -0.04
    392 y         -1.268921     -1.269099    -0.000179    Cartesian    0.01
    392 z          8.882446      8.879403    -0.003043    Cartesian   -0.03
    393 x         11.420288     11.408476    -0.011812    Cartesian   -0.10
    393 y          8.882446      8.876098    -0.006348    Cartesian   -0.07
    393 z          3.806763      3.802203    -0.004560    Cartesian   -0.12
    394 x         12.689209     12.698798     0.009589    Cartesian    0.08
    394 y          0.000000     -0.001996    -0.001996    Cartesian    0.00
    394 z          7.613525      7.618879     0.005353    Cartesian    0.07
    395 x          5.075684      5.079054     0.003370    Cartesian    0.07
    395 y          2.537842      2.539583     0.001741    Cartesian    0.07
    395 z         12.689209     12.698571     0.009362    Cartesian    0.07
    396 x          8.882446      8.877754    -0.004692    Cartesian   -0.05
    396 y          1.268921      1.269494     0.000573    Cartesian    0.05
    396 z         11.420288     11.411202    -0.009086    Cartesian   -0.08
    397 x         -6.344605     -6.337612     0.006992    Cartesian   -0.11
    397 y          6.344605      6.336239    -0.008366    Cartesian   -0.13
    397 z          6.344605      6.336239    -0.008366    Cartesian   -0.13
    398 x         -6.344605     -6.350219    -0.005614    Cartesian    0.09
    398 y         -3.806763     -3.805209     0.001554    Cartesian   -0.04
    398 z          6.344605      6.343051    -0.001554    Cartesian   -0.02
    399 x          6.344605      6.341355    -0.003249    Cartesian   -0.05
    399 y         -3.806763     -3.804652     0.002110    Cartesian   -0.06
    399 z         11.420288     11.414060    -0.006228    Cartesian   -0.05
    400 x          6.344605      6.341714    -0.002890    Cartesian   -0.05
    400 y         11.420288     11.410440    -0.009848    Cartesian   -0.09
    400 z          6.344605      6.341372    -0.003232    Cartesian   -0.05
    401 x          7.613525      7.618472     0.004947    Cartesian    0.06
    401 y          7.613525      7.618528     0.005003    Cartesian    0.07
    401 z         10.151367     10.158878     0.007511    Cartesian    0.07
    402 x          0.000000     -0.001213    -0.001213    Cartesian *******
    402 y          2.537842      2.542085     0.004244    Cartesian    0.17
    402 z         12.689209     12.698993     0.009784    Cartesian    0.08
    403 x         -8.882446     -8.788685     0.093762    Cartesian   -1.06
    403 y          1.268921      1.268921     0.000000    Cartesian    0.00
    403 z          1.268921      1.268921     0.000000    Cartesian    0.00
    404 x         -7.613525     -7.623912    -0.010386    Cartesian    0.14
    404 y         -2.537842     -2.549194    -0.011352    Cartesian    0.45
    404 z          5.075684      5.087036     0.011352    Cartesian    0.22
--------------------------------------------------------------------------------


  Time to end of optimisation  =      120.6934 seconds


  Peak dynamic memory used =     385.55 MB 


  Timing analysis for GULP :

--------------------------------------------------------------------------------
  Task / Subroutine                                          Time (Seconds)
--------------------------------------------------------------------------------
  Calculation of reciprocal space energy and derivatives          0.0002
  Calculation of reciprocal space energy using symmetry           0.0002
  Calculation of real space energy and derivatives                0.0021
  Calculation of real space energy using symmetry                 0.0071
  Calculation for region 1 energy and derivatives (2-b)          30.5210
  Calculation for region 2a energy                               70.7198
  Calculation for region 2b energy                                0.0092
  Calculation and manipulation of Hessian matrix                 17.6696
  Calculation of matrix inversion                                 1.2961
  Symmetry generation of equivalent positions                     0.0016
--------------------------------------------------------------------------------
  Total CPU time                                                120.6935
--------------------------------------------------------------------------------


  Dump file written as ZrO2.grs


  Job Finished at 12:53.37 14th October    2020                               

