********************************************************************************
*                       GENERAL UTILITY LATTICE PROGRAM                        *
*                                 Julian Gale                                  *
*                       Curtin Institute for Computation                       *
*                    School of Molecular and Life Sciences                     *
*                    Curtin University, Western Australia                      *
********************************************************************************
* Version = 5.2.0 * Last modified =  10th September 2020                       *
********************************************************************************
* Zirconia doped with calcium                                                  *
*  optimise     - perform optimisation run                                     *
*  conp         - constant pressure calculation                                *
*  property     - calculate properties for final geometry                      *
*  defect       - perform defect calculation after bulk run                    *
*  distance     - calculate distances                                          *
*  compare      - compare initial and final structures                         *
********************************************************************************
* Zirconia doped with calcium                                                  *
********************************************************************************


  Job Started  at 12:57.29 14th October    2020                               

  Number of CPUs =     1


  Total number of configurations input =      1

********************************************************************************
*  Input for Configuration =   1 : ZrO2                                        *
********************************************************************************

  Formula = ZrO2                                                        

  Number of irreducible atoms/shells =       4


  Total number atoms/shells =       6

  Dimensionality = 3               :  Bulk   


  Symmetry :

  Crystal family                   :  Cubic       
  Crystal class  (Groth - 1921)    :  Cubic Hexakisoctahedral              

  Space group (centrosymmetric)    :  F M 3 M         

  Patterson group                  :  F m -3 m 

  Cartesian lattice vectors (Angstroms) :

        0.000000    2.535000    2.535000
        2.535000    0.000000    2.535000
        2.535000    2.535000    0.000000

  Primitive cell parameters :            Full cell parameters :

  a =   3.5850    alpha =  60.0000       a =   5.0700    alpha =  90.0000
  b =   3.5850    beta  =  60.0000       b =   5.0700    beta  =  90.0000
  c =   3.5850    gamma =  60.0000       c =   5.0700    gamma =  90.0000

  Initial volumes (Angstroms**3):

  Primitive cell =          32.580961    Full cell =         130.323843

  Temperature of configuration =   0.00     K 

  Pressure of configuration =         0.000 GPa 

  Fractional coordinates of asymmetric unit :

--------------------------------------------------------------------------------
   No.  Atomic       x           y          z         Charge      Occupancy
        Label      (Frac)      (Frac)     (Frac)        (e)         (Frac)  
--------------------------------------------------------------------------------
      1 Zr    c    0.000000    0.000000    0.000000     2.65000    1.000000    
      2 O     c    0.250000    0.250000    0.250000     0.07700    1.000000    
      3 Zr    s    0.000000    0.000000    0.000000     1.35000    1.000000    
      4 O     s    0.250000    0.250000    0.250000    -2.07700    1.000000    
--------------------------------------------------------------------------------


  Constraints : 

--------------------------------------------------------------------------------
  Constraint no.      Unconstrained     Constrained    Coefficient    Offset
                         Variable         Variable
--------------------------------------------------------------------------------
           1              Strain 1        Strain 2       1.00000      0.0000
           2              Strain 1        Strain 3       1.00000      0.0000
--------------------------------------------------------------------------------


  Distance calculation :


  Cutoff for distances  =      4.000000 Angstroms

--------------------------------------------------------------------------------
  Asymmetric unit site  Full lattice sites    No.  Distance      No.  Distance
      No.   At.No.            At.No.                (Angs)             (Angs) 
--------------------------------------------------------------------------------
       1   Zr    core        Zr    core        12    3.5850
                             Zr    shell       12    3.5850
                             O     core         8    2.1954
                             O     shell        8    2.1954
--------------------------------------------------------------------------------
       2   O     core        Zr    core         4    2.1954
                             Zr    shell        4    2.1954
                             O     core         6    2.5350       12    3.5850
                             O     shell        6    2.5350       12    3.5850
--------------------------------------------------------------------------------
       3   Zr    shell       Zr    core        12    3.5850
                             Zr    shell       12    3.5850
                             O     core         8    2.1954
                             O     shell        8    2.1954
--------------------------------------------------------------------------------
       4   O     shell       Zr    core         4    2.1954
                             Zr    shell        4    2.1954
                             O     core         6    2.5350       12    3.5850
                             O     shell        6    2.5350       12    3.5850
--------------------------------------------------------------------------------



********************************************************************************
*  General input information                                                   *
********************************************************************************

  Species output for all configurations : 

--------------------------------------------------------------------------------
  Species    Type    Atomic    Atomic    Charge       Radii (Angs)     Library
                     Number     Mass       (e)     Cova   Ionic  VDW   Symbol
--------------------------------------------------------------------------------
    Zr       Core       40      91.22   2.650000   1.560  0.000  2.330          
    Zr       Shell      40       0.00   1.350000   1.560  0.000  2.330          
    O        Core        8      16.00   0.077000   0.730  0.000  1.360          
    O        Shell       8       0.00  -2.077000   0.730  0.000  1.360          
--------------------------------------------------------------------------------


  Lattice summation method               =    Ewald          (3-D)
                                         =    Parry          (2-D)
                                         =    Saunders et al (1-D)
  Accuracy factor for lattice sums       =   12.000


  Analytic derivatives to be used

  Time limit = Infinity

  Maximum range for interatomic potentials =    100000.000000 Angstroms

  General interatomic potentials :

--------------------------------------------------------------------------------
Atom  Types   Potential      Parameter       Value         Units   Cutoffs(Ang)
  1     2                                                            Min /  Max 
--------------------------------------------------------------------------------
O    s Zr   s Buckingham    Buckingham A     985.86900    eV        0.000 12.000
                            Buckingham rho  0.37600000    Ang       
                            Buckingham C     0.0000000    eV*Ang^6  
--------------------------------------------------------------------------------
O    s O    s Buckingham    Buckingham A     22764.300    eV        0.000 12.000
                            Buckingham rho  0.14900000    Ang       
                            Buckingham C     27.890000    eV*Ang^6  
--------------------------------------------------------------------------------
Zr   c Zr   s Spring (c-s)  Spring k 2       169.61700    eV*Ang^-2 0.000  0.800
                            Spring k 4       0.0000000    eV*Ang^-4 
--------------------------------------------------------------------------------
O    c O    s Spring (c-s)  Spring k 2       27.290000    eV*Ang^-2 0.000  0.800
                            Spring k 4       0.0000000    eV*Ang^-4 
--------------------------------------------------------------------------------

********************************************************************************
*  Output for configuration   1 : ZrO2                                         *
********************************************************************************


  Components of energy : 

--------------------------------------------------------------------------------
  Interatomic potentials     =          22.43756329 eV    
  Monopole - monopole (real) =         -15.67991073 eV    
  Monopole - monopole (recip)=        -116.52038266 eV    
  Monopole - monopole (total)=        -132.20029339 eV    
--------------------------------------------------------------------------------
  Total lattice energy : 
    Primitive unit cell      =        -109.76273010 eV    
    Non-primitive unit cell  =        -439.05092039 eV    
--------------------------------------------------------------------------------
  Total lattice energy (in kJmol-1): 
    Primitive unit cell      =          -10590.4256 kJ/(mole unit cells)
    Non-primitive unit cell  =          -42361.7023 kJ/(mole unit cells)
--------------------------------------------------------------------------------


  Number of variables =        1

  Maximum number of calculations  =          1000
  Maximum Hessian update interval =            10
  Maximum step size               =   1.000000000
  Maximum parameter tolerance     =   0.000010000
  Maximum function  tolerance     =   0.000010000
  Maximum gradient  tolerance     =   0.001000000
  Maximum gradient  component     =   0.010000000

  Symmetry constrained optimisation

  Symmetry used for second derivatives

  Cell parameters to be optimised using strains

  Newton-Raphson optimiser to be used

  BFGS hessian update to be used

  Lower half triangular hessian to be used

  Start of bulk optimisation :

  Cycle:      0 Energy:      -109.762730  Gnorm:      0.588311  CPU:    0.006
  ** Hessian calculated **
  Cycle:      1 Energy:      -109.763059  Gnorm:      0.000316  CPU:    0.009


  **** Optimisation achieved ****


  Final energy =    -109.76305939 eV
  Final Gnorm  =       0.00000099

  Components of energy : 

--------------------------------------------------------------------------------
  Interatomic potentials     =          22.28919976 eV    
  Monopole - monopole (real) =         -15.66235280 eV    
  Monopole - monopole (recip)=        -116.38990634 eV    
  Monopole - monopole (total)=        -132.05225914 eV    
--------------------------------------------------------------------------------
  Total lattice energy : 
    Primitive unit cell      =        -109.76305939 eV    
    Non-primitive unit cell  =        -439.05223754 eV    
--------------------------------------------------------------------------------
  Total lattice energy (in kJmol-1): 
    Primitive unit cell      =          -10590.4573 kJ/(mole unit cells)
    Non-primitive unit cell  =          -42361.8294 kJ/(mole unit cells)
--------------------------------------------------------------------------------

  Final asymmetric unit coordinates :

--------------------------------------------------------------------------------
   No.  Atomic        x           y           z         Radius
        Label       (Frac)      (Frac)      (Frac)       (Angs) 
--------------------------------------------------------------------------------
     1  Zr    c     0.000000    0.000000    0.000000    0.000000
     2  O     c     0.250000    0.250000    0.250000    0.000000
     3  Zr    s     0.000000    0.000000    0.000000    0.000000
     4  O     s     0.250000    0.250000    0.250000    0.000000
--------------------------------------------------------------------------------

  Final Cartesian lattice vectors (Angstroms) :

        0.000000    2.537842    2.537842
        2.537842    0.000000    2.537842
        2.537842    2.537842    0.000000


  Final cell parameters and derivatives :

--------------------------------------------------------------------------------
       a            3.589050 Angstrom     dE/de1(xx)    -0.000001 eV/strain
       b            3.589050 Angstrom     dE/de2(yy)     0.000000 eV/strain
       c            3.589050 Angstrom     dE/de3(zz)     0.000000 eV/strain
       alpha       60.000000 Degrees      dE/de4(yz)     0.000000 eV/strain
       beta        60.000000 Degrees      dE/de5(xz)     0.000000 eV/strain
       gamma       60.000000 Degrees      dE/de6(xy)     0.000000 eV/strain
--------------------------------------------------------------------------------

  Primitive cell volume =            32.690656 Angs**3

  Density of cell =      6.259124 g/cm**3

  Non-primitive lattice parameters :

  a    =     5.075684  b   =     5.075684  c    =     5.075684
  alpha=    90.000000  beta=    90.000000  gamma=    90.000000

  Non-primitive cell volume =           130.762624 Angs**3


  Final internal derivatives :

--------------------------------------------------------------------------------
   No.  Atomic          a             b             c           Radius
        Label          (eV)          (eV)          (eV)        (eV/Angs)
--------------------------------------------------------------------------------
      1 Zr    c       0.000000      0.000000      0.000000      0.000000
      2 O     c       0.000000      0.000000      0.000000      0.000000
      3 Zr    s       0.000000      0.000000      0.000000      0.000000
      4 O     s       0.000000      0.000000      0.000000      0.000000
--------------------------------------------------------------------------------
  Maximum abs         0.000000      0.000000      0.000000      0.000000
--------------------------------------------------------------------------------

  Comparison of initial and final structures : 

--------------------------------------------------------------------------------
  Parameter   Initial value   Final value   Difference    Units      Percent
--------------------------------------------------------------------------------
    Volume       130.323843    130.762624     0.438781    Angs**3      0.34
    a              5.070000      5.075684     0.005684    Angstroms    0.11
    b              5.070000      5.075684     0.005684    Angstroms    0.11
    c              5.070000      5.075684     0.005684    Angstroms    0.11
    alpha         90.000000     90.000000     0.000000    Degrees      0.00
    beta          90.000000     90.000000     0.000000    Degrees      0.00
    gamma         90.000000     90.000000     0.000000    Degrees      0.00
      1 x          0.000000      0.000000     0.000000    Fractional   0.00
      1 y          0.000000      0.000000     0.000000    Fractional   0.00
      1 z          0.000000      0.000000     0.000000    Fractional   0.00
      2 x          0.250000      0.250000     0.000000    Fractional   0.00
      2 y          0.250000      0.250000     0.000000    Fractional   0.00
      2 z          0.250000      0.250000     0.000000    Fractional   0.00
      3 x          0.000000      0.000000     0.000000    Fractional   0.00
      3 y          0.000000      0.000000     0.000000    Fractional   0.00
      3 z          0.000000      0.000000     0.000000    Fractional   0.00
      4 x          0.250000      0.250000     0.000000    Fractional   0.00
      4 y          0.250000      0.250000     0.000000    Fractional   0.00
      4 z          0.250000      0.250000     0.000000    Fractional   0.00
--------------------------------------------------------------------------------


  Distance calculation :


  Cutoff for distances  =      4.000000 Angstroms

--------------------------------------------------------------------------------
  Asymmetric unit site  Full lattice sites    No.  Distance      No.  Distance
      No.   At.No.            At.No.                (Angs)             (Angs) 
--------------------------------------------------------------------------------
       1   Zr    core        Zr    core        12    3.5891
                             Zr    shell       12    3.5891
                             O     core         8    2.1978
                             O     shell        8    2.1978
--------------------------------------------------------------------------------
       2   O     core        Zr    core         4    2.1978
                             Zr    shell        4    2.1978
                             O     core         6    2.5378       12    3.5891
                             O     shell        6    2.5378       12    3.5891
--------------------------------------------------------------------------------
       3   Zr    shell       Zr    core        12    3.5891
                             Zr    shell       12    3.5891
                             O     core         8    2.1978
                             O     shell        8    2.1978
--------------------------------------------------------------------------------
       4   O     shell       Zr    core         4    2.1978
                             Zr    shell        4    2.1978
                             O     core         6    2.5378       12    3.5891
                             O     shell        6    2.5378       12    3.5891
--------------------------------------------------------------------------------



  Born effective charge tensors : 

-------------------------------------------------------------------------------
  Atom             x           y             z
-------------------------------------------------------------------------------
    1 Zr    x       3.6770      0.0000      0.0000
            y       0.0000      3.6770      0.0000
            z       0.0000      0.0000      3.6770
-------------------------------------------------------------------------------
    2 O     x      -1.8385      0.0000      0.0000
            y       0.0000     -1.8385     -0.0000
            z       0.0000     -0.0000     -1.8385
-------------------------------------------------------------------------------




  Elastic Constant Matrix: (Units=GPa)

-------------------------------------------------------------------------------
  Indices      1         2         3         4         5         6    
-------------------------------------------------------------------------------
       1    616.2933  119.6612  119.6612   -0.0000   -0.0000   -0.0000
       2    119.6612  616.2933  119.6612   -0.0000   -0.0000   -0.0000
       3    119.6612  119.6612  616.2933   -0.0000   -0.0000   -0.0000
       4     -0.0000   -0.0000   -0.0000  100.8598    0.0000   -0.0000
       5     -0.0000   -0.0000   -0.0000    0.0000  100.8598    0.0000
       6     -0.0000   -0.0000   -0.0000   -0.0000    0.0000  100.8598
-------------------------------------------------------------------------------


  Elastic Compliance Matrix: (Units=1/GPa)

-------------------------------------------------------------------------------
  Indices      1         2         3         4         5         6    
-------------------------------------------------------------------------------
       1    0.001732 -0.000282 -0.000282  0.000000  0.000000  0.000000
       2   -0.000282  0.001732 -0.000282 -0.000000  0.000000  0.000000
       3   -0.000282 -0.000282  0.001732  0.000000  0.000000  0.000000
       4    0.000000 -0.000000  0.000000  0.009915 -0.000000  0.000000
       5    0.000000  0.000000  0.000000 -0.000000  0.009915 -0.000000
       6    0.000000  0.000000  0.000000  0.000000 -0.000000  0.009915
-------------------------------------------------------------------------------

  Mechanical properties :

-------------------------------------------------------------------------------
  Convention :                    Reuss         Voigt         Hill
-------------------------------------------------------------------------------
  Bulk  Modulus (GPa)     =     285.20524     285.20524     285.20524
  Shear Modulus (GPa)     =     132.28031     159.84228     146.06129
-------------------------------------------------------------------------------
  Velocity S-wave (km/s)  =       4.59717       5.05346       4.83071
  Velocity P-wave (km/s)  =       8.58749       8.92280       8.75675
-------------------------------------------------------------------------------
  Compressibility (1/GPa) =    0.00350625
-------------------------------------------------------------------------------
  Stress axis :                     x             y             z
-------------------------------------------------------------------------------
  Youngs Moduli (GPa)     =     577.38110     577.38110     577.38110
-------------------------------------------------------------------------------
  Poissons Ratio (x)      =                     0.16259       0.16259
  Poissons Ratio (y)      =       0.16259                     0.16259
  Poissons Ratio (z)      =       0.16259       0.16259
-------------------------------------------------------------------------------


  Piezoelectric Strain Matrix: (Units=C/m**2)

-------------------------------------------------------------------------------
  Indices      1         2         3         4         5         6    
-------------------------------------------------------------------------------
       x    -0.00000   0.00000   0.00000   0.00000   0.00000   0.00000
       y    -0.00000  -0.00000  -0.00000   0.00000   0.00000   0.00000
       z    -0.00000  -0.00000  -0.00000   0.00000   0.00000   0.00000
-------------------------------------------------------------------------------


  Piezoelectric Stress Matrix: (Units=10**-11 C/N)

-------------------------------------------------------------------------------
  Indices      1         2         3         4         5         6    
-------------------------------------------------------------------------------
       x    -0.00000   0.00000   0.00000   0.00000   0.00000   0.00000
       y    -0.00000  -0.00000  -0.00000   0.00000   0.00000   0.00000
       z     0.00000   0.00000  -0.00000   0.00000   0.00000   0.00000
-------------------------------------------------------------------------------


  Static dielectric constant tensor : 

-------------------------------------------------------------------------------
              x         y         z
-------------------------------------------------------------------------------
       x    26.88485   0.00000   0.00000
       y     0.00000  26.88485   0.00000
       z     0.00000   0.00000  26.88485
--------------------------------------------------------------------------------

  High frequency dielectric constant tensor : 

-------------------------------------------------------------------------------
              x         y         z
-------------------------------------------------------------------------------
       x     2.63099   0.00000   0.00000
       y     0.00000   2.63099   0.00000
       z     0.00000   0.00000   2.63099
-------------------------------------------------------------------------------

  Static refractive indices : 

-------------------------------------------------------------------------------
    1 =    5.18506      2 =    5.18506      3 =    5.18506
-------------------------------------------------------------------------------

  High frequency refractive indices : 

-------------------------------------------------------------------------------
    1 =    1.62203      2 =    1.62203      3 =    1.62203
-------------------------------------------------------------------------------


  Time to end of optimisation =       0.0145 seconds

********************************************************************************
*  Defect calculation for configuration   1 :                                  *
********************************************************************************

  Total number of defects =      3

  Total charge on defect  =   2.00

  Defect centre is at   0.6200   0.2500   0.2500  Frac

  Region 1 radius =  12.0000      Number of ions =   1324

  Number of symmetry inequivalent region 1 ions  =    408

  Region 2 radius =  24.0000      Number of ions =   9288

  Number of symmetry inequivalent region 2a ions =   2552

  Region 2a mode = 4 : screened electrostatics due to region 1 
                       neglect correction to region 1 forces from 2a
                       region 2a displacements based on defects only

  Region 2a ions will only interact with defects in region 1

  Vacancies:

--------------------------------------------------------------------------------
    Specification type     Symbol/Number         x          y          z
--------------------------------------------------------------------------------
    Fractional                               0.250000   0.250000   0.250000
    Fractional                               0.750000   0.250000   0.250000
--------------------------------------------------------------------------------

  Interstitials:

--------------------------------------------------------------------------------
    Specification type     Symbol/Number         x          y          z
--------------------------------------------------------------------------------
    Atom/Fractional         O                0.620000   0.250000   0.250000
--------------------------------------------------------------------------------


  Symmetry reduced region 1 (Relative to defect centre) :

--------------------------------------------------------------------------------
   No.   Atomic       x            y             z       Radius  Multiplicity   
         Label      (Angs)       (Angs)        (Angs)    (Angs)     
--------------------------------------------------------------------------------
     1  O     c      0.0000       0.0000       0.0000    0.0000     1    Defect
     2  Zr    c     -0.6091 *    -1.2689 *     1.2689    0.0000     2          
     3  O     c      0.6598 *     2.5378 *     0.0000 *  0.0000     4          
     4  Zr    c      1.9288 *    -1.2689 *    -1.2689    0.0000     2          
     5  O     c     -1.8780 *    -0.0000 *     2.5378 *  0.0000     4          
     6  O     c      3.1977 *     0.0000       0.0000    0.0000     1          
     7  Zr    c     -3.1469 *    -1.2689 *    -1.2689    0.0000     2          
     8  O     c      0.6598 *     2.5378 *     2.5378    0.0000     2          
     9  O     c      0.6598 *    -2.5378 *     2.5378    0.0000     2          
    10  O     c     -1.8780 *     2.5378 *    -2.5378    0.0000     2          
    11  O     c     -1.8780 *     2.5378 *     2.5378    0.0000     2          
    12  Zr    c     -0.6091 *    -3.8068 *    -1.2689 *  0.0000     4          
    13  O     c      3.1977 *     2.5378 *    -0.0000 *  0.0000     4          
    14  O     c     -4.4158 *    -0.0000      -0.0000    0.0000     1          
    15  Zr    c      1.9288 *     1.2689 *    -3.8068 *  0.0000     4          
    16  O     c      3.1977 *     2.5378 *    -2.5378    0.0000     2          
    17  O     c      3.1977 *     2.5378 *     2.5378    0.0000     2          
    18  Zr    c      4.4666 *     1.2689 *    -1.2689    0.0000     2          
    19  O     c     -4.4158 *    -2.5378 *     0.0000 *  0.0000     4          
    20  Zr    c     -3.1469 *     1.2689 *    -3.8068 *  0.0000     4          
    21  O     c      0.6598 *    -0.0000 *     5.0757 *  0.0000     4          
    22  O     c     -1.8780 *    -5.0757 *     0.0000 *  0.0000     4          
    23  Zr    c     -0.6091 *    -3.8068 *     3.8068    0.0000     2          
    24  O     c     -4.4158 *     2.5378 *     2.5378    0.0000     2          
    25  O     c     -4.4158 *    -2.5378 *     2.5378    0.0000     2          
    26  O     c      0.6598 *    -5.0757 *     2.5378 *  0.0000     4          
    27  O     c      0.6598 *     5.0757 *     2.5378 *  0.0000     4          
    28  Zr    c      1.9288 *     3.8068 *     3.8068    0.0000     2          
    29  O     c      5.7355 *    -0.0000      -0.0000    0.0000     1          
    30  Zr    c     -5.6848 *    -1.2689 *     1.2689    0.0000     2          
    31  O     c     -1.8780 *     2.5378 *     5.0757 *  0.0000     4          
    32  O     c     -1.8780 *    -2.5378 *     5.0757 *  0.0000     4          
    33  O     c      3.1977 *     5.0757 *     0.0000 *  0.0000     4          
    34  Zr    c      4.4666 *     1.2689 *     3.8068 *  0.0000     4          
    35  Zr    c     -3.1469 *     3.8068 *     3.8068    0.0000     2          
    36  O     c      5.7355 *     2.5378 *     0.0000 *  0.0000     4          
    37  Zr    c     -0.6091 *    -6.3446 *     1.2689 *  0.0000     4          
    38  O     c      3.1977 *     5.0757 *     2.5378 *  0.0000     4          
    39  O     c      3.1977 *    -2.5378 *     5.0757 *  0.0000     4          
    40  O     c     -4.4158 *    -0.0000 *     5.0757 *  0.0000     4          
    41  Zr    c      1.9288 *     1.2689 *     6.3446 *  0.0000     4          
    42  O     c      5.7355 *     2.5378 *     2.5378    0.0000     2          
    43  O     c      5.7355 *     2.5378 *    -2.5378    0.0000     2          
    44  O     c     -6.9537 *     0.0000       0.0000    0.0000     1          
    45  Zr    c     -5.6848 *     1.2689 *     3.8068 *  0.0000     4          
    46  Zr    c      4.4666 *    -3.8068 *     3.8068    0.0000     2          
    47  O     c     -4.4158 *     5.0757 *     2.5378 *  0.0000     4          
    48  O     c     -4.4158 *     2.5378 *    -5.0757 *  0.0000     4          
    49  Zr    c     -3.1469 *     6.3446 *     1.2689 *  0.0000     4          
    50  O     c      0.6598 *     5.0757 *     5.0757    0.0000     2          
    51  O     c      0.6598 *    -5.0757 *     5.0757    0.0000     2          
    52  Zr    c      7.0044 *    -1.2689 *    -1.2689    0.0000     2          
    53  O     c     -6.9537 *    -0.0000 *     2.5378 *  0.0000     4          
    54  O     c     -1.8780 *     5.0757 *     5.0757    0.0000     2          
    55  O     c     -1.8780 *    -5.0757 *     5.0757    0.0000     2          
    56  Zr    c     -0.6091 *     3.8068 *     6.3446 *  0.0000     4          
    57  O     c      0.6598 *     0.0000 *     7.6135 *  0.0000     4          
    58  Zr    c      1.9288 *    -3.8068 *     6.3446 *  0.0000     4          
    59  O     c      5.7355 *     5.0757 *    -0.0000 *  0.0000     4          
    60  O     c     -6.9537 *     2.5378 *     2.5378    0.0000     2          
    61  O     c     -6.9537 *    -2.5378 *     2.5378    0.0000     2          
    62  Zr    c     -5.6848 *    -3.8068 *     3.8068    0.0000     2          
    63  O     c     -1.8780 *    -0.0000 *     7.6135 *  0.0000     4          
    64  O     c      3.1977 *    -5.0757 *    -5.0757    0.0000     2          
    65  O     c      3.1977 *    -5.0757 *     5.0757    0.0000     2          
    66  Zr    c      4.4666 *    -1.2689 *     6.3446 *  0.0000     4          
    67  Zr    c     -3.1469 *    -6.3446 *     3.8068 *  0.0000     4          
    68  O     c      0.6598 *     7.6135 *    -2.5378 *  0.0000     4          
    69  O     c      0.6598 *     2.5378 *     7.6135 *  0.0000     4          
    70  O     c      5.7355 *    -2.5378 *    -5.0757 *  0.0000     4          
    71  O     c      5.7355 *     5.0757 *    -2.5378 *  0.0000     4          
    72  Zr    c      7.0044 *     3.8068 *    -1.2689 *  0.0000     4          
    73  O     c     -1.8780 *    -7.6135 *     2.5378 *  0.0000     4          
    74  O     c     -1.8780 *     2.5378 *     7.6135 *  0.0000     4          
    75  O     c      3.1977 *    -0.0000 *     7.6135 *  0.0000     4          
    76  O     c      8.2734 *     0.0000       0.0000    0.0000     1          
    77  Zr    c     -8.2226 *    -1.2689 *    -1.2689    0.0000     2          
    78  O     c     -4.4158 *     5.0757 *     5.0757    0.0000     2          
    79  O     c     -4.4158 *    -5.0757 *     5.0757    0.0000     2          
    80  O     c     -6.9537 *     5.0757 *     0.0000 *  0.0000     4          
    81  Zr    c     -5.6848 *    -6.3446 *     1.2689 *  0.0000     4          
    82  O     c      3.1977 *    -2.5378 *     7.6135 *  0.0000     4          
    83  O     c      3.1977 *     7.6135 *     2.5378 *  0.0000     4          
    84  Zr    c      4.4666 *     6.3446 *     3.8068 *  0.0000     4          
    85  O     c      8.2734 *     2.5378 *    -0.0000 *  0.0000     4          
    86  O     c     -4.4158 *    -7.6135 *     0.0000 *  0.0000     4          
    87  Zr    c      7.0044 *     3.8068 *     3.8068    0.0000     2          
    88  O     c     -6.9537 *     5.0757 *    -2.5378 *  0.0000     4          
    89  O     c     -6.9537 *     2.5378 *     5.0757 *  0.0000     4          
    90  Zr    c     -0.6091 *    -6.3446 *     6.3446    0.0000     2          
    91  Zr    c     -0.6091 *     1.2689 *     8.8824 *  0.0000     4          
    92  O     c      8.2734 *     2.5378 *     2.5378    0.0000     2          
    93  O     c      8.2734 *     2.5378 *    -2.5378    0.0000     2          
    94  Zr    c     -8.2226 *    -1.2689 *     3.8068 *  0.0000     4          
    95  O     c     -4.4158 *     7.6135 *    -2.5378 *  0.0000     4          
    96  O     c     -4.4158 *     2.5378 *     7.6135 *  0.0000     4          
    97  O     c      0.6598 *     5.0757 *     7.6135 *  0.0000     4          
    98  O     c      0.6598 *    -7.6135 *     5.0757 *  0.0000     4          
    99  Zr    c      1.9288 *     6.3446 *     6.3446    0.0000     2          
   100  Zr    c      1.9288 *     8.8824 *    -1.2689 *  0.0000     4          
   101  O     c      5.7355 *     5.0757 *     5.0757    0.0000     2          
   102  O     c      5.7355 *    -5.0757 *     5.0757    0.0000     2          
   103  Zr    c     -5.6848 *    -6.3446 *    -3.8068 *  0.0000     4          
   104  O     c     -1.8780 *     5.0757 *     7.6135 *  0.0000     4          
   105  O     c     -1.8780 *    -5.0757 *     7.6135 *  0.0000     4          
   106  O     c     -9.4915 *    -0.0000      -0.0000    0.0000     1          
   107  Zr    c     -3.1469 *     6.3446 *     6.3446    0.0000     2          
   108  Zr    c     -3.1469 *    -8.8824 *     1.2689 *  0.0000     4          
   109  O     c      5.7355 *     7.6135 *     0.0000 *  0.0000     4          
   110  Zr    c      7.0044 *     6.3446 *     1.2689 *  0.0000     4          
   111  Zr    c     -0.6091 *    -8.8824 *     3.8068 *  0.0000     4          
   112  O     c      3.1977 *     7.6135 *     5.0757 *  0.0000     4          
   113  O     c      3.1977 *    -5.0757 *     7.6135 *  0.0000     4          
   114  O     c      8.2734 *     5.0757 *     0.0000 *  0.0000     4          
   115  Zr    c      9.5423 *     1.2689 *    -1.2689    0.0000     2          
   116  O     c     -9.4915 *    -2.5378 *     0.0000 *  0.0000     4          
   117  Zr    c     -8.2226 *    -3.8068 *    -3.8068    0.0000     2          
   118  Zr    c      1.9288 *     8.8824 *     3.8068 *  0.0000     4          
   119  O     c      5.7355 *    -2.5378 *     7.6135 *  0.0000     4          
   120  O     c      5.7355 *     7.6135 *     2.5378 *  0.0000     4          
   121  O     c     -6.9537 *     5.0757 *     5.0757    0.0000     2          
   122  O     c     -6.9537 *     5.0757 *    -5.0757    0.0000     2          
   123  Zr    c      4.4666 *    -6.3446 *     6.3446    0.0000     2          
   124  Zr    c      4.4666 *     1.2689 *     8.8824 *  0.0000     4          
   125  O     c      8.2734 *     5.0757 *     2.5378 *  0.0000     4          
   126  O     c      8.2734 *     5.0757 *    -2.5378 *  0.0000     4          
   127  O     c     -9.4915 *    -2.5378 *    -2.5378    0.0000     2          
   128  O     c     -9.4915 *    -2.5378 *     2.5378    0.0000     2          
   129  O     c     -4.4158 *    -7.6135 *     5.0757 *  0.0000     4          
   130  O     c     -4.4158 *     5.0757 *     7.6135 *  0.0000     4          
   131  Zr    c     -3.1469 *     3.8068 *     8.8824 *  0.0000     4          
   132  O     c      0.6598 *    -0.0000 *    10.1514 *  0.0000     4          
   133  Zr    c      7.0044 *    -3.8068 *     6.3446 *  0.0000     4          
   134  O     c     -6.9537 *    -0.0000 *     7.6135 *  0.0000     4          
   135  O     c     -1.8780 *    -0.0000 *    10.1514 *  0.0000     4          
   136  Zr    c      9.5423 *     3.8068 *     1.2689 *  0.0000     4          
   137  Zr    c     -8.2226 *    -6.3446 *    -1.2689 *  0.0000     4          
   138  O     c      0.6598 *     2.5378 *    10.1514 *  0.0000     4          
   139  O     c      0.6598 *    -2.5378 *    10.1514 *  0.0000     4          
   140  O     c     -6.9537 *     2.5378 *     7.6135 *  0.0000     4          
   141  O     c     -6.9537 *     2.5378 *    -7.6135 *  0.0000     4          
   142  Zr    c     -5.6848 *     6.3446 *    -6.3446    0.0000     2          
   143  Zr    c     -5.6848 *    -8.8824 *    -1.2689 *  0.0000     4          
   144  O     c     -1.8780 *    -2.5378 *    10.1514 *  0.0000     4          
   145  O     c     -1.8780 *     2.5378 *    10.1514 *  0.0000     4          
   146  O     c      3.1977 *     0.0000 *    10.1514 *  0.0000     4          
   147  Zr    c      4.4666 *    -3.8068 *     8.8824 *  0.0000     4          
   148  O     c     -9.4915 *    -0.0000 *     5.0757 *  0.0000     4          
   149  O     c      0.6598 *     7.6135 *     7.6135    0.0000     2          
   150  O     c      0.6598 *    -7.6135 *     7.6135    0.0000     2          
   151  O     c      5.7355 *    -5.0757 *    -7.6135 *  0.0000     4          
   152  O     c      5.7355 *    -5.0757 *     7.6135 *  0.0000     4          
   153  O     c     10.8112 *    -0.0000      -0.0000    0.0000     1          
   154  Zr    c    -10.7604 *    -1.2689 *     1.2689    0.0000     2          
   155  O     c     -1.8780 *     7.6135 *    -7.6135    0.0000     2          
   156  O     c     -1.8780 *     7.6135 *     7.6135    0.0000     2          
   157  Zr    c     -0.6091 *     6.3446 *     8.8824 *  0.0000     4          
   158  O     c      3.1977 *     2.5378 *    10.1514 *  0.0000     4          
   159  O     c      3.1977 *    -2.5378 *    10.1514 *  0.0000     4          
   160  O     c      8.2734 *     5.0757 *     5.0757    0.0000     2          
   161  O     c      8.2734 *     5.0757 *    -5.0757    0.0000     2          
   162  Zr    c      9.5423 *     3.8068 *    -3.8068    0.0000     2          
   163  O     c     -9.4915 *    -5.0757 *    -2.5378 *  0.0000     4          
   164  O     c     -9.4915 *    -5.0757 *     2.5378 *  0.0000     4          
   165  Zr    c     -8.2226 *     3.8068 *    -6.3446 *  0.0000     4          
   166  O     c     -4.4158 *    -0.0000 *    10.1514 *  0.0000     4          
   167  Zr    c      1.9288 *    -8.8824 *     6.3446 *  0.0000     4          
   168  O     c     10.8112 *     2.5378 *     0.0000 *  0.0000     4          
   169  Zr    c     -5.6848 *    -8.8824 *     3.8068 *  0.0000     4          
   170  O     c      3.1977 *    -7.6135 *     7.6135    0.0000     2          
   171  O     c      3.1977 *     7.6135 *     7.6135    0.0000     2          
   172  O     c      8.2734 *     7.6135 *    -0.0000 *  0.0000     4          
   173  O     c     -4.4158 *     2.5378 *   -10.1514 *  0.0000     4          
   174  O     c     -4.4158 *    10.1514 *     2.5378 *  0.0000     4          
   175  Zr    c     -3.1469 *    -8.8824 *     6.3446 *  0.0000     4          
   176  O     c      0.6598 *     5.0757 *    10.1514 *  0.0000     4          
   177  O     c      0.6598 *    -5.0757 *    10.1514 *  0.0000     4          
   178  Zr    c      7.0044 *     6.3446 *     6.3446    0.0000     2          
   179  Zr    c      7.0044 *    -1.2689 *     8.8824 *  0.0000     4          
   180  O     c     10.8112 *     2.5378 *     2.5378    0.0000     2          
   181  O     c     10.8112 *     2.5378 *    -2.5378    0.0000     2          
   182  Zr    c    -10.7604 *    -1.2689 *    -3.8068 *  0.0000     4          
   183  O     c     -6.9537 *     5.0757 *     7.6135 *  0.0000     4          
   184  O     c     -6.9537 *    -7.6135 *     5.0757 *  0.0000     4          
   185  O     c     -1.8780 *   -10.1514 *     5.0757 *  0.0000     4          
   186  O     c     -1.8780 *     5.0757 *    10.1514 *  0.0000     4          
   187  Zr    c     -0.6091 *    -1.2689 *    11.4203 *  0.0000     4          
   188  O     c      8.2734 *    -2.5378 *     7.6135 *  0.0000     4          
   189  O     c      8.2734 *     2.5378 *     7.6135 *  0.0000     4          
   190  Zr    c      9.5423 *    -1.2689 *     6.3446 *  0.0000     4          
   191  O     c     -4.4158 *     7.6135 *     7.6135    0.0000     2          
   192  O     c     -4.4158 *    -7.6135 *     7.6135    0.0000     2          
   193  Zr    c      1.9288 *     1.2689 *    11.4203 *  0.0000     4          
   194  O     c      5.7355 *    -0.0000 *    10.1514 *  0.0000     4          
   195  O     c      3.1977 *    -5.0757 *    10.1514 *  0.0000     4          
   196  O     c      3.1977 *    10.1514 *     5.0757 *  0.0000     4          
   197  Zr    c      4.4666 *     8.8824 *     6.3446 *  0.0000     4          
   198  O     c     -9.4915 *    -5.0757 *     5.0757    0.0000     2          
   199  O     c     -9.4915 *     5.0757 *     5.0757    0.0000     2          
   200  Zr    c     -3.1469 *     1.2689 *    11.4203 *  0.0000     4          
   201  O     c      5.7355 *    -2.5378 *    10.1514 *  0.0000     4          
   202  O     c      5.7355 *    10.1514 *     2.5378 *  0.0000     4          
   203  Zr    c      7.0044 *     8.8824 *     3.8068 *  0.0000     4          
   204  O     c     10.8112 *     5.0757 *    -0.0000 *  0.0000     4          
   205  O     s      0.0000       0.0000       0.0000    0.0000     1    Defect
   206  Zr    s     -0.6091 *    -1.2689 *     1.2689    0.0000     2          
   207  O     s      0.6598 *     2.5378 *     0.0000 *  0.0000     4          
   208  Zr    s      1.9288 *    -1.2689 *    -1.2689    0.0000     2          
   209  O     s     -1.8780 *    -0.0000 *     2.5378 *  0.0000     4          
   210  O     s      3.1977 *     0.0000       0.0000    0.0000     1          
   211  Zr    s     -3.1469 *    -1.2689 *    -1.2689    0.0000     2          
   212  O     s      0.6598 *     2.5378 *     2.5378    0.0000     2          
   213  O     s      0.6598 *    -2.5378 *     2.5378    0.0000     2          
   214  O     s     -1.8780 *     2.5378 *    -2.5378    0.0000     2          
   215  O     s     -1.8780 *     2.5378 *     2.5378    0.0000     2          
   216  Zr    s     -0.6091 *    -3.8068 *    -1.2689 *  0.0000     4          
   217  O     s      3.1977 *     2.5378 *    -0.0000 *  0.0000     4          
   218  O     s     -4.4158 *    -0.0000      -0.0000    0.0000     1          
   219  Zr    s      1.9288 *     1.2689 *    -3.8068 *  0.0000     4          
   220  O     s      3.1977 *     2.5378 *    -2.5378    0.0000     2          
   221  O     s      3.1977 *     2.5378 *     2.5378    0.0000     2          
   222  Zr    s      4.4666 *     1.2689 *    -1.2689    0.0000     2          
   223  O     s     -4.4158 *    -2.5378 *     0.0000 *  0.0000     4          
   224  Zr    s     -3.1469 *     1.2689 *    -3.8068 *  0.0000     4          
   225  O     s      0.6598 *    -0.0000 *     5.0757 *  0.0000     4          
   226  O     s     -1.8780 *    -5.0757 *     0.0000 *  0.0000     4          
   227  Zr    s     -0.6091 *    -3.8068 *     3.8068    0.0000     2          
   228  O     s     -4.4158 *     2.5378 *     2.5378    0.0000     2          
   229  O     s     -4.4158 *    -2.5378 *     2.5378    0.0000     2          
   230  O     s      0.6598 *    -5.0757 *     2.5378 *  0.0000     4          
   231  O     s      0.6598 *     5.0757 *     2.5378 *  0.0000     4          
   232  Zr    s      1.9288 *     3.8068 *     3.8068    0.0000     2          
   233  O     s      5.7355 *    -0.0000      -0.0000    0.0000     1          
   234  Zr    s     -5.6848 *    -1.2689 *     1.2689    0.0000     2          
   235  O     s     -1.8780 *     2.5378 *     5.0757 *  0.0000     4          
   236  O     s     -1.8780 *    -2.5378 *     5.0757 *  0.0000     4          
   237  O     s      3.1977 *     5.0757 *     0.0000 *  0.0000     4          
   238  Zr    s      4.4666 *     1.2689 *     3.8068 *  0.0000     4          
   239  Zr    s     -3.1469 *     3.8068 *     3.8068    0.0000     2          
   240  O     s      5.7355 *     2.5378 *     0.0000 *  0.0000     4          
   241  Zr    s     -0.6091 *    -6.3446 *     1.2689 *  0.0000     4          
   242  O     s      3.1977 *     5.0757 *     2.5378 *  0.0000     4          
   243  O     s      3.1977 *    -2.5378 *     5.0757 *  0.0000     4          
   244  O     s     -4.4158 *    -0.0000 *     5.0757 *  0.0000     4          
   245  Zr    s      1.9288 *     1.2689 *     6.3446 *  0.0000     4          
   246  O     s      5.7355 *     2.5378 *     2.5378    0.0000     2          
   247  O     s      5.7355 *     2.5378 *    -2.5378    0.0000     2          
   248  O     s     -6.9537 *     0.0000       0.0000    0.0000     1          
   249  Zr    s     -5.6848 *     1.2689 *     3.8068 *  0.0000     4          
   250  Zr    s      4.4666 *    -3.8068 *     3.8068    0.0000     2          
   251  O     s     -4.4158 *     5.0757 *     2.5378 *  0.0000     4          
   252  O     s     -4.4158 *     2.5378 *    -5.0757 *  0.0000     4          
   253  Zr    s     -3.1469 *     6.3446 *     1.2689 *  0.0000     4          
   254  O     s      0.6598 *     5.0757 *     5.0757    0.0000     2          
   255  O     s      0.6598 *    -5.0757 *     5.0757    0.0000     2          
   256  Zr    s      7.0044 *    -1.2689 *    -1.2689    0.0000     2          
   257  O     s     -6.9537 *    -0.0000 *     2.5378 *  0.0000     4          
   258  O     s     -1.8780 *     5.0757 *     5.0757    0.0000     2          
   259  O     s     -1.8780 *    -5.0757 *     5.0757    0.0000     2          
   260  Zr    s     -0.6091 *     3.8068 *     6.3446 *  0.0000     4          
   261  O     s      0.6598 *     0.0000 *     7.6135 *  0.0000     4          
   262  Zr    s      1.9288 *    -3.8068 *     6.3446 *  0.0000     4          
   263  O     s      5.7355 *     5.0757 *    -0.0000 *  0.0000     4          
   264  O     s     -6.9537 *     2.5378 *     2.5378    0.0000     2          
   265  O     s     -6.9537 *    -2.5378 *     2.5378    0.0000     2          
   266  Zr    s     -5.6848 *    -3.8068 *     3.8068    0.0000     2          
   267  O     s     -1.8780 *    -0.0000 *     7.6135 *  0.0000     4          
   268  O     s      3.1977 *    -5.0757 *    -5.0757    0.0000     2          
   269  O     s      3.1977 *    -5.0757 *     5.0757    0.0000     2          
   270  Zr    s      4.4666 *    -1.2689 *     6.3446 *  0.0000     4          
   271  Zr    s     -3.1469 *    -6.3446 *     3.8068 *  0.0000     4          
   272  O     s      0.6598 *     7.6135 *    -2.5378 *  0.0000     4          
   273  O     s      0.6598 *     2.5378 *     7.6135 *  0.0000     4          
   274  O     s      5.7355 *    -2.5378 *    -5.0757 *  0.0000     4          
   275  O     s      5.7355 *     5.0757 *    -2.5378 *  0.0000     4          
   276  Zr    s      7.0044 *     3.8068 *    -1.2689 *  0.0000     4          
   277  O     s     -1.8780 *    -7.6135 *     2.5378 *  0.0000     4          
   278  O     s     -1.8780 *     2.5378 *     7.6135 *  0.0000     4          
   279  O     s      3.1977 *    -0.0000 *     7.6135 *  0.0000     4          
   280  O     s      8.2734 *     0.0000       0.0000    0.0000     1          
   281  Zr    s     -8.2226 *    -1.2689 *    -1.2689    0.0000     2          
   282  O     s     -4.4158 *     5.0757 *     5.0757    0.0000     2          
   283  O     s     -4.4158 *    -5.0757 *     5.0757    0.0000     2          
   284  O     s     -6.9537 *     5.0757 *     0.0000 *  0.0000     4          
   285  Zr    s     -5.6848 *    -6.3446 *     1.2689 *  0.0000     4          
   286  O     s      3.1977 *    -2.5378 *     7.6135 *  0.0000     4          
   287  O     s      3.1977 *     7.6135 *     2.5378 *  0.0000     4          
   288  Zr    s      4.4666 *     6.3446 *     3.8068 *  0.0000     4          
   289  O     s      8.2734 *     2.5378 *    -0.0000 *  0.0000     4          
   290  O     s     -4.4158 *    -7.6135 *     0.0000 *  0.0000     4          
   291  Zr    s      7.0044 *     3.8068 *     3.8068    0.0000     2          
   292  O     s     -6.9537 *     5.0757 *    -2.5378 *  0.0000     4          
   293  O     s     -6.9537 *     2.5378 *     5.0757 *  0.0000     4          
   294  Zr    s     -0.6091 *    -6.3446 *     6.3446    0.0000     2          
   295  Zr    s     -0.6091 *     1.2689 *     8.8824 *  0.0000     4          
   296  O     s      8.2734 *     2.5378 *     2.5378    0.0000     2          
   297  O     s      8.2734 *     2.5378 *    -2.5378    0.0000     2          
   298  Zr    s     -8.2226 *    -1.2689 *     3.8068 *  0.0000     4          
   299  O     s     -4.4158 *     7.6135 *    -2.5378 *  0.0000     4          
   300  O     s     -4.4158 *     2.5378 *     7.6135 *  0.0000     4          
   301  O     s      0.6598 *     5.0757 *     7.6135 *  0.0000     4          
   302  O     s      0.6598 *    -7.6135 *     5.0757 *  0.0000     4          
   303  Zr    s      1.9288 *     6.3446 *     6.3446    0.0000     2          
   304  Zr    s      1.9288 *     8.8824 *    -1.2689 *  0.0000     4          
   305  O     s      5.7355 *     5.0757 *     5.0757    0.0000     2          
   306  O     s      5.7355 *    -5.0757 *     5.0757    0.0000     2          
   307  Zr    s     -5.6848 *    -6.3446 *    -3.8068 *  0.0000     4          
   308  O     s     -1.8780 *     5.0757 *     7.6135 *  0.0000     4          
   309  O     s     -1.8780 *    -5.0757 *     7.6135 *  0.0000     4          
   310  O     s     -9.4915 *    -0.0000      -0.0000    0.0000     1          
   311  Zr    s     -3.1469 *     6.3446 *     6.3446    0.0000     2          
   312  Zr    s     -3.1469 *    -8.8824 *     1.2689 *  0.0000     4          
   313  O     s      5.7355 *     7.6135 *     0.0000 *  0.0000     4          
   314  Zr    s      7.0044 *     6.3446 *     1.2689 *  0.0000     4          
   315  Zr    s     -0.6091 *    -8.8824 *     3.8068 *  0.0000     4          
   316  O     s      3.1977 *     7.6135 *     5.0757 *  0.0000     4          
   317  O     s      3.1977 *    -5.0757 *     7.6135 *  0.0000     4          
   318  O     s      8.2734 *     5.0757 *     0.0000 *  0.0000     4          
   319  Zr    s      9.5423 *     1.2689 *    -1.2689    0.0000     2          
   320  O     s     -9.4915 *    -2.5378 *     0.0000 *  0.0000     4          
   321  Zr    s     -8.2226 *    -3.8068 *    -3.8068    0.0000     2          
   322  Zr    s      1.9288 *     8.8824 *     3.8068 *  0.0000     4          
   323  O     s      5.7355 *    -2.5378 *     7.6135 *  0.0000     4          
   324  O     s      5.7355 *     7.6135 *     2.5378 *  0.0000     4          
   325  O     s     -6.9537 *     5.0757 *     5.0757    0.0000     2          
   326  O     s     -6.9537 *     5.0757 *    -5.0757    0.0000     2          
   327  Zr    s      4.4666 *    -6.3446 *     6.3446    0.0000     2          
   328  Zr    s      4.4666 *     1.2689 *     8.8824 *  0.0000     4          
   329  O     s      8.2734 *     5.0757 *     2.5378 *  0.0000     4          
   330  O     s      8.2734 *     5.0757 *    -2.5378 *  0.0000     4          
   331  O     s     -9.4915 *    -2.5378 *    -2.5378    0.0000     2          
   332  O     s     -9.4915 *    -2.5378 *     2.5378    0.0000     2          
   333  O     s     -4.4158 *    -7.6135 *     5.0757 *  0.0000     4          
   334  O     s     -4.4158 *     5.0757 *     7.6135 *  0.0000     4          
   335  Zr    s     -3.1469 *     3.8068 *     8.8824 *  0.0000     4          
   336  O     s      0.6598 *    -0.0000 *    10.1514 *  0.0000     4          
   337  Zr    s      7.0044 *    -3.8068 *     6.3446 *  0.0000     4          
   338  O     s     -6.9537 *    -0.0000 *     7.6135 *  0.0000     4          
   339  O     s     -1.8780 *    -0.0000 *    10.1514 *  0.0000     4          
   340  Zr    s      9.5423 *     3.8068 *     1.2689 *  0.0000     4          
   341  Zr    s     -8.2226 *    -6.3446 *    -1.2689 *  0.0000     4          
   342  O     s      0.6598 *     2.5378 *    10.1514 *  0.0000     4          
   343  O     s      0.6598 *    -2.5378 *    10.1514 *  0.0000     4          
   344  O     s     -6.9537 *     2.5378 *     7.6135 *  0.0000     4          
   345  O     s     -6.9537 *     2.5378 *    -7.6135 *  0.0000     4          
   346  Zr    s     -5.6848 *     6.3446 *    -6.3446    0.0000     2          
   347  Zr    s     -5.6848 *    -8.8824 *    -1.2689 *  0.0000     4          
   348  O     s     -1.8780 *    -2.5378 *    10.1514 *  0.0000     4          
   349  O     s     -1.8780 *     2.5378 *    10.1514 *  0.0000     4          
   350  O     s      3.1977 *     0.0000 *    10.1514 *  0.0000     4          
   351  Zr    s      4.4666 *    -3.8068 *     8.8824 *  0.0000     4          
   352  O     s     -9.4915 *    -0.0000 *     5.0757 *  0.0000     4          
   353  O     s      0.6598 *     7.6135 *     7.6135    0.0000     2          
   354  O     s      0.6598 *    -7.6135 *     7.6135    0.0000     2          
   355  O     s      5.7355 *    -5.0757 *    -7.6135 *  0.0000     4          
   356  O     s      5.7355 *    -5.0757 *     7.6135 *  0.0000     4          
   357  O     s     10.8112 *    -0.0000      -0.0000    0.0000     1          
   358  Zr    s    -10.7604 *    -1.2689 *     1.2689    0.0000     2          
   359  O     s     -1.8780 *     7.6135 *    -7.6135    0.0000     2          
   360  O     s     -1.8780 *     7.6135 *     7.6135    0.0000     2          
   361  Zr    s     -0.6091 *     6.3446 *     8.8824 *  0.0000     4          
   362  O     s      3.1977 *     2.5378 *    10.1514 *  0.0000     4          
   363  O     s      3.1977 *    -2.5378 *    10.1514 *  0.0000     4          
   364  O     s      8.2734 *     5.0757 *     5.0757    0.0000     2          
   365  O     s      8.2734 *     5.0757 *    -5.0757    0.0000     2          
   366  Zr    s      9.5423 *     3.8068 *    -3.8068    0.0000     2          
   367  O     s     -9.4915 *    -5.0757 *    -2.5378 *  0.0000     4          
   368  O     s     -9.4915 *    -5.0757 *     2.5378 *  0.0000     4          
   369  Zr    s     -8.2226 *     3.8068 *    -6.3446 *  0.0000     4          
   370  O     s     -4.4158 *    -0.0000 *    10.1514 *  0.0000     4          
   371  Zr    s      1.9288 *    -8.8824 *     6.3446 *  0.0000     4          
   372  O     s     10.8112 *     2.5378 *     0.0000 *  0.0000     4          
   373  Zr    s     -5.6848 *    -8.8824 *     3.8068 *  0.0000     4          
   374  O     s      3.1977 *    -7.6135 *     7.6135    0.0000     2          
   375  O     s      3.1977 *     7.6135 *     7.6135    0.0000     2          
   376  O     s      8.2734 *     7.6135 *    -0.0000 *  0.0000     4          
   377  O     s     -4.4158 *     2.5378 *   -10.1514 *  0.0000     4          
   378  O     s     -4.4158 *    10.1514 *     2.5378 *  0.0000     4          
   379  Zr    s     -3.1469 *    -8.8824 *     6.3446 *  0.0000     4          
   380  O     s      0.6598 *     5.0757 *    10.1514 *  0.0000     4          
   381  O     s      0.6598 *    -5.0757 *    10.1514 *  0.0000     4          
   382  Zr    s      7.0044 *     6.3446 *     6.3446    0.0000     2          
   383  Zr    s      7.0044 *    -1.2689 *     8.8824 *  0.0000     4          
   384  O     s     10.8112 *     2.5378 *     2.5378    0.0000     2          
   385  O     s     10.8112 *     2.5378 *    -2.5378    0.0000     2          
   386  Zr    s    -10.7604 *    -1.2689 *    -3.8068 *  0.0000     4          
   387  O     s     -6.9537 *     5.0757 *     7.6135 *  0.0000     4          
   388  O     s     -6.9537 *    -7.6135 *     5.0757 *  0.0000     4          
   389  O     s     -1.8780 *   -10.1514 *     5.0757 *  0.0000     4          
   390  O     s     -1.8780 *     5.0757 *    10.1514 *  0.0000     4          
   391  Zr    s     -0.6091 *    -1.2689 *    11.4203 *  0.0000     4          
   392  O     s      8.2734 *    -2.5378 *     7.6135 *  0.0000     4          
   393  O     s      8.2734 *     2.5378 *     7.6135 *  0.0000     4          
   394  Zr    s      9.5423 *    -1.2689 *     6.3446 *  0.0000     4          
   395  O     s     -4.4158 *     7.6135 *     7.6135    0.0000     2          
   396  O     s     -4.4158 *    -7.6135 *     7.6135    0.0000     2          
   397  Zr    s      1.9288 *     1.2689 *    11.4203 *  0.0000     4          
   398  O     s      5.7355 *    -0.0000 *    10.1514 *  0.0000     4          
   399  O     s      3.1977 *    -5.0757 *    10.1514 *  0.0000     4          
   400  O     s      3.1977 *    10.1514 *     5.0757 *  0.0000     4          
   401  Zr    s      4.4666 *     8.8824 *     6.3446 *  0.0000     4          
   402  O     s     -9.4915 *    -5.0757 *     5.0757    0.0000     2          
   403  O     s     -9.4915 *     5.0757 *     5.0757    0.0000     2          
   404  Zr    s     -3.1469 *     1.2689 *    11.4203 *  0.0000     4          
   405  O     s      5.7355 *    -2.5378 *    10.1514 *  0.0000     4          
   406  O     s      5.7355 *    10.1514 *     2.5378 *  0.0000     4          
   407  Zr    s      7.0044 *     8.8824 *     3.8068 *  0.0000     4          
   408  O     s     10.8112 *     5.0757 *    -0.0000 *  0.0000     4          
--------------------------------------------------------------------------------


  Constraints on symmetry reduced coordinates :

--------------------------------------------------------------------------------
  Constraint no.      Unconstrained     Constrained    Coefficient    
                         Variable         Variable
--------------------------------------------------------------------------------
           1                 2 y             2 z        -1.00000
           2                 4 y             4 z         1.00000
           3                 7 y             7 z         1.00000
           4                 8 y             8 z         1.00000
           5                 9 y             9 z        -1.00000
           6                10 y            10 z        -1.00000
           7                11 y            11 z         1.00000
           8                16 y            16 z        -1.00000
           9                17 y            17 z         1.00000
          10                18 y            18 z        -1.00000
          11                23 y            23 z        -1.00000
          12                24 y            24 z         1.00000
          13                25 y            25 z        -1.00000
          14                28 y            28 z         1.00000
          15                30 y            30 z        -1.00000
          16                35 y            35 z         1.00000
          17                42 y            42 z         1.00000
          18                43 y            43 z        -1.00000
          19                46 y            46 z        -1.00000
          20                50 y            50 z         1.00000
          21                51 y            51 z        -1.00000
          22                52 y            52 z         1.00000
          23                54 y            54 z         1.00000
          24                55 y            55 z        -1.00000
          25                60 y            60 z         1.00000
          26                61 y            61 z        -1.00000
          27                62 y            62 z        -1.00000
          28                64 y            64 z         1.00000
          29                65 y            65 z        -1.00000
          30                77 y            77 z         1.00000
          31                78 y            78 z         1.00000
          32                79 y            79 z        -1.00000
          33                87 y            87 z         1.00000
          34                90 y            90 z        -1.00000
          35                92 y            92 z         1.00000
          36                93 y            93 z        -1.00000
          37                99 y            99 z         1.00000
          38               101 y           101 z         1.00000
          39               102 y           102 z        -1.00000
          40               107 y           107 z         1.00000
          41               115 y           115 z        -1.00000
          42               117 y           117 z         1.00000
          43               121 y           121 z         1.00000
          44               122 y           122 z        -1.00000
          45               123 y           123 z        -1.00000
          46               127 y           127 z         1.00000
          47               128 y           128 z        -1.00000
          48               142 y           142 z        -1.00000
          49               149 y           149 z         1.00000
          50               150 y           150 z        -1.00000
          51               154 y           154 z        -1.00000
          52               155 y           155 z        -1.00000
          53               156 y           156 z         1.00000
          54               160 y           160 z         1.00000
          55               161 y           161 z        -1.00000
          56               162 y           162 z        -1.00000
          57               170 y           170 z        -1.00000
          58               171 y           171 z         1.00000
          59               178 y           178 z         1.00000
          60               180 y           180 z         1.00000
          61               181 y           181 z        -1.00000
          62               191 y           191 z         1.00000
          63               192 y           192 z        -1.00000
          64               198 y           198 z        -1.00000
          65               199 y           199 z         1.00000
          66               206 y           206 z        -1.00000
          67               208 y           208 z         1.00000
          68               211 y           211 z         1.00000
          69               212 y           212 z         1.00000
          70               213 y           213 z        -1.00000
          71               214 y           214 z        -1.00000
          72               215 y           215 z         1.00000
          73               220 y           220 z        -1.00000
          74               221 y           221 z         1.00000
          75               222 y           222 z        -1.00000
          76               227 y           227 z        -1.00000
          77               228 y           228 z         1.00000
          78               229 y           229 z        -1.00000
          79               232 y           232 z         1.00000
          80               234 y           234 z        -1.00000
          81               239 y           239 z         1.00000
          82               246 y           246 z         1.00000
          83               247 y           247 z        -1.00000
          84               250 y           250 z        -1.00000
          85               254 y           254 z         1.00000
          86               255 y           255 z        -1.00000
          87               256 y           256 z         1.00000
          88               258 y           258 z         1.00000
          89               259 y           259 z        -1.00000
          90               264 y           264 z         1.00000
          91               265 y           265 z        -1.00000
          92               266 y           266 z        -1.00000
          93               268 y           268 z         1.00000
          94               269 y           269 z        -1.00000
          95               281 y           281 z         1.00000
          96               282 y           282 z         1.00000
          97               283 y           283 z        -1.00000
          98               291 y           291 z         1.00000
          99               294 y           294 z        -1.00000
         100               296 y           296 z         1.00000
         101               297 y           297 z        -1.00000
         102               303 y           303 z         1.00000
         103               305 y           305 z         1.00000
         104               306 y           306 z        -1.00000
         105               311 y           311 z         1.00000
         106               319 y           319 z        -1.00000
         107               321 y           321 z         1.00000
         108               325 y           325 z         1.00000
         109               326 y           326 z        -1.00000
         110               327 y           327 z        -1.00000
         111               331 y           331 z         1.00000
         112               332 y           332 z        -1.00000
         113               346 y           346 z        -1.00000
         114               353 y           353 z         1.00000
         115               354 y           354 z        -1.00000
         116               358 y           358 z        -1.00000
         117               359 y           359 z        -1.00000
         118               360 y           360 z         1.00000
         119               364 y           364 z         1.00000
         120               365 y           365 z        -1.00000
         121               366 y           366 z        -1.00000
         122               374 y           374 z        -1.00000
         123               375 y           375 z         1.00000
         124               382 y           382 z         1.00000
         125               384 y           384 z         1.00000
         126               385 y           385 z        -1.00000
         127               395 y           395 z         1.00000
         128               396 y           396 z        -1.00000
         129               402 y           402 z        -1.00000
         130               403 y           403 z         1.00000
--------------------------------------------------------------------------------


  Components of defect energy : 

--------------------------------------------------------------------------------
  Region 1 - region 1                   =    -11.66286141 eV
  Region 1 - region 2a (unrelaxed)      =     43.44786059 eV
  Region 1 - 2a (relaxed - correction)  =     -2.35572025 eV
  Region 1 (Total)                      =     29.42927892 eV
  Region 2a                             =      1.17788472 eV
  Region 2b                             =     -1.15809311 eV
--------------------------------------------------------------------------------
  Total defect energy                   =     29.44907053 eV
--------------------------------------------------------------------------------

  Largest displacement in region 2 =   0.0060 Angstroms


  Number of variables =     1060

  Maximum number of calculations  =        1000
  Maximum Hessian update interval =          10
  Maximum step size               =   1.0000000
  Maximum parameter tolerance     =   0.0000100
  Maximum function  tolerance     =   0.0000100
  Maximum gradient  tolerance     =   0.0010000

  Symmetry adapted optimisation

  Symmetry to be used for second derivatives

  Newton-Raphson optimiser to be used

  BFGS hessian update to be used

  Lower half triangular hessian to be used

  Start of defect optimisation :

  Cycle:      0 Defect Energy:  29.449071  Gnorm:     0.084059  CPU:    4.852
  ** Hessian calculated **
  Cycle:      1 Defect Energy:  23.955446  Gnorm:     0.067073  CPU:   21.636
  Cycle:      2 Defect Energy:  21.827734  Gnorm:     0.056099  CPU:   28.790
  ** Hessian calculated **
  Cycle:      3 Defect Energy:  15.432921  Gnorm:     0.018934  CPU:   43.021
  Cycle:      4 Defect Energy:  14.830566  Gnorm:     0.003665  CPU:   48.782
  Cycle:      5 Defect Energy:  14.785191  Gnorm:     0.002439  CPU:   50.331
  Cycle:      6 Defect Energy:  14.755009  Gnorm:     0.001761  CPU:   51.880
  Cycle:      7 Defect Energy:  14.731733  Gnorm:     0.001474  CPU:   53.439
  Cycle:      8 Defect Energy:  14.715868  Gnorm:     0.001195  CPU:   54.995
  Cycle:      9 Defect Energy:  14.705270  Gnorm:     0.001055  CPU:   56.545
  Cycle:     10 Defect Energy:  14.698535  Gnorm:     0.000854  CPU:   58.093
  Cycle:     11 Defect Energy:  14.694101  Gnorm:     0.000693  CPU:   59.644
  Cycle:     12 Defect Energy:  14.691148  Gnorm:     0.000546  CPU:   61.193
  ** Hessian calculated **
  Cycle:     13 Defect Energy:  14.689113  Gnorm:     0.000391  CPU:   68.397
  Cycle:     14 Defect Energy:  14.687945  Gnorm:     0.000285  CPU:   69.949
  Cycle:     15 Defect Energy:  14.687237  Gnorm:     0.000207  CPU:   71.501
  Cycle:     16 Defect Energy:  14.686817  Gnorm:     0.000149  CPU:   73.065
  Cycle:     17 Defect Energy:  14.686571  Gnorm:     0.000107  CPU:   74.620
  Cycle:     18 Defect Energy:  14.686428  Gnorm:     0.000076  CPU:   76.173
  Cycle:     19 Defect Energy:  14.686345  Gnorm:     0.000054  CPU:   77.727
  Cycle:     20 Defect Energy:  14.686296  Gnorm:     0.000038  CPU:   79.279
  Cycle:     21 Defect Energy:  14.686267  Gnorm:     0.000027  CPU:   80.836
  Cycle:     22 Defect Energy:  14.686250  Gnorm:     0.000019  CPU:   82.397
  ** Hessian calculated **
  Cycle:     23 Defect Energy:  14.686239  Gnorm:     0.000013  CPU:   89.585


  **** Optimisation achieved ****


  Final defect energy  =       14.68623218
  Final defect Gnorm   =        0.00000944

  Components of defect energy : 

--------------------------------------------------------------------------------
  Region 1 - region 1                   =    -17.41390013 eV
  Region 1 - region 2a (unrelaxed)      =     34.29517422 eV
  Region 1 - 2a (relaxed - correction)  =     -2.07746539 eV
  Region 1 (Total)                      =     14.80380869 eV
  Region 2a                             =      1.03867827 eV
  Region 2b                             =     -1.15625478 eV
--------------------------------------------------------------------------------
  Total defect energy                   =     14.68623218 eV
--------------------------------------------------------------------------------

  Largest displacement in region 2 =   0.0060 Angstroms

  Final coordinates of region 1 :

--------------------------------------------------------------------------------
   No.  Atomic        x           y           z          Radius      Charge
        Label       (Angs)      (Angs)      (Angs)       (Angs)       (e) 
--------------------------------------------------------------------------------
     1  O     c     3.146924    1.268921    1.268921    0.000000    0.077000
     2  Zr    c     2.579290   -0.041955    2.579796    0.000000    2.650000
     3  Zr    c     2.579290    2.579796   -0.041955    0.000000    2.650000
     4  O     c     3.866828    3.815032    1.233125    0.000000    0.077000
     5  O     c     3.866828    1.233125    3.815032    0.000000    0.077000
     6  O     c     3.866828    1.304717   -1.277190    0.000000    0.077000
     7  O     c     3.866828   -1.277190    1.304717    0.000000    0.077000
     8  Zr    c     5.104563   -0.036571   -0.036571    0.000000    2.650000
     9  Zr    c     5.104563    2.574413    2.574413    0.000000    2.650000
    10  O     c     1.253891    1.261829    3.489588    0.000000    0.077000
    11  O     c     1.253891    3.489588    1.261829    0.000000    0.077000
    12  O     c     1.253891   -0.951746    1.276012    0.000000    0.077000
    13  O     c     1.253891    1.276012   -0.951746    0.000000    0.077000
    14  O     c     5.900187    1.268921    1.268921    0.000000    0.077000
    15  Zr    c    -0.060076   -0.054219   -0.054219    0.000000    2.650000
    16  Zr    c    -0.060076    2.592061    2.592061    0.000000    2.650000
    17  O     c     3.762177    3.787315    3.787315    0.000000    0.077000
    18  O     c     3.762177   -1.249473   -1.249473    0.000000    0.077000
    19  O     c     3.797242   -1.297544    3.835386    0.000000    0.077000
    20  O     c     3.797242    3.835386   -1.297544    0.000000    0.077000
    21  O     c     1.269943    3.851115   -1.313273    0.000000    0.077000
    22  O     c     1.269943   -1.313273    3.851115    0.000000    0.077000
    23  O     c     1.229676    3.842683    3.842683    0.000000    0.077000
    24  O     c     1.229676   -1.304841   -1.304841    0.000000    0.077000
    25  Zr    c     2.555683   -2.563192   -0.031106    0.000000    2.650000
    26  Zr    c     2.555683   -0.031106   -2.563192    0.000000    2.650000
    27  Zr    c     2.555683    2.568948    5.101034    0.000000    2.650000
    28  Zr    c     2.555683    5.101034    2.568948    0.000000    2.650000
    29  O     c     6.420039    3.782379    1.303091    0.000000    0.077000
    30  O     c     6.420039    1.303091    3.782379    0.000000    0.077000
    31  O     c     6.420039    1.234751   -1.244537    0.000000    0.077000
    32  O     c     6.420039   -1.244537    1.234751    0.000000    0.077000
    33  O     c    -0.774172    1.268921    1.268921    0.000000    0.077000
    34  Zr    c     5.090240    2.551514   -2.559243    0.000000    2.650000
    35  Zr    c     5.090240   -0.013672    5.097085    0.000000    2.650000
    36  Zr    c     5.090240   -2.559243    2.551514    0.000000    2.650000
    37  Zr    c     5.090240    5.097085   -0.013672    0.000000    2.650000
    38  O     c     6.321426    3.789237   -1.251396    0.000000    0.077000
    39  O     c     6.321426   -1.251396    3.789237    0.000000    0.077000
    40  O     c     6.286507    3.822677    3.822677    0.000000    0.077000
    41  O     c     6.286507   -1.284835   -1.284835    0.000000    0.077000
    42  Zr    c     7.622723    2.561345   -0.023503    0.000000    2.650000
    43  Zr    c     7.622723   -0.023503    2.561345    0.000000    2.650000
    44  O     c    -1.326334   -1.287311    1.230899    0.000000    0.077000
    45  O     c    -1.326334    1.230899   -1.287311    0.000000    0.077000
    46  O     c    -1.326334    1.306943    3.825153    0.000000    0.077000
    47  O     c    -1.326334    3.825153    1.306943    0.000000    0.077000
    48  Zr    c    -0.022417    2.563235   -2.555953    0.000000    2.650000
    49  Zr    c    -0.022417   -2.555953    2.563235    0.000000    2.650000
    50  Zr    c    -0.022417   -0.025393    5.093795    0.000000    2.650000
    51  Zr    c    -0.022417    5.093795   -0.025393    0.000000    2.650000
    52  O     c     3.776817    1.284672    6.358940    0.000000    0.077000
    53  O     c     3.776817    6.358940    1.284672    0.000000    0.077000
    54  O     c     3.776817   -3.821098    1.253169    0.000000    0.077000
    55  O     c     3.776817    1.253169   -3.821098    0.000000    0.077000
    56  O     c     1.255084   -3.586920    1.262866    0.000000    0.077000
    57  O     c     1.255084    1.262866   -3.586920    0.000000    0.077000
    58  O     c     1.255084    1.274976    6.124762    0.000000    0.077000
    59  O     c     1.255084    6.124762    1.274976    0.000000    0.077000
    60  Zr    c     2.542498   -2.557536    5.095377    0.000000    2.650000
    61  Zr    c     2.542498    5.095377   -2.557536    0.000000    2.650000
    62  O     c    -1.289850    3.826243    3.826243    0.000000    0.077000
    63  O     c    -1.289850   -1.288401   -1.288401    0.000000    0.077000
    64  O     c    -1.265385   -1.242756    3.780598    0.000000    0.077000
    65  O     c    -1.265385    3.780598   -1.242756    0.000000    0.077000
    66  O     c     3.810541   -3.819930    3.793661    0.000000    0.077000
    67  O     c     3.810541    3.793661   -3.819930    0.000000    0.077000
    68  O     c     3.810541   -1.255819    6.357772    0.000000    0.077000
    69  O     c     3.810541    6.357772   -1.255819    0.000000    0.077000
    70  O     c     3.814551    6.313558    3.806679    0.000000    0.077000
    71  O     c     3.814551    3.806679    6.313558    0.000000    0.077000
    72  O     c     3.814551   -1.268837   -3.775716    0.000000    0.077000
    73  O     c     3.814551   -3.775716   -1.268837    0.000000    0.077000
    74  Zr    c     5.092017    5.096406    5.096406    0.000000    2.650000
    75  Zr    c     5.092017   -2.558564   -2.558564    0.000000    2.650000
    76  O     c     8.613032    1.268921    1.268921    0.000000    0.077000
    77  Zr    c    -2.568456   -0.034515    2.572357    0.000000    2.650000
    78  Zr    c    -2.568456    2.572357   -0.034515    0.000000    2.650000
    79  O     c     1.292415    3.793481    6.375061    0.000000    0.077000
    80  O     c     1.292415    6.375061    3.793481    0.000000    0.077000
    81  O     c     1.292415   -3.837220   -1.255639    0.000000    0.077000
    82  O     c     1.292415   -1.255639   -3.837220    0.000000    0.077000
    83  O     c     1.264585   -1.250243    6.380476    0.000000    0.077000
    84  O     c     1.264585    6.380476   -1.250243    0.000000    0.077000
    85  O     c     1.264585   -3.842634    3.788085    0.000000    0.077000
    86  O     c     1.264585    3.788085   -3.842634    0.000000    0.077000
    87  O     c     6.314832    6.327133    1.261399    0.000000    0.077000
    88  O     c     6.314832    1.261399    6.327133    0.000000    0.077000
    89  O     c     6.314832    1.276443   -3.789291    0.000000    0.077000
    90  O     c     6.314832   -3.789291    1.276443    0.000000    0.077000
    91  Zr    c     7.623296    2.539740    5.085498    0.000000    2.650000
    92  Zr    c     7.623296   -0.001898   -2.547656    0.000000    2.650000
    93  Zr    c     7.623296    5.085498    2.539740    0.000000    2.650000
[...]
    328 y          2.537842      2.539941     0.002099    Cartesian    0.08
    328 z         10.151367     10.154695     0.003328    Cartesian    0.03
    329 x         11.420288     11.425305     0.005017    Cartesian    0.04
    329 y          6.344605      6.345766     0.001162    Cartesian    0.02
    329 z          3.806763      3.809427     0.002664    Cartesian    0.07
    330 x         11.420288     11.426046     0.005758    Cartesian    0.05
    330 y          6.344605      6.341953    -0.002652    Cartesian   -0.04
    330 z         -1.268921     -1.270364    -0.001443    Cartesian    0.11
    331 x         -6.344605     -6.337763     0.006842    Cartesian   -0.11
    331 y         -1.268921     -1.265665     0.003256    Cartesian   -0.26
    331 z         -1.268921     -1.265665     0.003256    Cartesian   -0.26
    332 x         -6.344605     -6.347152    -0.002548    Cartesian    0.04
    332 y         -1.268921     -1.263779     0.005142    Cartesian   -0.41
    332 z          3.806763      3.801621    -0.005142    Cartesian   -0.14
    333 x         -1.268921     -1.268353     0.000568    Cartesian   -0.04
    333 y         -6.344605     -6.348673    -0.004069    Cartesian    0.06
    333 z          6.344605      6.341157    -0.003447    Cartesian   -0.05
    334 x         -1.268921     -1.268906     0.000015    Cartesian   -0.00
    334 y          6.344605      6.341574    -0.003030    Cartesian   -0.05
    334 z          8.882446      8.879220    -0.003227    Cartesian   -0.04
    335 x          0.000000      0.002044     0.002044    Cartesian    0.00
    335 y          5.075684      5.074082    -0.001602    Cartesian   -0.03
    335 z         10.151367     10.156089     0.004722    Cartesian    0.05
    336 x          3.806763      3.803622    -0.003141    Cartesian   -0.08
    336 y          1.268921      1.271084     0.002163    Cartesian    0.17
    336 z         11.420288     11.428034     0.007745    Cartesian    0.07
    337 x         10.151367     10.156128     0.004761    Cartesian    0.05
    337 y         -2.537842     -2.537670     0.000172    Cartesian   -0.01
    337 z          7.613525      7.616952     0.003426    Cartesian    0.05
    338 x         -3.806763     -3.806451     0.000312    Cartesian   -0.01
    338 y          1.268921      1.266344    -0.002576    Cartesian   -0.20
    338 z          8.882446      8.874386    -0.008061    Cartesian   -0.09
    339 x          1.268921      1.268245    -0.000676    Cartesian   -0.05
    339 y          1.268921      1.268340    -0.000581    Cartesian   -0.05
    339 z         11.420288     11.359591    -0.060697    Cartesian   -0.53
    340 x         12.689209     12.692182     0.002973    Cartesian    0.02
    340 y          5.075684      5.075946     0.000263    Cartesian    0.01
    340 z          2.537842      2.535076    -0.002765    Cartesian   -0.11
    341 x         -5.075684     -5.083645    -0.007962    Cartesian    0.16
    341 y         -5.075684     -5.083515    -0.007832    Cartesian    0.15
    341 z          0.000000     -0.002256    -0.002256    Cartesian    0.00
    342 x          3.806763      3.801610    -0.005152    Cartesian   -0.14
    342 y          3.806763      3.805543    -0.001220    Cartesian   -0.03
    342 z         11.420288     11.405024    -0.015264    Cartesian   -0.13
    343 x          3.806763      3.803577    -0.003186    Cartesian   -0.08
    343 y         -1.268921     -1.266265     0.002656    Cartesian   -0.21
    343 z         11.420288     11.422734     0.002446    Cartesian    0.02
    344 x         -3.806763     -3.810998    -0.004235    Cartesian    0.11
    344 y          3.806763      3.807029     0.000266    Cartesian    0.01
    344 z          8.882446      8.877014    -0.005432    Cartesian   -0.06
    345 x         -3.806763     -3.805589     0.001174    Cartesian   -0.03
    345 y          3.806763      3.804309    -0.002454    Cartesian   -0.06
    345 z         -6.344605     -6.345781    -0.001177    Cartesian    0.02
    346 x         -2.537842     -2.536855     0.000987    Cartesian   -0.04
    346 y          7.613525      7.618969     0.005444    Cartesian    0.07
    346 z         -5.075684     -5.081128    -0.005444    Cartesian    0.11
    347 x         -2.537842     -2.537176     0.000666    Cartesian   -0.03
    347 y         -7.613525     -7.620454    -0.006929    Cartesian    0.09
    347 z          0.000000      0.001298     0.001298    Cartesian    0.00
    348 x          1.268921      1.265401    -0.003520    Cartesian   -0.28
    348 y         -1.268921     -1.266771     0.002150    Cartesian   -0.17
    348 z         11.420288     11.432835     0.012547    Cartesian    0.11
    349 x          1.268921      1.270605     0.001684    Cartesian    0.13
    349 y          3.806763      3.804727    -0.002036    Cartesian   -0.05
    349 z         11.420288     11.431550     0.011262    Cartesian    0.10
    350 x          6.344605      6.342486    -0.002118    Cartesian   -0.03
    350 y          1.268921      1.267485    -0.001436    Cartesian   -0.11
    350 z         11.420288     11.414891    -0.005397    Cartesian   -0.05
    351 x          7.613525      7.616459     0.002934    Cartesian    0.04
    351 y         -2.537842     -2.538829    -0.000988    Cartesian    0.04
    351 z         10.151367     10.155245     0.003878    Cartesian    0.04
    352 x         -6.344605     -6.340110     0.004495    Cartesian   -0.07
    352 y          1.268921      1.265407    -0.003514    Cartesian   -0.28
    352 z          6.344605      6.345009     0.000404    Cartesian    0.01
    353 x          3.806763      3.807022     0.000259    Cartesian    0.01
    353 y          8.882446      8.880960    -0.001486    Cartesian   -0.02
    353 z          8.882446      8.880960    -0.001486    Cartesian   -0.02
    354 x          3.806763      3.801520    -0.005243    Cartesian   -0.14
    354 y         -6.344605     -6.342583     0.002021    Cartesian   -0.03
    354 z          8.882446      8.880425    -0.002021    Cartesian   -0.02
    355 x          8.882446      8.883926     0.001480    Cartesian    0.02
    355 y         -3.806763     -3.805661     0.001102    Cartesian   -0.03
    355 z         -6.344605     -6.346465    -0.001861    Cartesian    0.03
    356 x          8.882446      8.880628    -0.001818    Cartesian   -0.02
    356 y         -3.806763     -3.806329     0.000434    Cartesian   -0.01
    356 z          8.882446      8.879766    -0.002680    Cartesian   -0.03
    357 x         13.958130     13.892760    -0.065370    Cartesian   -0.47
    357 y          1.268921      1.268921     0.000000    Cartesian    0.00
    357 z          1.268921      1.268921     0.000000    Cartesian    0.00
    358 x         -7.613525     -7.616810    -0.003285    Cartesian    0.04
    358 y         -0.000000     -0.009462    -0.009462    Cartesian *******
    358 z          2.537842      2.547304     0.009462    Cartesian    0.37
    359 x          1.268921      1.271147     0.002226    Cartesian    0.18
    359 y          8.882446      8.881120    -0.001326    Cartesian   -0.01
    359 z         -6.344605     -6.343278     0.001326    Cartesian   -0.02
    360 x          1.268921      1.266214    -0.002707    Cartesian   -0.21
    360 y          8.882446      8.880269    -0.002177    Cartesian   -0.02
    360 z          8.882446      8.880269    -0.002177    Cartesian   -0.02
    361 x          2.537842      2.539623     0.001782    Cartesian    0.07
    361 y          7.613525      7.617137     0.003612    Cartesian    0.05
    361 z         10.151367     10.157682     0.006315    Cartesian    0.06
    362 x          6.344605      6.343280    -0.001324    Cartesian   -0.02
    362 y          3.806763      3.808065     0.001302    Cartesian    0.03
    362 z         11.420288     11.423941     0.003653    Cartesian    0.03
    363 x          6.344605      6.340309    -0.004295    Cartesian   -0.07
    363 y         -1.268921     -1.267182     0.001739    Cartesian   -0.14
    363 z         11.420288     11.415717    -0.004571    Cartesian   -0.04
    364 x         11.420288     11.411072    -0.009216    Cartesian   -0.08
    364 y          6.344605      6.342286    -0.002319    Cartesian   -0.04
    364 z          6.344605      6.342286    -0.002319    Cartesian   -0.04
    365 x         11.420288     11.417376    -0.002913    Cartesian   -0.03
    365 y          6.344605      6.343985    -0.000620    Cartesian   -0.01
    365 z         -3.806763     -3.806143     0.000620    Cartesian   -0.02
    366 x         12.689209     12.693205     0.003996    Cartesian    0.03
    366 y          5.075684      5.080843     0.005159    Cartesian    0.10
    366 z         -2.537842     -2.543001    -0.005159    Cartesian    0.20
    367 x         -6.344605     -6.338255     0.006350    Cartesian   -0.10
    367 y         -3.806763     -3.809041    -0.002278    Cartesian    0.06
    367 z         -1.268921     -1.270136    -0.001215    Cartesian    0.10
    368 x         -6.344605     -6.341794     0.002811    Cartesian   -0.04
    368 y         -3.806763     -3.800599     0.006163    Cartesian   -0.16
    368 z          3.806763      3.803972    -0.002790    Cartesian   -0.07
    369 x         -5.075684     -5.081157    -0.005473    Cartesian    0.11
    369 y          5.075684      5.078376     0.002692    Cartesian    0.05
    369 z         -5.075684     -5.082091    -0.006407    Cartesian    0.13
    370 x         -1.268921     -1.268107     0.000814    Cartesian   -0.06
    370 y          1.268921      1.265628    -0.003293    Cartesian   -0.26
    370 z         11.420288     11.426777     0.006489    Cartesian    0.06
    371 x          5.075684      5.077499     0.001816    Cartesian    0.04
    371 y         -7.613525     -7.619882    -0.006357    Cartesian    0.08
    371 z          7.613525      7.617205     0.003680    Cartesian    0.05
    372 x         13.958130     13.979169     0.021039    Cartesian    0.15
    372 y          3.806763      3.802379    -0.004384    Cartesian   -0.12
    372 z          1.268921      1.266043    -0.002878    Cartesian   -0.23
    373 x         -2.537842     -2.543061    -0.005219    Cartesian    0.21
    373 y         -7.613525     -7.619007    -0.005481    Cartesian    0.07
    373 z          5.075684      5.080176     0.004492    Cartesian    0.09
    374 x          6.344605      6.343300    -0.001305    Cartesian   -0.02
    374 y         -6.344605     -6.342104     0.002501    Cartesian   -0.04
    374 z          8.882446      8.879945    -0.002501    Cartesian   -0.03
    375 x          6.344605      6.340623    -0.003981    Cartesian   -0.06
    375 y          8.882446      8.880919    -0.001527    Cartesian   -0.02
    375 z          8.882446      8.880919    -0.001527    Cartesian   -0.02
    376 x         11.420288     11.420428     0.000140    Cartesian    0.00
    376 y          8.882446      8.880756    -0.001690    Cartesian   -0.02
    376 z          1.268921      1.270759     0.001838    Cartesian    0.14
    377 x         -1.268921     -1.266956     0.001964    Cartesian   -0.15
    377 y          3.806763      3.805632    -0.001130    Cartesian   -0.03
    377 z         -8.882446     -8.863376     0.019070    Cartesian   -0.21
    378 x         -1.268921     -1.267055     0.001866    Cartesian   -0.15
    378 y         11.420288     11.418203    -0.002085    Cartesian   -0.02
    378 z          3.806763      3.803053    -0.003710    Cartesian   -0.10
    379 x         -0.000000     -0.001513    -0.001513    Cartesian *******
    379 y         -7.613525     -7.620759    -0.007234    Cartesian    0.10
    379 z          7.613525      7.617740     0.004215    Cartesian    0.06
    380 x          3.806763      3.806984     0.000221    Cartesian    0.01
    380 y          6.344605      6.343907    -0.000698    Cartesian   -0.01
    380 z         11.420288     11.418279    -0.002009    Cartesian   -0.02
    381 x          3.806763      3.804674    -0.002089    Cartesian   -0.05
    381 y         -3.806763     -3.803959     0.002804    Cartesian   -0.07
    381 z         11.420288     11.414902    -0.005386    Cartesian   -0.05
    382 x         10.151367     10.155624     0.004257    Cartesian    0.04
    382 y          7.613525      7.618812     0.005287    Cartesian    0.07
    382 z          7.613525      7.618812     0.005287    Cartesian    0.07
    383 x         10.151367     10.155824     0.004457    Cartesian    0.04
    383 y          0.000000      0.000447     0.000447    Cartesian    0.00
    383 z         10.151367     10.156395     0.005028    Cartesian    0.05
    384 x         13.958130     13.935580    -0.022550    Cartesian   -0.16
    384 y          3.806763      3.805434    -0.001329    Cartesian   -0.03
    384 z          3.806763      3.805434    -0.001329    Cartesian   -0.03
    385 x         13.958130     13.935899    -0.022231    Cartesian   -0.16
    385 y          3.806763      3.806522    -0.000240    Cartesian   -0.01
    385 z         -1.268921     -1.268680     0.000240    Cartesian   -0.02
    386 x         -7.613525     -7.626183    -0.012658    Cartesian    0.17
    386 y         -0.000000      0.001715     0.001715    Cartesian *******
    386 z         -2.537842     -2.538863    -0.001021    Cartesian    0.04
    387 x         -3.806763     -3.799005     0.007758    Cartesian   -0.20
    387 y          6.344605      6.338702    -0.005903    Cartesian   -0.09
    387 z          8.882446      8.875365    -0.007082    Cartesian   -0.08
    388 x         -3.806763     -3.806236     0.000526    Cartesian   -0.01
    388 y         -6.344605     -6.341476     0.003128    Cartesian   -0.05
    388 z          6.344605      6.342274    -0.002331    Cartesian   -0.04
    389 x          1.268921      1.268448    -0.000473    Cartesian   -0.04
    389 y         -8.882446     -8.871731     0.010715    Cartesian   -0.12
    389 z          6.344605      6.343367    -0.001238    Cartesian   -0.02
    390 x          1.268921      1.270221     0.001301    Cartesian    0.10
    390 y          6.344605      6.341845    -0.002760    Cartesian   -0.04
    390 z         11.420288     11.409240    -0.011048    Cartesian   -0.10
    391 x          2.537842      2.541396     0.003554    Cartesian    0.14
    391 y         -0.000000     -0.005897    -0.005897    Cartesian *******
    391 z         12.689209     12.696129     0.006920    Cartesian    0.05
    392 x         11.420288     11.415904    -0.004384    Cartesian   -0.04
    392 y         -1.268921     -1.268457     0.000464    Cartesian   -0.04
    392 z          8.882446      8.879334    -0.003112    Cartesian   -0.04
    393 x         11.420288     11.411133    -0.009155    Cartesian   -0.08
    393 y          3.806763      3.804398    -0.002365    Cartesian   -0.06
    393 z          8.882446      8.880203    -0.002244    Cartesian   -0.03
    394 x         12.689209     12.695058     0.005849    Cartesian    0.05
    394 y          0.000000     -0.001954    -0.001954    Cartesian    0.00
    394 z          7.613525      7.617852     0.004327    Cartesian    0.06
    395 x         -1.268921     -1.263743     0.005178    Cartesian   -0.41
    395 y          8.882446      8.873907    -0.008539    Cartesian   -0.10
    395 z          8.882446      8.873907    -0.008539    Cartesian   -0.10
    396 x         -1.268921     -1.269390    -0.000469    Cartesian    0.04
    396 y         -6.344605     -6.340801     0.003804    Cartesian   -0.06
    396 z          8.882446      8.878643    -0.003804    Cartesian   -0.04
    397 x          5.075684      5.077545     0.001861    Cartesian    0.04
    397 y          2.537842      2.537837    -0.000005    Cartesian   -0.00
    397 z         12.689209     12.699044     0.009835    Cartesian    0.08
    398 x          8.882446      8.879646    -0.002800    Cartesian   -0.03
    398 y          1.268921      1.270654     0.001733    Cartesian    0.14
    398 z         11.420288     11.414882    -0.005406    Cartesian   -0.05
    399 x          6.344605      6.341698    -0.002906    Cartesian   -0.05
    399 y         -3.806763     -3.804784     0.001978    Cartesian   -0.05
    399 z         11.420288     11.413143    -0.007145    Cartesian   -0.06
    400 x          6.344605      6.342287    -0.002317    Cartesian   -0.04
    400 y         11.420288     11.411007    -0.009281    Cartesian   -0.08
    400 z          6.344605      6.341682    -0.002923    Cartesian   -0.05
    401 x          7.613525      7.618002     0.004476    Cartesian    0.06
    401 y         10.151367     10.158020     0.006652    Cartesian    0.07
    401 z          7.613525      7.618578     0.005053    Cartesian    0.07
    402 x         -6.344605     -6.336400     0.008204    Cartesian   -0.13
    402 y         -3.806763     -3.804247     0.002516    Cartesian   -0.07
    402 z          6.344605      6.342088    -0.002516    Cartesian   -0.04
    403 x         -6.344605     -6.337120     0.007484    Cartesian   -0.12
    403 y          6.344605      6.336932    -0.007673    Cartesian   -0.12
    403 z          6.344605      6.336932    -0.007673    Cartesian   -0.12
    404 x          0.000000     -0.005079    -0.005079    Cartesian    0.00
    404 y          2.537842      2.542737     0.004895    Cartesian    0.19
    404 z         12.689209     12.698272     0.009063    Cartesian    0.07
    405 x          8.882446      8.877763    -0.004683    Cartesian   -0.05
    405 y         -1.268921     -1.267494     0.001427    Cartesian   -0.11
    405 z         11.420288     11.413267    -0.007021    Cartesian   -0.06
    406 x          8.882446      8.879303    -0.003143    Cartesian   -0.04
    406 y         11.420288     11.411124    -0.009164    Cartesian   -0.08
    406 z          3.806763      3.804917    -0.001846    Cartesian   -0.05
    407 x         10.151367     10.157730     0.006363    Cartesian    0.06
    407 y         10.151367     10.158215     0.006847    Cartesian    0.07
    407 z          5.075684      5.079715     0.004031    Cartesian    0.08
    408 x         13.958130     13.941190    -0.016940    Cartesian   -0.12
    408 y          6.344605      6.341858    -0.002747    Cartesian   -0.04
    408 z          1.268921      1.268130    -0.000791    Cartesian   -0.06
--------------------------------------------------------------------------------


  Time to end of optimisation  =       91.1525 seconds


  Peak dynamic memory used =     400.18 MB 


  Timing analysis for GULP :

--------------------------------------------------------------------------------
  Task / Subroutine                                          Time (Seconds)
--------------------------------------------------------------------------------
  Calculation of reciprocal space energy and derivatives          0.0002
  Calculation of reciprocal space energy using symmetry           0.0002
  Calculation of real space energy and derivatives                0.0020
  Calculation of real space energy using symmetry                 0.0072
  Calculation for region 1 energy and derivatives (2-b)          22.8143
  Calculation for region 2a energy                               52.0716
  Calculation for region 2b energy                                0.0077
  Calculation and manipulation of Hessian matrix                 14.7243
  Calculation of matrix inversion                                 1.0916
  Symmetry generation of equivalent positions                     0.0015
--------------------------------------------------------------------------------
  Total CPU time                                                 91.1525
--------------------------------------------------------------------------------


  Dump file written as ZrO2.grs


  Job Finished at 12:59.01 14th October    2020                               

