********************************************************************************
*                       GENERAL UTILITY LATTICE PROGRAM                        *
*                                 Julian Gale                                  *
*                       Curtin Institute for Computation                       *
*                    School of Molecular and Life Sciences                     *
*                    Curtin University, Western Australia                      *
********************************************************************************
* Version = 5.2.0 * Last modified =  10th September 2020                       *
********************************************************************************
* Zirconia doped with calcium                                                  *
*  optimise     - perform optimisation run                                     *
*  conp         - constant pressure calculation                                *
*  property     - calculate properties for final geometry                      *
*  defect       - perform defect calculation after bulk run                    *
*  distance     - calculate distances                                          *
*  compare      - compare initial and final structures                         *
********************************************************************************
* Zirconia doped with calcium                                                  *
********************************************************************************


  Job Started  at 13:01.57 14th October    2020                               

  Number of CPUs =     1


  Total number of configurations input =      1

********************************************************************************
*  Input for Configuration =   1 : ZrO2                                        *
********************************************************************************

  Formula = ZrO2                                                        

  Number of irreducible atoms/shells =       4


  Total number atoms/shells =       6

  Dimensionality = 3               :  Bulk   


  Symmetry :

  Crystal family                   :  Cubic       
  Crystal class  (Groth - 1921)    :  Cubic Hexakisoctahedral              

  Space group (centrosymmetric)    :  F M 3 M         

  Patterson group                  :  F m -3 m 

  Cartesian lattice vectors (Angstroms) :

        0.000000    2.535000    2.535000
        2.535000    0.000000    2.535000
        2.535000    2.535000    0.000000

  Primitive cell parameters :            Full cell parameters :

  a =   3.5850    alpha =  60.0000       a =   5.0700    alpha =  90.0000
  b =   3.5850    beta  =  60.0000       b =   5.0700    beta  =  90.0000
  c =   3.5850    gamma =  60.0000       c =   5.0700    gamma =  90.0000

  Initial volumes (Angstroms**3):

  Primitive cell =          32.580961    Full cell =         130.323843

  Temperature of configuration =   0.00     K 

  Pressure of configuration =         0.000 GPa 

  Fractional coordinates of asymmetric unit :

--------------------------------------------------------------------------------
   No.  Atomic       x           y          z         Charge      Occupancy
        Label      (Frac)      (Frac)     (Frac)        (e)         (Frac)  
--------------------------------------------------------------------------------
      1 Zr    c    0.000000    0.000000    0.000000     2.65000    1.000000    
      2 O     c    0.250000    0.250000    0.250000     0.07700    1.000000    
      3 Zr    s    0.000000    0.000000    0.000000     1.35000    1.000000    
      4 O     s    0.250000    0.250000    0.250000    -2.07700    1.000000    
--------------------------------------------------------------------------------


  Constraints : 

--------------------------------------------------------------------------------
  Constraint no.      Unconstrained     Constrained    Coefficient    Offset
                         Variable         Variable
--------------------------------------------------------------------------------
           1              Strain 1        Strain 2       1.00000      0.0000
           2              Strain 1        Strain 3       1.00000      0.0000
--------------------------------------------------------------------------------


  Distance calculation :


  Cutoff for distances  =      4.000000 Angstroms

--------------------------------------------------------------------------------
  Asymmetric unit site  Full lattice sites    No.  Distance      No.  Distance
      No.   At.No.            At.No.                (Angs)             (Angs) 
--------------------------------------------------------------------------------
       1   Zr    core        Zr    core        12    3.5850
                             Zr    shell       12    3.5850
                             O     core         8    2.1954
                             O     shell        8    2.1954
--------------------------------------------------------------------------------
       2   O     core        Zr    core         4    2.1954
                             Zr    shell        4    2.1954
                             O     core         6    2.5350       12    3.5850
                             O     shell        6    2.5350       12    3.5850
--------------------------------------------------------------------------------
       3   Zr    shell       Zr    core        12    3.5850
                             Zr    shell       12    3.5850
                             O     core         8    2.1954
                             O     shell        8    2.1954
--------------------------------------------------------------------------------
       4   O     shell       Zr    core         4    2.1954
                             Zr    shell        4    2.1954
                             O     core         6    2.5350       12    3.5850
                             O     shell        6    2.5350       12    3.5850
--------------------------------------------------------------------------------



********************************************************************************
*  General input information                                                   *
********************************************************************************

  Species output for all configurations : 

--------------------------------------------------------------------------------
  Species    Type    Atomic    Atomic    Charge       Radii (Angs)     Library
                     Number     Mass       (e)     Cova   Ionic  VDW   Symbol
--------------------------------------------------------------------------------
    Zr       Core       40      91.22   2.650000   1.560  0.000  2.330          
    Zr       Shell      40       0.00   1.350000   1.560  0.000  2.330          
    O        Core        8      16.00   0.077000   0.730  0.000  1.360          
    O        Shell       8       0.00  -2.077000   0.730  0.000  1.360          
--------------------------------------------------------------------------------


  Lattice summation method               =    Ewald          (3-D)
                                         =    Parry          (2-D)
                                         =    Saunders et al (1-D)
  Accuracy factor for lattice sums       =   12.000


  Analytic derivatives to be used

  Time limit = Infinity

  Maximum range for interatomic potentials =    100000.000000 Angstroms

  General interatomic potentials :

--------------------------------------------------------------------------------
Atom  Types   Potential      Parameter       Value         Units   Cutoffs(Ang)
  1     2                                                            Min /  Max 
--------------------------------------------------------------------------------
O    s Zr   s Buckingham    Buckingham A     985.86900    eV        0.000 12.000
                            Buckingham rho  0.37600000    Ang       
                            Buckingham C     0.0000000    eV*Ang^6  
--------------------------------------------------------------------------------
O    s O    s Buckingham    Buckingham A     22764.300    eV        0.000 12.000
                            Buckingham rho  0.14900000    Ang       
                            Buckingham C     27.890000    eV*Ang^6  
--------------------------------------------------------------------------------
Zr   c Zr   s Spring (c-s)  Spring k 2       169.61700    eV*Ang^-2 0.000  0.800
                            Spring k 4       0.0000000    eV*Ang^-4 
--------------------------------------------------------------------------------
O    c O    s Spring (c-s)  Spring k 2       27.290000    eV*Ang^-2 0.000  0.800
                            Spring k 4       0.0000000    eV*Ang^-4 
--------------------------------------------------------------------------------

********************************************************************************
*  Output for configuration   1 : ZrO2                                         *
********************************************************************************


  Components of energy : 

--------------------------------------------------------------------------------
  Interatomic potentials     =          22.43756329 eV    
  Monopole - monopole (real) =         -15.67991073 eV    
  Monopole - monopole (recip)=        -116.52038266 eV    
  Monopole - monopole (total)=        -132.20029339 eV    
--------------------------------------------------------------------------------
  Total lattice energy : 
    Primitive unit cell      =        -109.76273010 eV    
    Non-primitive unit cell  =        -439.05092039 eV    
--------------------------------------------------------------------------------
  Total lattice energy (in kJmol-1): 
    Primitive unit cell      =          -10590.4256 kJ/(mole unit cells)
    Non-primitive unit cell  =          -42361.7023 kJ/(mole unit cells)
--------------------------------------------------------------------------------


  Number of variables =        1

  Maximum number of calculations  =          1000
  Maximum Hessian update interval =            10
  Maximum step size               =   1.000000000
  Maximum parameter tolerance     =   0.000010000
  Maximum function  tolerance     =   0.000010000
  Maximum gradient  tolerance     =   0.001000000
  Maximum gradient  component     =   0.010000000

  Symmetry constrained optimisation

  Symmetry used for second derivatives

  Cell parameters to be optimised using strains

  Newton-Raphson optimiser to be used

  BFGS hessian update to be used

  Lower half triangular hessian to be used

  Start of bulk optimisation :

  Cycle:      0 Energy:      -109.762730  Gnorm:      0.588311  CPU:    0.006
  ** Hessian calculated **
  Cycle:      1 Energy:      -109.763059  Gnorm:      0.000316  CPU:    0.009


  **** Optimisation achieved ****


  Final energy =    -109.76305939 eV
  Final Gnorm  =       0.00000099

  Components of energy : 

--------------------------------------------------------------------------------
  Interatomic potentials     =          22.28919976 eV    
  Monopole - monopole (real) =         -15.66235280 eV    
  Monopole - monopole (recip)=        -116.38990634 eV    
  Monopole - monopole (total)=        -132.05225914 eV    
--------------------------------------------------------------------------------
  Total lattice energy : 
    Primitive unit cell      =        -109.76305939 eV    
    Non-primitive unit cell  =        -439.05223754 eV    
--------------------------------------------------------------------------------
  Total lattice energy (in kJmol-1): 
    Primitive unit cell      =          -10590.4573 kJ/(mole unit cells)
    Non-primitive unit cell  =          -42361.8294 kJ/(mole unit cells)
--------------------------------------------------------------------------------

  Final asymmetric unit coordinates :

--------------------------------------------------------------------------------
   No.  Atomic        x           y           z         Radius
        Label       (Frac)      (Frac)      (Frac)       (Angs) 
--------------------------------------------------------------------------------
     1  Zr    c     0.000000    0.000000    0.000000    0.000000
     2  O     c     0.250000    0.250000    0.250000    0.000000
     3  Zr    s     0.000000    0.000000    0.000000    0.000000
     4  O     s     0.250000    0.250000    0.250000    0.000000
--------------------------------------------------------------------------------

  Final Cartesian lattice vectors (Angstroms) :

        0.000000    2.537842    2.537842
        2.537842    0.000000    2.537842
        2.537842    2.537842    0.000000


  Final cell parameters and derivatives :

--------------------------------------------------------------------------------
       a            3.589050 Angstrom     dE/de1(xx)    -0.000001 eV/strain
       b            3.589050 Angstrom     dE/de2(yy)     0.000000 eV/strain
       c            3.589050 Angstrom     dE/de3(zz)     0.000000 eV/strain
       alpha       60.000000 Degrees      dE/de4(yz)     0.000000 eV/strain
       beta        60.000000 Degrees      dE/de5(xz)     0.000000 eV/strain
       gamma       60.000000 Degrees      dE/de6(xy)     0.000000 eV/strain
--------------------------------------------------------------------------------

  Primitive cell volume =            32.690656 Angs**3

  Density of cell =      6.259124 g/cm**3

  Non-primitive lattice parameters :

  a    =     5.075684  b   =     5.075684  c    =     5.075684
  alpha=    90.000000  beta=    90.000000  gamma=    90.000000

  Non-primitive cell volume =           130.762624 Angs**3


  Final internal derivatives :

--------------------------------------------------------------------------------
   No.  Atomic          a             b             c           Radius
        Label          (eV)          (eV)          (eV)        (eV/Angs)
--------------------------------------------------------------------------------
      1 Zr    c       0.000000      0.000000      0.000000      0.000000
      2 O     c       0.000000      0.000000      0.000000      0.000000
      3 Zr    s       0.000000      0.000000      0.000000      0.000000
      4 O     s       0.000000      0.000000      0.000000      0.000000
--------------------------------------------------------------------------------
  Maximum abs         0.000000      0.000000      0.000000      0.000000
--------------------------------------------------------------------------------

  Comparison of initial and final structures : 

--------------------------------------------------------------------------------
  Parameter   Initial value   Final value   Difference    Units      Percent
--------------------------------------------------------------------------------
    Volume       130.323843    130.762624     0.438781    Angs**3      0.34
    a              5.070000      5.075684     0.005684    Angstroms    0.11
    b              5.070000      5.075684     0.005684    Angstroms    0.11
    c              5.070000      5.075684     0.005684    Angstroms    0.11
    alpha         90.000000     90.000000     0.000000    Degrees      0.00
    beta          90.000000     90.000000     0.000000    Degrees      0.00
    gamma         90.000000     90.000000     0.000000    Degrees      0.00
      1 x          0.000000      0.000000     0.000000    Fractional   0.00
      1 y          0.000000      0.000000     0.000000    Fractional   0.00
      1 z          0.000000      0.000000     0.000000    Fractional   0.00
      2 x          0.250000      0.250000     0.000000    Fractional   0.00
      2 y          0.250000      0.250000     0.000000    Fractional   0.00
      2 z          0.250000      0.250000     0.000000    Fractional   0.00
      3 x          0.000000      0.000000     0.000000    Fractional   0.00
      3 y          0.000000      0.000000     0.000000    Fractional   0.00
      3 z          0.000000      0.000000     0.000000    Fractional   0.00
      4 x          0.250000      0.250000     0.000000    Fractional   0.00
      4 y          0.250000      0.250000     0.000000    Fractional   0.00
      4 z          0.250000      0.250000     0.000000    Fractional   0.00
--------------------------------------------------------------------------------


  Distance calculation :


  Cutoff for distances  =      4.000000 Angstroms

--------------------------------------------------------------------------------
  Asymmetric unit site  Full lattice sites    No.  Distance      No.  Distance
      No.   At.No.            At.No.                (Angs)             (Angs) 
--------------------------------------------------------------------------------
       1   Zr    core        Zr    core        12    3.5891
                             Zr    shell       12    3.5891
                             O     core         8    2.1978
                             O     shell        8    2.1978
--------------------------------------------------------------------------------
       2   O     core        Zr    core         4    2.1978
                             Zr    shell        4    2.1978
                             O     core         6    2.5378       12    3.5891
                             O     shell        6    2.5378       12    3.5891
--------------------------------------------------------------------------------
       3   Zr    shell       Zr    core        12    3.5891
                             Zr    shell       12    3.5891
                             O     core         8    2.1978
                             O     shell        8    2.1978
--------------------------------------------------------------------------------
       4   O     shell       Zr    core         4    2.1978
                             Zr    shell        4    2.1978
                             O     core         6    2.5378       12    3.5891
                             O     shell        6    2.5378       12    3.5891
--------------------------------------------------------------------------------



  Born effective charge tensors : 

-------------------------------------------------------------------------------
  Atom             x           y             z
-------------------------------------------------------------------------------
    1 Zr    x       3.6770      0.0000      0.0000
            y       0.0000      3.6770      0.0000
            z       0.0000      0.0000      3.6770
-------------------------------------------------------------------------------
    2 O     x      -1.8385      0.0000      0.0000
            y       0.0000     -1.8385     -0.0000
            z       0.0000     -0.0000     -1.8385
-------------------------------------------------------------------------------




  Elastic Constant Matrix: (Units=GPa)

-------------------------------------------------------------------------------
  Indices      1         2         3         4         5         6    
-------------------------------------------------------------------------------
       1    616.2933  119.6612  119.6612   -0.0000   -0.0000   -0.0000
       2    119.6612  616.2933  119.6612   -0.0000   -0.0000   -0.0000
       3    119.6612  119.6612  616.2933   -0.0000   -0.0000   -0.0000
       4     -0.0000   -0.0000   -0.0000  100.8598    0.0000   -0.0000
       5     -0.0000   -0.0000   -0.0000    0.0000  100.8598    0.0000
       6     -0.0000   -0.0000   -0.0000   -0.0000    0.0000  100.8598
-------------------------------------------------------------------------------


  Elastic Compliance Matrix: (Units=1/GPa)

-------------------------------------------------------------------------------
  Indices      1         2         3         4         5         6    
-------------------------------------------------------------------------------
       1    0.001732 -0.000282 -0.000282  0.000000  0.000000  0.000000
       2   -0.000282  0.001732 -0.000282 -0.000000  0.000000  0.000000
       3   -0.000282 -0.000282  0.001732  0.000000  0.000000  0.000000
       4    0.000000 -0.000000  0.000000  0.009915 -0.000000  0.000000
       5    0.000000  0.000000  0.000000 -0.000000  0.009915 -0.000000
       6    0.000000  0.000000  0.000000  0.000000 -0.000000  0.009915
-------------------------------------------------------------------------------

  Mechanical properties :

-------------------------------------------------------------------------------
  Convention :                    Reuss         Voigt         Hill
-------------------------------------------------------------------------------
  Bulk  Modulus (GPa)     =     285.20524     285.20524     285.20524
  Shear Modulus (GPa)     =     132.28031     159.84228     146.06129
-------------------------------------------------------------------------------
  Velocity S-wave (km/s)  =       4.59717       5.05346       4.83071
  Velocity P-wave (km/s)  =       8.58749       8.92280       8.75675
-------------------------------------------------------------------------------
  Compressibility (1/GPa) =    0.00350625
-------------------------------------------------------------------------------
  Stress axis :                     x             y             z
-------------------------------------------------------------------------------
  Youngs Moduli (GPa)     =     577.38110     577.38110     577.38110
-------------------------------------------------------------------------------
  Poissons Ratio (x)      =                     0.16259       0.16259
  Poissons Ratio (y)      =       0.16259                     0.16259
  Poissons Ratio (z)      =       0.16259       0.16259
-------------------------------------------------------------------------------


  Piezoelectric Strain Matrix: (Units=C/m**2)

-------------------------------------------------------------------------------
  Indices      1         2         3         4         5         6    
-------------------------------------------------------------------------------
       x    -0.00000   0.00000   0.00000   0.00000   0.00000   0.00000
       y    -0.00000  -0.00000  -0.00000   0.00000   0.00000   0.00000
       z    -0.00000  -0.00000  -0.00000   0.00000   0.00000   0.00000
-------------------------------------------------------------------------------


  Piezoelectric Stress Matrix: (Units=10**-11 C/N)

-------------------------------------------------------------------------------
  Indices      1         2         3         4         5         6    
-------------------------------------------------------------------------------
       x    -0.00000   0.00000   0.00000   0.00000   0.00000   0.00000
       y    -0.00000  -0.00000  -0.00000   0.00000   0.00000   0.00000
       z     0.00000   0.00000  -0.00000   0.00000   0.00000   0.00000
-------------------------------------------------------------------------------


  Static dielectric constant tensor : 

-------------------------------------------------------------------------------
              x         y         z
-------------------------------------------------------------------------------
       x    26.88485   0.00000   0.00000
       y     0.00000  26.88485   0.00000
       z     0.00000   0.00000  26.88485
--------------------------------------------------------------------------------

  High frequency dielectric constant tensor : 

-------------------------------------------------------------------------------
              x         y         z
-------------------------------------------------------------------------------
       x     2.63099   0.00000   0.00000
       y     0.00000   2.63099   0.00000
       z     0.00000   0.00000   2.63099
-------------------------------------------------------------------------------

  Static refractive indices : 

-------------------------------------------------------------------------------
    1 =    5.18506      2 =    5.18506      3 =    5.18506
-------------------------------------------------------------------------------

  High frequency refractive indices : 

-------------------------------------------------------------------------------
    1 =    1.62203      2 =    1.62203      3 =    1.62203
-------------------------------------------------------------------------------


  Time to end of optimisation =       0.0145 seconds

********************************************************************************
*  Defect calculation for configuration   1 :                                  *
********************************************************************************

  Total number of defects =      3

  Total charge on defect  =   2.00

  Defect centre is at   0.6500   0.2500   0.2500  Frac

  Region 1 radius =  12.0000      Number of ions =   1324

  Number of symmetry inequivalent region 1 ions  =    406

  Region 2 radius =  24.0000      Number of ions =   9296

  Number of symmetry inequivalent region 2a ions =   2556

  Region 2a mode = 4 : screened electrostatics due to region 1 
                       neglect correction to region 1 forces from 2a
                       region 2a displacements based on defects only

  Region 2a ions will only interact with defects in region 1

  Vacancies:

--------------------------------------------------------------------------------
    Specification type     Symbol/Number         x          y          z
--------------------------------------------------------------------------------
    Fractional                               0.250000   0.250000   0.250000
    Fractional                               0.750000   0.250000   0.250000
--------------------------------------------------------------------------------

  Interstitials:

--------------------------------------------------------------------------------
    Specification type     Symbol/Number         x          y          z
--------------------------------------------------------------------------------
    Atom/Fractional         O                0.650000   0.250000   0.250000
--------------------------------------------------------------------------------


  Symmetry reduced region 1 (Relative to defect centre) :

--------------------------------------------------------------------------------
   No.   Atomic       x            y             z       Radius  Multiplicity   
         Label      (Angs)       (Angs)        (Angs)    (Angs)     
--------------------------------------------------------------------------------
     1  O     c      0.0000       0.0000       0.0000    0.0000     1    Defect
     2  Zr    c     -0.7614 *    -1.2689 *     1.2689    0.0000     2          
     3  Zr    c      1.7765 *    -1.2689 *    -1.2689    0.0000     2          
     4  O     c      0.5076 *     2.5378 *     0.0000 *  0.0000     4          
     5  O     c      3.0454 *     0.0000       0.0000    0.0000     1          
     6  O     c     -2.0303 *    -0.0000 *     2.5378 *  0.0000     4          
     7  O     c      0.5076 *     2.5378 *     2.5378    0.0000     2          
     8  O     c      0.5076 *    -2.5378 *     2.5378    0.0000     2          
     9  Zr    c     -3.2992 *    -1.2689 *    -1.2689    0.0000     2          
    10  O     c      3.0454 *     2.5378 *    -0.0000 *  0.0000     4          
    11  Zr    c     -0.7614 *    -3.8068 *    -1.2689 *  0.0000     4          
    12  O     c     -2.0303 *     2.5378 *     2.5378    0.0000     2          
    13  O     c     -2.0303 *    -2.5378 *     2.5378    0.0000     2          
    14  Zr    c      1.7765 *    -3.8068 *     1.2689 *  0.0000     4          
    15  O     c     -4.5681 *    -0.0000      -0.0000    0.0000     1          
    16  Zr    c      4.3143 *     1.2689 *    -1.2689    0.0000     2          
    17  O     c      3.0454 *     2.5378 *     2.5378    0.0000     2          
    18  O     c      3.0454 *     2.5378 *    -2.5378    0.0000     2          
    19  O     c      0.5076 *    -0.0000 *     5.0757 *  0.0000     4          
    20  Zr    c     -3.2992 *    -3.8068 *     1.2689 *  0.0000     4          
    21  O     c     -4.5681 *     0.0000 *     2.5378 *  0.0000     4          
    22  Zr    c     -0.7614 *    -3.8068 *     3.8068    0.0000     2          
    23  O     c     -2.0303 *    -5.0757 *     0.0000 *  0.0000     4          
    24  O     c      5.5833 *    -0.0000      -0.0000    0.0000     1          
    25  Zr    c      1.7765 *     3.8068 *     3.8068    0.0000     2          
    26  O     c      0.5076 *    -5.0757 *     2.5378 *  0.0000     4          
    27  O     c      0.5076 *     5.0757 *     2.5378 *  0.0000     4          
    28  O     c     -4.5681 *     2.5378 *     2.5378    0.0000     2          
    29  O     c     -4.5681 *    -2.5378 *     2.5378    0.0000     2          
    30  Zr    c      4.3143 *     3.8068 *     1.2689 *  0.0000     4          
    31  O     c      3.0454 *     5.0757 *     0.0000 *  0.0000     4          
    32  O     c     -2.0303 *     2.5378 *     5.0757 *  0.0000     4          
    33  O     c     -2.0303 *    -2.5378 *     5.0757 *  0.0000     4          
    34  Zr    c     -5.8370 *    -1.2689 *     1.2689    0.0000     2          
    35  O     c      5.5833 *     2.5378 *     0.0000 *  0.0000     4          
    36  Zr    c     -3.2992 *     3.8068 *     3.8068    0.0000     2          
    37  O     c      3.0454 *     5.0757 *     2.5378 *  0.0000     4          
    38  O     c      3.0454 *    -2.5378 *     5.0757 *  0.0000     4          
    39  Zr    c     -0.7614 *     1.2689 *    -6.3446 *  0.0000     4          
    40  O     c      5.5833 *     2.5378 *     2.5378    0.0000     2          
    41  O     c      5.5833 *     2.5378 *    -2.5378    0.0000     2          
    42  Zr    c      1.7765 *     6.3446 *     1.2689 *  0.0000     4          
    43  O     c     -4.5681 *    -0.0000 *     5.0757 *  0.0000     4          
    44  Zr    c      4.3143 *    -3.8068 *     3.8068    0.0000     2          
    45  Zr    c      6.8522 *    -1.2689 *    -1.2689    0.0000     2          
    46  Zr    c     -5.8370 *     1.2689 *     3.8068 *  0.0000     4          
    47  O     c     -7.1060 *     0.0000       0.0000    0.0000     1          
    48  O     c      0.5076 *     5.0757 *     5.0757    0.0000     2          
    49  O     c      0.5076 *    -5.0757 *     5.0757    0.0000     2          
    50  Zr    c     -3.2992 *     6.3446 *     1.2689 *  0.0000     4          
    51  O     c     -4.5681 *    -5.0757 *    -2.5378 *  0.0000     4          
    52  O     c     -4.5681 *    -5.0757 *     2.5378 *  0.0000     4          
    53  Zr    c     -0.7614 *     3.8068 *     6.3446 *  0.0000     4          
    54  O     c     -2.0303 *    -5.0757 *     5.0757    0.0000     2          
    55  O     c     -2.0303 *     5.0757 *     5.0757    0.0000     2          
    56  O     c      5.5833 *     5.0757 *    -0.0000 *  0.0000     4          
    57  O     c     -7.1060 *    -0.0000 *     2.5378 *  0.0000     4          
    58  Zr    c      1.7765 *    -6.3446 *     3.8068 *  0.0000     4          
    59  O     c      0.5076 *     0.0000 *     7.6135 *  0.0000     4          
    60  Zr    c      4.3143 *    -1.2689 *     6.3446 *  0.0000     4          
    61  O     c      3.0454 *    -5.0757 *    -5.0757    0.0000     2          
    62  O     c      3.0454 *     5.0757 *    -5.0757    0.0000     2          
    63  O     c     -2.0303 *     7.6135 *    -0.0000 *  0.0000     4          
    64  Zr    c      6.8522 *     3.8068 *    -1.2689 *  0.0000     4          
    65  Zr    c     -5.8370 *    -3.8068 *     3.8068    0.0000     2          
    66  O     c      5.5833 *     2.5378 *     5.0757 *  0.0000     4          
    67  O     c      5.5833 *     2.5378 *    -5.0757 *  0.0000     4          
    68  O     c     -7.1060 *     2.5378 *     2.5378    0.0000     2          
    69  O     c     -7.1060 *    -2.5378 *     2.5378    0.0000     2          
    70  O     c      0.5076 *     2.5378 *     7.6135 *  0.0000     4          
    71  O     c      0.5076 *    -2.5378 *     7.6135 *  0.0000     4          
    72  Zr    c     -3.2992 *    -6.3446 *     3.8068 *  0.0000     4          
    73  O     c      8.1211 *     0.0000       0.0000    0.0000     1          
    74  O     c      3.0454 *    -0.0000 *     7.6135 *  0.0000     4          
    75  O     c     -2.0303 *    -7.6135 *     2.5378 *  0.0000     4          
    76  O     c     -2.0303 *     2.5378 *     7.6135 *  0.0000     4          
    77  O     c     -4.5681 *     5.0757 *     5.0757    0.0000     2          
    78  O     c      8.1211 *     2.5378 *    -0.0000 *  0.0000     4          
    79  O     c     -4.5681 *    -5.0757 *     5.0757    0.0000     2          
    80  Zr    c      4.3143 *     6.3446 *     3.8068 *  0.0000     4          
    81  Zr    c     -8.3749 *    -1.2689 *    -1.2689    0.0000     2          
    82  O     c      3.0454 *     7.6135 *    -2.5378 *  0.0000     4          
    83  O     c      3.0454 *     7.6135 *     2.5378 *  0.0000     4          
    84  Zr    c     -5.8370 *    -6.3446 *     1.2689 *  0.0000     4          
    85  Zr    c      6.8522 *     3.8068 *     3.8068    0.0000     2          
    86  O     c     -7.1060 *    -5.0757 *     0.0000 *  0.0000     4          
    87  O     c     -4.5681 *    -7.6135 *     0.0000 *  0.0000     4          
    88  O     c      8.1211 *     2.5378 *     2.5378    0.0000     2          
    89  O     c      8.1211 *     2.5378 *    -2.5378    0.0000     2          
    90  Zr    c     -0.7614 *    -6.3446 *     6.3446    0.0000     2          
    91  Zr    c     -0.7614 *     8.8824 *     1.2689 *  0.0000     4          
    92  O     c      5.5833 *     5.0757 *     5.0757    0.0000     2          
    93  O     c     -7.1060 *     2.5378 *     5.0757 *  0.0000     4          
    94  O     c      5.5833 *    -5.0757 *     5.0757    0.0000     2          
    95  O     c     -7.1060 *     5.0757 *    -2.5378 *  0.0000     4          
    96  Zr    c      1.7765 *     6.3446 *     6.3446    0.0000     2          
    97  Zr    c      1.7765 *     8.8824 *    -1.2689 *  0.0000     4          
    98  O     c      0.5076 *     5.0757 *     7.6135 *  0.0000     4          
    99  O     c      0.5076 *    -7.6135 *     5.0757 *  0.0000     4          
   100  O     c     -4.5681 *    -2.5378 *     7.6135 *  0.0000     4          
   101  O     c     -4.5681 *     2.5378 *     7.6135 *  0.0000     4          
   102  Zr    c     -8.3749 *    -1.2689 *     3.8068 *  0.0000     4          
   103  O     c     -2.0303 *     5.0757 *     7.6135 *  0.0000     4          
   104  O     c     -2.0303 *    -5.0757 *     7.6135 *  0.0000     4          
   105  Zr    c      6.8522 *    -1.2689 *    -6.3446 *  0.0000     4          
   106  Zr    c     -5.8370 *    -6.3446 *    -3.8068 *  0.0000     4          
   107  O     c      5.5833 *     7.6135 *     0.0000 *  0.0000     4          
   108  Zr    c     -3.2992 *     6.3446 *     6.3446    0.0000     2          
   109  Zr    c      9.3900 *     1.2689 *    -1.2689    0.0000     2          
   110  Zr    c     -3.2992 *    -8.8824 *     1.2689 *  0.0000     4          
   111  O     c      8.1211 *     0.0000 *    -5.0757 *  0.0000     4          
   112  O     c      3.0454 *     7.6135 *     5.0757 *  0.0000     4          
   113  O     c      3.0454 *    -5.0757 *     7.6135 *  0.0000     4          
   114  O     c     -9.6438 *    -0.0000      -0.0000    0.0000     1          
   115  Zr    c     -0.7614 *    -8.8824 *     3.8068 *  0.0000     4          
   116  O     c      5.5833 *    -2.5378 *     7.6135 *  0.0000     4          
   117  O     c      5.5833 *     7.6135 *     2.5378 *  0.0000     4          
   118  Zr    c      1.7765 *     3.8068 *     8.8824 *  0.0000     4          
   119  O     c      8.1211 *     5.0757 *     2.5378 *  0.0000     4          
   120  O     c      8.1211 *     5.0757 *    -2.5378 *  0.0000     4          
   121  Zr    c      4.3143 *    -6.3446 *     6.3446    0.0000     2          
   122  Zr    c      4.3143 *     8.8824 *     1.2689 *  0.0000     4          
   123  Zr    c     -8.3749 *    -3.8068 *    -3.8068    0.0000     2          
   124  O     c     -9.6438 *    -2.5378 *     0.0000 *  0.0000     4          
   125  Zr    c      6.8522 *    -3.8068 *     6.3446 *  0.0000     4          
   126  O     c     -7.1060 *    -5.0757 *    -5.0757    0.0000     2          
   127  O     c     -7.1060 *    -5.0757 *     5.0757    0.0000     2          
   128  O     c      0.5076 *    -0.0000 *    10.1514 *  0.0000     4          
   129  Zr    c      9.3900 *     3.8068 *     1.2689 *  0.0000     4          
   130  Zr    c     -3.2992 *     3.8068 *     8.8824 *  0.0000     4          
   131  O     c     -4.5681 *     7.6135 *     5.0757 *  0.0000     4          
   132  O     c     -4.5681 *    -7.6135 *     5.0757 *  0.0000     4          
   133  O     c     -9.6438 *    -2.5378 *    -2.5378    0.0000     2          
   134  O     c     -9.6438 *    -2.5378 *     2.5378    0.0000     2          
   135  O     c     -2.0303 *    -0.0000 *    10.1514 *  0.0000     4          
   136  O     c     -7.1060 *    -0.0000 *     7.6135 *  0.0000     4          
   137  O     c      0.5076 *    -2.5378 *    10.1514 *  0.0000     4          
   138  O     c      0.5076 *     2.5378 *    10.1514 *  0.0000     4          
   139  Zr    c      4.3143 *     8.8824 *    -3.8068 *  0.0000     4          
   140  Zr    c     -8.3749 *    -1.2689 *    -6.3446 *  0.0000     4          
   141  O     c      3.0454 *     0.0000 *    10.1514 *  0.0000     4          
   142  O     c     -2.0303 *    10.1514 *    -2.5378 *  0.0000     4          
   143  O     c     -2.0303 *     2.5378 *    10.1514 *  0.0000     4          
   144  O     c     10.6589 *    -0.0000      -0.0000    0.0000     1          
   145  Zr    c     -5.8370 *    -6.3446 *     6.3446    0.0000     2          
   146  Zr    c     -5.8370 *     1.2689 *     8.8824 *  0.0000     4          
   147  O     c      5.5833 *    -5.0757 *    -7.6135 *  0.0000     4          
   148  O     c      5.5833 *    -5.0757 *     7.6135 *  0.0000     4          
   149  O     c     -7.1060 *    -2.5378 *    -7.6135 *  0.0000     4          
   150  O     c     -7.1060 *     2.5378 *    -7.6135 *  0.0000     4          
   151  O     c      0.5076 *     7.6135 *     7.6135    0.0000     2          
   152  O     c      0.5076 *    -7.6135 *     7.6135    0.0000     2          
   153  Zr    c      9.3900 *     3.8068 *    -3.8068    0.0000     2          
   154  O     c      8.1211 *    -5.0757 *    -5.0757    0.0000     2          
   155  O     c      8.1211 *     5.0757 *    -5.0757    0.0000     2          
   156  O     c      3.0454 *    -2.5378 *    10.1514 *  0.0000     4          
   157  O     c      3.0454 *     2.5378 *    10.1514 *  0.0000     4          
   158  O     c     -9.6438 *    -0.0000 *     5.0757 *  0.0000     4          
   159  Zr    c     -0.7614 *     6.3446 *     8.8824 *  0.0000     4          
   160  O     c     -2.0303 *    -7.6135 *     7.6135    0.0000     2          
   161  O     c     -2.0303 *     7.6135 *     7.6135    0.0000     2          
   162  O     c     10.6589 *     2.5378 *     0.0000 *  0.0000     4          
   163  Zr    c      1.7765 *    -8.8824 *     6.3446 *  0.0000     4          
   164  Zr    c    -10.9127 *    -1.2689 *     1.2689    0.0000     2          
   165  O     c      8.1211 *     7.6135 *    -0.0000 *  0.0000     4          
   166  O     c     -4.5681 *    -0.0000 *    10.1514 *  0.0000     4          
   167  Zr    c     -8.3749 *    -6.3446 *     3.8068 *  0.0000     4          
   168  O     c      3.0454 *     7.6135 *     7.6135    0.0000     2          
   169  O     c      3.0454 *    -7.6135 *     7.6135    0.0000     2          
   170  O     c     -9.6438 *    -2.5378 *    -5.0757 *  0.0000     4          
   171  O     c     -9.6438 *     2.5378 *    -5.0757 *  0.0000     4          
   172  O     c     10.6589 *     2.5378 *     2.5378    0.0000     2          
   173  O     c     10.6589 *     2.5378 *    -2.5378    0.0000     2          
   174  Zr    c      6.8522 *    -1.2689 *     8.8824 *  0.0000     4          
   175  Zr    c      6.8522 *     6.3446 *     6.3446    0.0000     2          
   176  Zr    c     -5.8370 *    -8.8824 *     3.8068 *  0.0000     4          
   177  O     c      0.5076 *    -5.0757 *    10.1514 *  0.0000     4          
   178  O     c      0.5076 *     5.0757 *    10.1514 *  0.0000     4          
   179  Zr    c      9.3900 *     6.3446 *    -1.2689 *  0.0000     4          
   180  Zr    c     -3.2992 *    -8.8824 *     6.3446 *  0.0000     4          
   181  O     c      8.1211 *    -7.6135 *    -2.5378 *  0.0000     4          
   182  O     c      8.1211 *     7.6135 *    -2.5378 *  0.0000     4          
   183  O     c     -4.5681 *   -10.1514 *     2.5378 *  0.0000     4          
   184  O     c     -4.5681 *     2.5378 *    10.1514 *  0.0000     4          
   185  Zr    c     -0.7614 *    -1.2689 *    11.4203 *  0.0000     4          
   186  O     c     -2.0303 *   -10.1514 *     5.0757 *  0.0000     4          
   187  O     c     -2.0303 *     5.0757 *    10.1514 *  0.0000     4          
   188  O     c      5.5833 *    -0.0000 *    10.1514 *  0.0000     4          
   189  O     c     -7.1060 *    -5.0757 *     7.6135 *  0.0000     4          
   190  O     c     -7.1060 *     5.0757 *     7.6135 *  0.0000     4          
   191  Zr    c      1.7765 *     1.2689 *    11.4203 *  0.0000     4          
   192  Zr    c    -10.9127 *    -1.2689 *    -3.8068 *  0.0000     4          
   193  O     c     -4.5681 *     7.6135 *     7.6135    0.0000     2          
   194  O     c     -4.5681 *    -7.6135 *     7.6135    0.0000     2          
   195  Zr    c      4.3143 *     8.8824 *     6.3446 *  0.0000     4          
   196  O     c      3.0454 *    -5.0757 *    10.1514 *  0.0000     4          
   197  O     c      3.0454 *    10.1514 *     5.0757 *  0.0000     4          
   198  O     c     10.6589 *     5.0757 *    -0.0000 *  0.0000     4          
   199  Zr    c      6.8522 *     8.8824 *     3.8068 *  0.0000     4          
   200  O     c      5.5833 *    -2.5378 *    10.1514 *  0.0000     4          
   201  O     c      5.5833 *    10.1514 *     2.5378 *  0.0000     4          
   202  Zr    c      9.3900 *     6.3446 *     3.8068 *  0.0000     4          
   203  Zr    c     -3.2992 *     1.2689 *    11.4203 *  0.0000     4          
   204  O     s      0.0000       0.0000       0.0000    0.0000     1    Defect
   205  Zr    s     -0.7614 *    -1.2689 *     1.2689    0.0000     2          
   206  Zr    s      1.7765 *    -1.2689 *    -1.2689    0.0000     2          
   207  O     s      0.5076 *     2.5378 *     0.0000 *  0.0000     4          
   208  O     s      3.0454 *     0.0000       0.0000    0.0000     1          
   209  O     s     -2.0303 *    -0.0000 *     2.5378 *  0.0000     4          
   210  O     s      0.5076 *     2.5378 *     2.5378    0.0000     2          
   211  O     s      0.5076 *    -2.5378 *     2.5378    0.0000     2          
   212  Zr    s     -3.2992 *    -1.2689 *    -1.2689    0.0000     2          
   213  O     s      3.0454 *     2.5378 *    -0.0000 *  0.0000     4          
   214  Zr    s     -0.7614 *    -3.8068 *    -1.2689 *  0.0000     4          
   215  O     s     -2.0303 *     2.5378 *     2.5378    0.0000     2          
   216  O     s     -2.0303 *    -2.5378 *     2.5378    0.0000     2          
   217  Zr    s      1.7765 *    -3.8068 *     1.2689 *  0.0000     4          
   218  O     s     -4.5681 *    -0.0000      -0.0000    0.0000     1          
   219  Zr    s      4.3143 *     1.2689 *    -1.2689    0.0000     2          
   220  O     s      3.0454 *     2.5378 *     2.5378    0.0000     2          
   221  O     s      3.0454 *     2.5378 *    -2.5378    0.0000     2          
   222  O     s      0.5076 *    -0.0000 *     5.0757 *  0.0000     4          
   223  Zr    s     -3.2992 *    -3.8068 *     1.2689 *  0.0000     4          
   224  O     s     -4.5681 *     0.0000 *     2.5378 *  0.0000     4          
   225  Zr    s     -0.7614 *    -3.8068 *     3.8068    0.0000     2          
   226  O     s     -2.0303 *    -5.0757 *     0.0000 *  0.0000     4          
   227  O     s      5.5833 *    -0.0000      -0.0000    0.0000     1          
   228  Zr    s      1.7765 *     3.8068 *     3.8068    0.0000     2          
   229  O     s      0.5076 *    -5.0757 *     2.5378 *  0.0000     4          
   230  O     s      0.5076 *     5.0757 *     2.5378 *  0.0000     4          
   231  O     s     -4.5681 *     2.5378 *     2.5378    0.0000     2          
   232  O     s     -4.5681 *    -2.5378 *     2.5378    0.0000     2          
   233  Zr    s      4.3143 *     3.8068 *     1.2689 *  0.0000     4          
   234  O     s      3.0454 *     5.0757 *     0.0000 *  0.0000     4          
   235  O     s     -2.0303 *     2.5378 *     5.0757 *  0.0000     4          
   236  O     s     -2.0303 *    -2.5378 *     5.0757 *  0.0000     4          
   237  Zr    s     -5.8370 *    -1.2689 *     1.2689    0.0000     2          
   238  O     s      5.5833 *     2.5378 *     0.0000 *  0.0000     4          
   239  Zr    s     -3.2992 *     3.8068 *     3.8068    0.0000     2          
   240  O     s      3.0454 *     5.0757 *     2.5378 *  0.0000     4          
   241  O     s      3.0454 *    -2.5378 *     5.0757 *  0.0000     4          
   242  Zr    s     -0.7614 *     1.2689 *    -6.3446 *  0.0000     4          
   243  O     s      5.5833 *     2.5378 *     2.5378    0.0000     2          
   244  O     s      5.5833 *     2.5378 *    -2.5378    0.0000     2          
   245  Zr    s      1.7765 *     6.3446 *     1.2689 *  0.0000     4          
   246  O     s     -4.5681 *    -0.0000 *     5.0757 *  0.0000     4          
   247  Zr    s      4.3143 *    -3.8068 *     3.8068    0.0000     2          
   248  Zr    s      6.8522 *    -1.2689 *    -1.2689    0.0000     2          
   249  Zr    s     -5.8370 *     1.2689 *     3.8068 *  0.0000     4          
   250  O     s     -7.1060 *     0.0000       0.0000    0.0000     1          
   251  O     s      0.5076 *     5.0757 *     5.0757    0.0000     2          
   252  O     s      0.5076 *    -5.0757 *     5.0757    0.0000     2          
   253  Zr    s     -3.2992 *     6.3446 *     1.2689 *  0.0000     4          
   254  O     s     -4.5681 *    -5.0757 *    -2.5378 *  0.0000     4          
   255  O     s     -4.5681 *    -5.0757 *     2.5378 *  0.0000     4          
   256  Zr    s     -0.7614 *     3.8068 *     6.3446 *  0.0000     4          
   257  O     s     -2.0303 *    -5.0757 *     5.0757    0.0000     2          
   258  O     s     -2.0303 *     5.0757 *     5.0757    0.0000     2          
   259  O     s      5.5833 *     5.0757 *    -0.0000 *  0.0000     4          
   260  O     s     -7.1060 *    -0.0000 *     2.5378 *  0.0000     4          
   261  Zr    s      1.7765 *    -6.3446 *     3.8068 *  0.0000     4          
   262  O     s      0.5076 *     0.0000 *     7.6135 *  0.0000     4          
   263  Zr    s      4.3143 *    -1.2689 *     6.3446 *  0.0000     4          
   264  O     s      3.0454 *    -5.0757 *    -5.0757    0.0000     2          
   265  O     s      3.0454 *     5.0757 *    -5.0757    0.0000     2          
   266  O     s     -2.0303 *     7.6135 *    -0.0000 *  0.0000     4          
   267  Zr    s      6.8522 *     3.8068 *    -1.2689 *  0.0000     4          
   268  Zr    s     -5.8370 *    -3.8068 *     3.8068    0.0000     2          
   269  O     s      5.5833 *     2.5378 *     5.0757 *  0.0000     4          
   270  O     s      5.5833 *     2.5378 *    -5.0757 *  0.0000     4          
   271  O     s     -7.1060 *     2.5378 *     2.5378    0.0000     2          
   272  O     s     -7.1060 *    -2.5378 *     2.5378    0.0000     2          
   273  O     s      0.5076 *     2.5378 *     7.6135 *  0.0000     4          
   274  O     s      0.5076 *    -2.5378 *     7.6135 *  0.0000     4          
   275  Zr    s     -3.2992 *    -6.3446 *     3.8068 *  0.0000     4          
   276  O     s      8.1211 *     0.0000       0.0000    0.0000     1          
   277  O     s      3.0454 *    -0.0000 *     7.6135 *  0.0000     4          
   278  O     s     -2.0303 *    -7.6135 *     2.5378 *  0.0000     4          
   279  O     s     -2.0303 *     2.5378 *     7.6135 *  0.0000     4          
   280  O     s     -4.5681 *     5.0757 *     5.0757    0.0000     2          
   281  O     s      8.1211 *     2.5378 *    -0.0000 *  0.0000     4          
   282  O     s     -4.5681 *    -5.0757 *     5.0757    0.0000     2          
   283  Zr    s      4.3143 *     6.3446 *     3.8068 *  0.0000     4          
   284  Zr    s     -8.3749 *    -1.2689 *    -1.2689    0.0000     2          
   285  O     s      3.0454 *     7.6135 *    -2.5378 *  0.0000     4          
   286  O     s      3.0454 *     7.6135 *     2.5378 *  0.0000     4          
   287  Zr    s     -5.8370 *    -6.3446 *     1.2689 *  0.0000     4          
   288  Zr    s      6.8522 *     3.8068 *     3.8068    0.0000     2          
   289  O     s     -7.1060 *    -5.0757 *     0.0000 *  0.0000     4          
   290  O     s     -4.5681 *    -7.6135 *     0.0000 *  0.0000     4          
   291  O     s      8.1211 *     2.5378 *     2.5378    0.0000     2          
   292  O     s      8.1211 *     2.5378 *    -2.5378    0.0000     2          
   293  Zr    s     -0.7614 *    -6.3446 *     6.3446    0.0000     2          
   294  Zr    s     -0.7614 *     8.8824 *     1.2689 *  0.0000     4          
   295  O     s      5.5833 *     5.0757 *     5.0757    0.0000     2          
   296  O     s     -7.1060 *     2.5378 *     5.0757 *  0.0000     4          
   297  O     s      5.5833 *    -5.0757 *     5.0757    0.0000     2          
   298  O     s     -7.1060 *     5.0757 *    -2.5378 *  0.0000     4          
   299  Zr    s      1.7765 *     6.3446 *     6.3446    0.0000     2          
   300  Zr    s      1.7765 *     8.8824 *    -1.2689 *  0.0000     4          
   301  O     s      0.5076 *     5.0757 *     7.6135 *  0.0000     4          
   302  O     s      0.5076 *    -7.6135 *     5.0757 *  0.0000     4          
   303  O     s     -4.5681 *    -2.5378 *     7.6135 *  0.0000     4          
   304  O     s     -4.5681 *     2.5378 *     7.6135 *  0.0000     4          
   305  Zr    s     -8.3749 *    -1.2689 *     3.8068 *  0.0000     4          
   306  O     s     -2.0303 *     5.0757 *     7.6135 *  0.0000     4          
   307  O     s     -2.0303 *    -5.0757 *     7.6135 *  0.0000     4          
   308  Zr    s      6.8522 *    -1.2689 *    -6.3446 *  0.0000     4          
   309  Zr    s     -5.8370 *    -6.3446 *    -3.8068 *  0.0000     4          
   310  O     s      5.5833 *     7.6135 *     0.0000 *  0.0000     4          
   311  Zr    s     -3.2992 *     6.3446 *     6.3446    0.0000     2          
   312  Zr    s      9.3900 *     1.2689 *    -1.2689    0.0000     2          
   313  Zr    s     -3.2992 *    -8.8824 *     1.2689 *  0.0000     4          
   314  O     s      8.1211 *     0.0000 *    -5.0757 *  0.0000     4          
   315  O     s      3.0454 *     7.6135 *     5.0757 *  0.0000     4          
   316  O     s      3.0454 *    -5.0757 *     7.6135 *  0.0000     4          
   317  O     s     -9.6438 *    -0.0000      -0.0000    0.0000     1          
   318  Zr    s     -0.7614 *    -8.8824 *     3.8068 *  0.0000     4          
   319  O     s      5.5833 *    -2.5378 *     7.6135 *  0.0000     4          
   320  O     s      5.5833 *     7.6135 *     2.5378 *  0.0000     4          
   321  Zr    s      1.7765 *     3.8068 *     8.8824 *  0.0000     4          
   322  O     s      8.1211 *     5.0757 *     2.5378 *  0.0000     4          
   323  O     s      8.1211 *     5.0757 *    -2.5378 *  0.0000     4          
   324  Zr    s      4.3143 *    -6.3446 *     6.3446    0.0000     2          
   325  Zr    s      4.3143 *     8.8824 *     1.2689 *  0.0000     4          
   326  Zr    s     -8.3749 *    -3.8068 *    -3.8068    0.0000     2          
   327  O     s     -9.6438 *    -2.5378 *     0.0000 *  0.0000     4          
   328  Zr    s      6.8522 *    -3.8068 *     6.3446 *  0.0000     4          
   329  O     s     -7.1060 *    -5.0757 *    -5.0757    0.0000     2          
   330  O     s     -7.1060 *    -5.0757 *     5.0757    0.0000     2          
   331  O     s      0.5076 *    -0.0000 *    10.1514 *  0.0000     4          
   332  Zr    s      9.3900 *     3.8068 *     1.2689 *  0.0000     4          
   333  Zr    s     -3.2992 *     3.8068 *     8.8824 *  0.0000     4          
   334  O     s     -4.5681 *     7.6135 *     5.0757 *  0.0000     4          
   335  O     s     -4.5681 *    -7.6135 *     5.0757 *  0.0000     4          
   336  O     s     -9.6438 *    -2.5378 *    -2.5378    0.0000     2          
   337  O     s     -9.6438 *    -2.5378 *     2.5378    0.0000     2          
   338  O     s     -2.0303 *    -0.0000 *    10.1514 *  0.0000     4          
   339  O     s     -7.1060 *    -0.0000 *     7.6135 *  0.0000     4          
   340  O     s      0.5076 *    -2.5378 *    10.1514 *  0.0000     4          
   341  O     s      0.5076 *     2.5378 *    10.1514 *  0.0000     4          
   342  Zr    s      4.3143 *     8.8824 *    -3.8068 *  0.0000     4          
   343  Zr    s     -8.3749 *    -1.2689 *    -6.3446 *  0.0000     4          
   344  O     s      3.0454 *     0.0000 *    10.1514 *  0.0000     4          
   345  O     s     -2.0303 *    10.1514 *    -2.5378 *  0.0000     4          
   346  O     s     -2.0303 *     2.5378 *    10.1514 *  0.0000     4          
   347  O     s     10.6589 *    -0.0000      -0.0000    0.0000     1          
   348  Zr    s     -5.8370 *    -6.3446 *     6.3446    0.0000     2          
   349  Zr    s     -5.8370 *     1.2689 *     8.8824 *  0.0000     4          
   350  O     s      5.5833 *    -5.0757 *    -7.6135 *  0.0000     4          
   351  O     s      5.5833 *    -5.0757 *     7.6135 *  0.0000     4          
   352  O     s     -7.1060 *    -2.5378 *    -7.6135 *  0.0000     4          
   353  O     s     -7.1060 *     2.5378 *    -7.6135 *  0.0000     4          
   354  O     s      0.5076 *     7.6135 *     7.6135    0.0000     2          
   355  O     s      0.5076 *    -7.6135 *     7.6135    0.0000     2          
   356  Zr    s      9.3900 *     3.8068 *    -3.8068    0.0000     2          
   357  O     s      8.1211 *    -5.0757 *    -5.0757    0.0000     2          
   358  O     s      8.1211 *     5.0757 *    -5.0757    0.0000     2          
   359  O     s      3.0454 *    -2.5378 *    10.1514 *  0.0000     4          
   360  O     s      3.0454 *     2.5378 *    10.1514 *  0.0000     4          
   361  O     s     -9.6438 *    -0.0000 *     5.0757 *  0.0000     4          
   362  Zr    s     -0.7614 *     6.3446 *     8.8824 *  0.0000     4          
   363  O     s     -2.0303 *    -7.6135 *     7.6135    0.0000     2          
   364  O     s     -2.0303 *     7.6135 *     7.6135    0.0000     2          
   365  O     s     10.6589 *     2.5378 *     0.0000 *  0.0000     4          
   366  Zr    s      1.7765 *    -8.8824 *     6.3446 *  0.0000     4          
   367  Zr    s    -10.9127 *    -1.2689 *     1.2689    0.0000     2          
   368  O     s      8.1211 *     7.6135 *    -0.0000 *  0.0000     4          
   369  O     s     -4.5681 *    -0.0000 *    10.1514 *  0.0000     4          
   370  Zr    s     -8.3749 *    -6.3446 *     3.8068 *  0.0000     4          
   371  O     s      3.0454 *     7.6135 *     7.6135    0.0000     2          
   372  O     s      3.0454 *    -7.6135 *     7.6135    0.0000     2          
   373  O     s     -9.6438 *    -2.5378 *    -5.0757 *  0.0000     4          
   374  O     s     -9.6438 *     2.5378 *    -5.0757 *  0.0000     4          
   375  O     s     10.6589 *     2.5378 *     2.5378    0.0000     2          
   376  O     s     10.6589 *     2.5378 *    -2.5378    0.0000     2          
   377  Zr    s      6.8522 *    -1.2689 *     8.8824 *  0.0000     4          
   378  Zr    s      6.8522 *     6.3446 *     6.3446    0.0000     2          
   379  Zr    s     -5.8370 *    -8.8824 *     3.8068 *  0.0000     4          
   380  O     s      0.5076 *    -5.0757 *    10.1514 *  0.0000     4          
   381  O     s      0.5076 *     5.0757 *    10.1514 *  0.0000     4          
   382  Zr    s      9.3900 *     6.3446 *    -1.2689 *  0.0000     4          
   383  Zr    s     -3.2992 *    -8.8824 *     6.3446 *  0.0000     4          
   384  O     s      8.1211 *    -7.6135 *    -2.5378 *  0.0000     4          
   385  O     s      8.1211 *     7.6135 *    -2.5378 *  0.0000     4          
   386  O     s     -4.5681 *   -10.1514 *     2.5378 *  0.0000     4          
   387  O     s     -4.5681 *     2.5378 *    10.1514 *  0.0000     4          
   388  Zr    s     -0.7614 *    -1.2689 *    11.4203 *  0.0000     4          
   389  O     s     -2.0303 *   -10.1514 *     5.0757 *  0.0000     4          
   390  O     s     -2.0303 *     5.0757 *    10.1514 *  0.0000     4          
   391  O     s      5.5833 *    -0.0000 *    10.1514 *  0.0000     4          
   392  O     s     -7.1060 *    -5.0757 *     7.6135 *  0.0000     4          
   393  O     s     -7.1060 *     5.0757 *     7.6135 *  0.0000     4          
   394  Zr    s      1.7765 *     1.2689 *    11.4203 *  0.0000     4          
   395  Zr    s    -10.9127 *    -1.2689 *    -3.8068 *  0.0000     4          
   396  O     s     -4.5681 *     7.6135 *     7.6135    0.0000     2          
   397  O     s     -4.5681 *    -7.6135 *     7.6135    0.0000     2          
   398  Zr    s      4.3143 *     8.8824 *     6.3446 *  0.0000     4          
   399  O     s      3.0454 *    -5.0757 *    10.1514 *  0.0000     4          
   400  O     s      3.0454 *    10.1514 *     5.0757 *  0.0000     4          
   401  O     s     10.6589 *     5.0757 *    -0.0000 *  0.0000     4          
   402  Zr    s      6.8522 *     8.8824 *     3.8068 *  0.0000     4          
   403  O     s      5.5833 *    -2.5378 *    10.1514 *  0.0000     4          
   404  O     s      5.5833 *    10.1514 *     2.5378 *  0.0000     4          
   405  Zr    s      9.3900 *     6.3446 *     3.8068 *  0.0000     4          
   406  Zr    s     -3.2992 *     1.2689 *    11.4203 *  0.0000     4          
--------------------------------------------------------------------------------


  Constraints on symmetry reduced coordinates :

--------------------------------------------------------------------------------
  Constraint no.      Unconstrained     Constrained    Coefficient    
                         Variable         Variable
--------------------------------------------------------------------------------
           1                 2 y             2 z        -1.00000
           2                 3 y             3 z         1.00000
           3                 7 y             7 z         1.00000
           4                 8 y             8 z        -1.00000
           5                 9 y             9 z         1.00000
           6                12 y            12 z         1.00000
           7                13 y            13 z        -1.00000
           8                16 y            16 z        -1.00000
           9                17 y            17 z         1.00000
          10                18 y            18 z        -1.00000
          11                22 y            22 z        -1.00000
          12                25 y            25 z         1.00000
          13                28 y            28 z         1.00000
          14                29 y            29 z        -1.00000
          15                34 y            34 z        -1.00000
          16                36 y            36 z         1.00000
          17                40 y            40 z         1.00000
          18                41 y            41 z        -1.00000
          19                44 y            44 z        -1.00000
          20                45 y            45 z         1.00000
          21                48 y            48 z         1.00000
          22                49 y            49 z        -1.00000
          23                54 y            54 z        -1.00000
          24                55 y            55 z         1.00000
          25                61 y            61 z         1.00000
          26                62 y            62 z        -1.00000
          27                65 y            65 z        -1.00000
          28                68 y            68 z         1.00000
          29                69 y            69 z        -1.00000
          30                77 y            77 z         1.00000
          31                79 y            79 z        -1.00000
          32                81 y            81 z         1.00000
          33                85 y            85 z         1.00000
          34                88 y            88 z         1.00000
          35                89 y            89 z        -1.00000
          36                90 y            90 z        -1.00000
          37                92 y            92 z         1.00000
          38                94 y            94 z        -1.00000
          39                96 y            96 z         1.00000
          40               108 y           108 z         1.00000
          41               109 y           109 z        -1.00000
          42               121 y           121 z        -1.00000
          43               123 y           123 z         1.00000
          44               126 y           126 z         1.00000
          45               127 y           127 z        -1.00000
          46               133 y           133 z         1.00000
          47               134 y           134 z        -1.00000
          48               145 y           145 z        -1.00000
          49               151 y           151 z         1.00000
          50               152 y           152 z        -1.00000
          51               153 y           153 z        -1.00000
          52               154 y           154 z         1.00000
          53               155 y           155 z        -1.00000
          54               160 y           160 z        -1.00000
          55               161 y           161 z         1.00000
          56               164 y           164 z        -1.00000
          57               168 y           168 z         1.00000
          58               169 y           169 z        -1.00000
          59               172 y           172 z         1.00000
          60               173 y           173 z        -1.00000
          61               175 y           175 z         1.00000
          62               193 y           193 z         1.00000
          63               194 y           194 z        -1.00000
          64               205 y           205 z        -1.00000
          65               206 y           206 z         1.00000
          66               210 y           210 z         1.00000
          67               211 y           211 z        -1.00000
          68               212 y           212 z         1.00000
          69               215 y           215 z         1.00000
          70               216 y           216 z        -1.00000
          71               219 y           219 z        -1.00000
          72               220 y           220 z         1.00000
          73               221 y           221 z        -1.00000
          74               225 y           225 z        -1.00000
          75               228 y           228 z         1.00000
          76               231 y           231 z         1.00000
          77               232 y           232 z        -1.00000
          78               237 y           237 z        -1.00000
          79               239 y           239 z         1.00000
          80               243 y           243 z         1.00000
          81               244 y           244 z        -1.00000
          82               247 y           247 z        -1.00000
          83               248 y           248 z         1.00000
          84               251 y           251 z         1.00000
          85               252 y           252 z        -1.00000
          86               257 y           257 z        -1.00000
          87               258 y           258 z         1.00000
          88               264 y           264 z         1.00000
          89               265 y           265 z        -1.00000
          90               268 y           268 z        -1.00000
          91               271 y           271 z         1.00000
          92               272 y           272 z        -1.00000
          93               280 y           280 z         1.00000
          94               282 y           282 z        -1.00000
          95               284 y           284 z         1.00000
          96               288 y           288 z         1.00000
          97               291 y           291 z         1.00000
          98               292 y           292 z        -1.00000
          99               293 y           293 z        -1.00000
         100               295 y           295 z         1.00000
         101               297 y           297 z        -1.00000
         102               299 y           299 z         1.00000
         103               311 y           311 z         1.00000
         104               312 y           312 z        -1.00000
         105               324 y           324 z        -1.00000
         106               326 y           326 z         1.00000
         107               329 y           329 z         1.00000
         108               330 y           330 z        -1.00000
         109               336 y           336 z         1.00000
         110               337 y           337 z        -1.00000
         111               348 y           348 z        -1.00000
         112               354 y           354 z         1.00000
         113               355 y           355 z        -1.00000
         114               356 y           356 z        -1.00000
         115               357 y           357 z         1.00000
         116               358 y           358 z        -1.00000
         117               363 y           363 z        -1.00000
         118               364 y           364 z         1.00000
         119               367 y           367 z        -1.00000
         120               371 y           371 z         1.00000
         121               372 y           372 z        -1.00000
         122               375 y           375 z         1.00000
         123               376 y           376 z        -1.00000
         124               378 y           378 z         1.00000
         125               396 y           396 z         1.00000
         126               397 y           397 z        -1.00000
--------------------------------------------------------------------------------


  Components of defect energy : 

--------------------------------------------------------------------------------
  Region 1 - region 1                   =     45.63063442 eV
  Region 1 - region 2a (unrelaxed)      =    -13.32172721 eV
  Region 1 - 2a (relaxed - correction)  =     -2.36653470 eV
  Region 1 (Total)                      =     29.94237252 eV
  Region 2a                             =      1.18329675 eV
  Region 2b                             =     -1.15858832 eV
--------------------------------------------------------------------------------
  Total defect energy                   =     29.96708095 eV
--------------------------------------------------------------------------------

  Largest displacement in region 2 =   0.0061 Angstroms


  Number of variables =     1058

  Maximum number of calculations  =        1000
  Maximum Hessian update interval =          10
  Maximum step size               =   1.0000000
  Maximum parameter tolerance     =   0.0000100
  Maximum function  tolerance     =   0.0000100
  Maximum gradient  tolerance     =   0.0010000

  Symmetry adapted optimisation

  Symmetry to be used for second derivatives

  Newton-Raphson optimiser to be used

  BFGS hessian update to be used

  Lower half triangular hessian to be used

  Start of defect optimisation :

  Cycle:      0 Defect Energy:  29.967081  Gnorm:     0.085003  CPU:    4.805
  ** Hessian calculated **
  Cycle:      1 Defect Energy:  25.532565  Gnorm:     0.074188  CPU:   20.156
  Cycle:      2 Defect Energy:  16.153976  Gnorm:     0.023159  CPU:   31.496
  Cycle:      3 Defect Energy:  15.603281  Gnorm:     0.014191  CPU:   37.245
  ** Hessian calculated **
  Cycle:      4 Defect Energy:  14.833380  Gnorm:     0.007820  CPU:   48.542
  Cycle:      5 Defect Energy:  14.712794  Gnorm:     0.001656  CPU:   54.271
  Cycle:      6 Defect Energy:  14.704631  Gnorm:     0.001386  CPU:   55.820
  Cycle:      7 Defect Energy:  14.694886  Gnorm:     0.001120  CPU:   57.359
  Cycle:      8 Defect Energy:  14.686612  Gnorm:     0.000818  CPU:   58.888
  Cycle:      9 Defect Energy:  14.681724  Gnorm:     0.000622  CPU:   60.416
  Cycle:     10 Defect Energy:  14.678810  Gnorm:     0.000449  CPU:   61.943
  Cycle:     11 Defect Energy:  14.677102  Gnorm:     0.000340  CPU:   63.482
  Cycle:     12 Defect Energy:  14.676088  Gnorm:     0.000238  CPU:   65.009
  Cycle:     13 Defect Energy:  14.675461  Gnorm:     0.000180  CPU:   66.558
  ** Hessian calculated **
  Cycle:     14 Defect Energy:  14.675076  Gnorm:     0.000127  CPU:   73.668
  Cycle:     15 Defect Energy:  14.674911  Gnorm:     0.000090  CPU:   75.212
  Cycle:     16 Defect Energy:  14.674745  Gnorm:     0.000064  CPU:   76.752
  Cycle:     17 Defect Energy:  14.674694  Gnorm:     0.000045  CPU:   78.283
  Cycle:     18 Defect Energy:  14.674666  Gnorm:     0.000032  CPU:   79.815
  Cycle:     19 Defect Energy:  14.674649  Gnorm:     0.000022  CPU:   81.346
  Cycle:     20 Defect Energy:  14.674640  Gnorm:     0.000016  CPU:   82.877


  **** Optimisation achieved ****


  Final defect energy  =       14.67463395
  Final defect Gnorm   =        0.00001103

  Components of defect energy : 

--------------------------------------------------------------------------------
  Region 1 - region 1                   =     37.09855010 eV
  Region 1 - region 2a (unrelaxed)      =    -20.23082166 eV
  Region 1 - 2a (relaxed - correction)  =     -2.07440826 eV
  Region 1 (Total)                      =     14.79332018 eV
  Region 2a                             =      1.03700305 eV
  Region 2b                             =     -1.15568928 eV
--------------------------------------------------------------------------------
  Total defect energy                   =     14.67463395 eV
--------------------------------------------------------------------------------

  Largest displacement in region 2 =   0.0061 Angstroms

  Final coordinates of region 1 :

--------------------------------------------------------------------------------
   No.  Atomic        x           y           z          Radius      Charge
        Label       (Angs)      (Angs)      (Angs)       (Angs)       (e) 
--------------------------------------------------------------------------------
     1  O     c     3.299194    1.268921    1.268921    0.000000    0.077000
     2  Zr    c     2.583083   -0.044542    2.582384    0.000000    2.650000
     3  Zr    c     2.583083    2.582384   -0.044542    0.000000    2.650000
     4  Zr    c     5.099380   -0.031347   -0.031347    0.000000    2.650000
     5  Zr    c     5.099380    2.569188    2.569188    0.000000    2.650000
     6  O     c     3.855411    3.836624    1.235972    0.000000    0.077000
     7  O     c     3.855411    1.235972    3.836624    0.000000    0.077000
     8  O     c     3.855411    1.301870   -1.298782    0.000000    0.077000
     9  O     c     3.855411   -1.298782    1.301870    0.000000    0.077000
    10  O     c     5.992545    1.268921    1.268921    0.000000    0.077000
    11  O     c     1.259696    1.265114    3.425682    0.000000    0.077000
    12  O     c     1.259696    3.425682    1.265114    0.000000    0.077000
    13  O     c     1.259696    1.272728   -0.887840    0.000000    0.077000
    14  O     c     1.259696   -0.887840    1.272728    0.000000    0.077000
    15  O     c     3.764043    3.783833    3.783833    0.000000    0.077000
    16  O     c     3.764043   -1.245991   -1.245991    0.000000    0.077000
    17  O     c     3.803591   -1.291875    3.829716    0.000000    0.077000
    18  O     c     3.803591    3.829716   -1.291875    0.000000    0.077000
    19  Zr    c    -0.056689   -0.055063   -0.055063    0.000000    2.650000
    20  Zr    c    -0.056689    2.592904    2.592904    0.000000    2.650000
    21  O     c     6.402175    3.787414    1.294680    0.000000    0.077000
    22  O     c     6.402175    1.294680    3.787414    0.000000    0.077000
    23  O     c     6.402175    1.243162   -1.249572    0.000000    0.077000
    24  O     c     6.402175   -1.249572    1.243162    0.000000    0.077000
    25  Zr    c     2.562489   -2.564010   -0.030350    0.000000    2.650000
    26  Zr    c     2.562489   -0.030350   -2.564010    0.000000    2.650000
    27  Zr    c     2.562489    2.568192    5.101852    0.000000    2.650000
    28  Zr    c     2.562489    5.101852    2.568192    0.000000    2.650000
    29  O     c     1.223293    3.844402    3.844402    0.000000    0.077000
    30  O     c     1.223293   -1.306560   -1.306560    0.000000    0.077000
    31  O     c     1.277953   -1.311410    3.849252    0.000000    0.077000
    32  O     c     1.277953    3.849252   -1.311410    0.000000    0.077000
    33  Zr    c     5.093689   -2.559031    2.549820    0.000000    2.650000
    34  Zr    c     5.093689    2.549820   -2.559031    0.000000    2.650000
    35  Zr    c     5.093689   -0.011978    5.096873    0.000000    2.650000
    36  Zr    c     5.093689    5.096873   -0.011978    0.000000    2.650000
    37  O     c    -0.877041    1.268921    1.268921    0.000000    0.077000
    38  Zr    c     7.618015    2.556159   -0.018318    0.000000    2.650000
    39  Zr    c     7.618015   -0.018318    2.556159    0.000000    2.650000
    40  O     c     6.288983    3.816088    3.816088    0.000000    0.077000
    41  O     c     6.288983   -1.278246   -1.278246    0.000000    0.077000
    42  O     c     6.327748    3.792765   -1.254923    0.000000    0.077000
    43  O     c     6.327748   -1.254923    3.792765    0.000000    0.077000
    44  O     c     3.776587    1.287834    6.376842    0.000000    0.077000
    45  O     c     3.776587    6.376842    1.287834    0.000000    0.077000
    46  O     c     3.776587   -3.839000    1.250007    0.000000    0.077000
    47  O     c     3.776587    1.250007   -3.839000    0.000000    0.077000
    48  Zr    c    -0.027776   -2.557575    2.564147    0.000000    2.650000
    49  Zr    c    -0.027776    5.095417   -0.026306    0.000000    2.650000
    50  Zr    c    -0.027776    2.564147   -2.557575    0.000000    2.650000
    51  Zr    c    -0.027776   -0.026306    5.095417    0.000000    2.650000
    52  O     c    -1.311150    1.302570    3.842815    0.000000    0.077000
    53  O     c    -1.311150    3.842815    1.302570    0.000000    0.077000
    54  O     c    -1.311150   -1.304973    1.235272    0.000000    0.077000
    55  O     c    -1.311150    1.235272   -1.304973    0.000000    0.077000
    56  Zr    c     2.544625   -2.556824    5.094666    0.000000    2.650000
    57  Zr    c     2.544625    5.094666   -2.556824    0.000000    2.650000
    58  O     c     1.255948   -3.546229    1.263225    0.000000    0.077000
    59  O     c     1.255948    1.263225   -3.546229    0.000000    0.077000
    60  O     c     1.255948    1.274617    6.084071    0.000000    0.077000
    61  O     c     1.255948    6.084071    1.274617    0.000000    0.077000
    62  O     c     8.664765    1.268921    1.268921    0.000000    0.077000
    63  Zr    c     5.094557    5.095003    5.095003    0.000000    2.650000
    64  Zr    c     5.094557   -2.557161   -2.557161    0.000000    2.650000
    65  O     c     3.807527   -3.816136    3.794260    0.000000    0.077000
    66  O     c     3.807527    3.794260   -3.816136    0.000000    0.077000
    67  O     c     3.807527   -1.256418    6.353977    0.000000    0.077000
    68  O     c     3.807527    6.353977   -1.256418    0.000000    0.077000
    69  O     c     3.816403    6.309508    3.808451    0.000000    0.077000
    70  O     c     3.816403    3.808451    6.309508    0.000000    0.077000
    71  O     c     3.816403   -1.270609   -3.771666    0.000000    0.077000
    72  O     c     3.816403   -3.771666   -1.270609    0.000000    0.077000
    73  O     c    -1.296673    3.822204    3.822204    0.000000    0.077000
    74  O     c    -1.296673   -1.284363   -1.284363    0.000000    0.077000
    75  O     c    -1.264821   -1.242045    3.779887    0.000000    0.077000
    76  O     c    -1.264821    3.779887   -1.242045    0.000000    0.077000
    77  Zr    c     7.623770    5.084106    2.539656    0.000000    2.650000
    78  Zr    c     7.623770    2.539656    5.084106    0.000000    2.650000
    79  Zr    c     7.623770   -0.001814   -2.546265    0.000000    2.650000
    80  Zr    c     7.623770   -2.546265   -0.001814    0.000000    2.650000
    81  O     c     6.316496    6.330570    1.261975    0.000000    0.077000
    82  O     c     6.316496    1.275866   -3.792728    0.000000    0.077000
    83  O     c     6.316496    1.261975    6.330570    0.000000    0.077000
    84  O     c     6.316496   -3.792728    1.275866    0.000000    0.077000
    85  O     c     1.294771    3.792310    6.381024    0.000000    0.077000
    86  O     c     1.294771    6.381024    3.792310    0.000000    0.077000
    87  O     c     1.294771   -3.843182   -1.254468    0.000000    0.077000
    88  O     c     1.294771   -1.254468   -3.843182    0.000000    0.077000
    89  O     c     1.261335   -1.249638    6.384067    0.000000    0.077000
    90  O     c     1.261335    6.384067   -1.249638    0.000000    0.077000
    91  O     c     1.261335   -3.846225    3.787480    0.000000    0.077000
    92  O     c     1.261335    3.787480   -3.846225    0.000000    0.077000
    93  Zr    c    -2.564227   -0.029373    2.567215    0.000000    2.650000
    94  Zr    c    -2.564227    2.567215   -0.029373    0.000000    2.650000
    95  O     c     8.934456    3.804802    1.257164    0.000000    0.077000
    96  O     c     8.934456    1.257164    3.804802    0.000000    0.077000
    97  O     c     8.934456    1.280678   -1.266960    0.000000    0.077000
    98  O     c     8.934456   -1.266960    1.280678    0.000000    0.077000
    99  Zr    c    -0.008523    5.096849    5.096849    0.000000    2.650000
   100  Zr    c    -0.008523   -2.559007   -2.559007    0.000000    2.650000
   101  O     c     6.358037    6.354933    3.803678    0.000000    0.077000
   102  O     c     6.358037    3.803678    6.354933    0.000000    0.077000
[...]
    326 y         -2.537842     -2.543966    -0.006124    Cartesian    0.24
    326 z         -2.537842     -2.543966    -0.006124    Cartesian    0.24
    327 x         -6.344605     -6.365798    -0.021194    Cartesian    0.33
    327 y         -1.268921     -1.267346     0.001575    Cartesian   -0.12
    327 z          1.268921      1.266347    -0.002574    Cartesian   -0.20
    328 x         10.151367     10.156308     0.004940    Cartesian    0.05
    328 y         -2.537842     -2.537731     0.000110    Cartesian   -0.00
    328 z          7.613525      7.616506     0.002981    Cartesian    0.04
    329 x         -3.806763     -3.814196    -0.007434    Cartesian    0.20
    329 y         -3.806763     -3.806472     0.000291    Cartesian   -0.01
    329 z         -3.806763     -3.806472     0.000291    Cartesian   -0.01
    330 x         -3.806763     -3.807165    -0.000402    Cartesian    0.01
    330 y         -3.806763     -3.800471     0.006292    Cartesian   -0.17
    330 z          6.344605      6.338313    -0.006292    Cartesian   -0.10
    331 x          3.806763      3.803758    -0.003004    Cartesian   -0.08
    331 y          1.268921      1.271633     0.002713    Cartesian    0.21
    331 z         11.420288     11.434232     0.013943    Cartesian    0.12
    332 x         12.689209     12.690990     0.001781    Cartesian    0.01
    332 y          5.075684      5.076309     0.000625    Cartesian    0.01
    332 z          2.537842      2.535656    -0.002186    Cartesian   -0.09
    333 x          0.000000      0.002883     0.002883    Cartesian    0.00
    333 y          5.075684      5.074247    -0.001437    Cartesian   -0.03
    333 z         10.151367     10.156134     0.004767    Cartesian    0.05
    334 x         -1.268921     -1.268156     0.000765    Cartesian   -0.06
    334 y          8.882446      8.879103    -0.003343    Cartesian   -0.04
    334 z          6.344605      6.341614    -0.002991    Cartesian   -0.05
    335 x         -1.268921     -1.268633     0.000287    Cartesian   -0.02
    335 y         -6.344605     -6.349197    -0.004593    Cartesian    0.07
    335 z          6.344605      6.340988    -0.003617    Cartesian   -0.06
    336 x         -6.344605     -6.342320     0.002284    Cartesian   -0.04
    336 y         -1.268921     -1.265467     0.003454    Cartesian   -0.27
    336 z         -1.268921     -1.265467     0.003454    Cartesian   -0.27
    337 x         -6.344605     -6.345680    -0.001076    Cartesian    0.02
    337 y         -1.268921     -1.265262     0.003659    Cartesian   -0.29
    337 z          3.806763      3.803103    -0.003659    Cartesian   -0.10
    338 x          1.268921      1.268689    -0.000232    Cartesian   -0.02
    338 y          1.268921      1.268128    -0.000793    Cartesian   -0.06
    338 z         11.420288     11.349085    -0.071204    Cartesian   -0.62
    339 x         -3.806763     -3.806736     0.000027    Cartesian   -0.00
    339 y          1.268921      1.266074    -0.002847    Cartesian   -0.22
    339 z          8.882446      8.874341    -0.008105    Cartesian   -0.09
    340 x          3.806763      3.802731    -0.004031    Cartesian   -0.11
    340 y         -1.268921     -1.266116     0.002805    Cartesian   -0.22
    340 z         11.420288     11.421850     0.001561    Cartesian    0.01
    341 x          3.806763      3.800878    -0.005885    Cartesian   -0.15
    341 y          3.806763      3.805545    -0.001218    Cartesian   -0.03
    341 z         11.420288     11.402775    -0.017513    Cartesian   -0.15
    342 x          7.613525      7.616608     0.003082    Cartesian    0.04
    342 y         10.151367     10.155289     0.003922    Cartesian    0.04
    342 z         -2.537842     -2.538649    -0.000808    Cartesian    0.03
    343 x         -5.075684     -5.083334    -0.007650    Cartesian    0.15
    343 y          0.000000     -0.002172    -0.002172    Cartesian    0.00
    343 z         -5.075684     -5.083893    -0.008209    Cartesian    0.16
    344 x          6.344605      6.342758    -0.001846    Cartesian   -0.03
    344 y          1.268921      1.267378    -0.001543    Cartesian   -0.12
    344 z         11.420288     11.415355    -0.004933    Cartesian   -0.04
    345 x          1.268921      1.264732    -0.004189    Cartesian   -0.33
    345 y         11.420288     11.434944     0.014656    Cartesian    0.13
    345 z         -1.268921     -1.266830     0.002091    Cartesian   -0.16
    346 x          1.268921      1.270375     0.001454    Cartesian    0.11
    346 y          3.806763      3.804681    -0.002082    Cartesian   -0.05
    346 z         11.420288     11.434375     0.014087    Cartesian    0.12
    347 x         13.958130     13.903803    -0.054327    Cartesian   -0.39
    347 y          1.268921      1.268921     0.000000    Cartesian    0.00
    347 z          1.268921      1.268921     0.000000    Cartesian    0.00
    348 x         -2.537842     -2.537235     0.000606    Cartesian   -0.02
    348 y         -5.075684     -5.081072    -0.005388    Cartesian    0.11
    348 z          7.613525      7.618914     0.005388    Cartesian    0.07
    349 x         -2.537842     -2.536975     0.000866    Cartesian   -0.03
    349 y          2.537842      2.536123    -0.001718    Cartesian   -0.07
    349 z         10.151367     10.158973     0.007606    Cartesian    0.07
    350 x          8.882446      8.883721     0.001275    Cartesian    0.01
    350 y         -3.806763     -3.804951     0.001812    Cartesian   -0.05
    350 z         -6.344605     -6.346138    -0.001533    Cartesian    0.02
    351 x          8.882446      8.880379    -0.002067    Cartesian   -0.02
    351 y         -3.806763     -3.806463     0.000300    Cartesian   -0.01
    351 z          8.882446      8.879952    -0.002495    Cartesian   -0.03
    352 x         -3.806763     -3.810838    -0.004076    Cartesian    0.11
    352 y         -1.268921     -1.269182    -0.000262    Cartesian    0.02
    352 z         -6.344605     -6.339607     0.004998    Cartesian   -0.08
    353 x         -3.806763     -3.805767     0.000996    Cartesian   -0.03
    353 y          3.806763      3.804584    -0.002179    Cartesian   -0.06
    353 z         -6.344605     -6.345577    -0.000972    Cartesian    0.02
    354 x          3.806763      3.806748    -0.000015    Cartesian   -0.00
    354 y          8.882446      8.880978    -0.001468    Cartesian   -0.02
    354 z          8.882446      8.880978    -0.001468    Cartesian   -0.02
    355 x          3.806763      3.801211    -0.005552    Cartesian   -0.15
    355 y         -6.344605     -6.342515     0.002090    Cartesian   -0.03
    355 z          8.882446      8.880357    -0.002090    Cartesian   -0.02
    356 x         12.689209     12.693135     0.003926    Cartesian    0.03
    356 y          5.075684      5.079975     0.004291    Cartesian    0.08
    356 z         -2.537842     -2.542133    -0.004291    Cartesian    0.17
    357 x         11.420288     11.414611    -0.005677    Cartesian   -0.05
    357 y         -3.806763     -3.805300     0.001463    Cartesian   -0.04
    357 z         -3.806763     -3.805300     0.001463    Cartesian   -0.04
    358 x         11.420288     11.416891    -0.003397    Cartesian   -0.03
    358 y          6.344605      6.344082    -0.000523    Cartesian   -0.01
    358 z         -3.806763     -3.806240     0.000523    Cartesian   -0.01
    359 x          6.344605      6.339904    -0.004701    Cartesian   -0.07
    359 y         -1.268921     -1.267379     0.001542    Cartesian   -0.12
    359 z         11.420288     11.416998    -0.003290    Cartesian   -0.03
    360 x          6.344605      6.343051    -0.001554    Cartesian   -0.02
    360 y          3.806763      3.808560     0.001797    Cartesian    0.05
    360 z         11.420288     11.422925     0.002637    Cartesian    0.02
    361 x         -6.344605     -6.340135     0.004469    Cartesian   -0.07
    361 y          1.268921      1.266786    -0.002135    Cartesian   -0.17
    361 z          6.344605      6.345198     0.000593    Cartesian    0.01
    362 x          2.537842      2.540055     0.002213    Cartesian    0.09
    362 y          7.613525      7.617142     0.003616    Cartesian    0.05
    362 z         10.151367     10.157432     0.006064    Cartesian    0.06
    363 x          1.268921      1.270735     0.001814    Cartesian    0.14
    363 y         -6.344605     -6.343334     0.001271    Cartesian   -0.02
    363 z          8.882446      8.881176    -0.001271    Cartesian   -0.01
    364 x          1.268921      1.266151    -0.002770    Cartesian   -0.22
    364 y          8.882446      8.880037    -0.002410    Cartesian   -0.03
    364 z          8.882446      8.880037    -0.002410    Cartesian   -0.03
    365 x         13.958130     13.973849     0.015719    Cartesian    0.11
    365 y          3.806763      3.802965    -0.003798    Cartesian   -0.10
    365 z          1.268921      1.266991    -0.001930    Cartesian   -0.15
    366 x          5.075684      5.077641     0.001958    Cartesian    0.04
    366 y         -7.613525     -7.619811    -0.006286    Cartesian    0.08
    366 z          7.613525      7.617265     0.003739    Cartesian    0.05
    367 x         -7.613525     -7.616932    -0.003407    Cartesian    0.04
    367 y         -0.000000     -0.007949    -0.007949    Cartesian *******
    367 z          2.537842      2.545791     0.007949    Cartesian    0.31
    368 x         11.420288     11.420169    -0.000119    Cartesian   -0.00
    368 y          8.882446      8.880986    -0.001460    Cartesian   -0.02
    368 z          1.268921      1.270407     0.001486    Cartesian    0.12
    369 x         -1.268921     -1.267383     0.001537    Cartesian   -0.12
    369 y          1.268921      1.265421    -0.003500    Cartesian   -0.28
    369 z         11.420288     11.431403     0.011115    Cartesian    0.10
    370 x         -5.075684     -5.082714    -0.007031    Cartesian    0.14
    370 y         -5.075684     -5.082482    -0.006798    Cartesian    0.13
    370 z          5.075684      5.078684     0.003000    Cartesian    0.06
    371 x          6.344605      6.340915    -0.003689    Cartesian   -0.06
    371 y          8.882446      8.880705    -0.001741    Cartesian   -0.02
    371 z          8.882446      8.880705    -0.001741    Cartesian   -0.02
    372 x          6.344605      6.342965    -0.001639    Cartesian   -0.03
    372 y         -6.344605     -6.342259     0.002345    Cartesian   -0.04
    372 z          8.882446      8.880101    -0.002345    Cartesian   -0.03
    373 x         -6.344605     -6.336970     0.007634    Cartesian   -0.12
    373 y         -1.268921     -1.272408    -0.003487    Cartesian    0.27
    373 z         -3.806763     -3.807527    -0.000764    Cartesian    0.02
    374 x         -6.344605     -6.340479     0.004126    Cartesian   -0.07
    374 y          3.806763      3.804019    -0.002744    Cartesian   -0.07
    374 z         -3.806763     -3.801185     0.005577    Cartesian   -0.15
    375 x         13.958130     13.938323    -0.019807    Cartesian   -0.14
    375 y          3.806763      3.806428    -0.000334    Cartesian   -0.01
    375 z          3.806763      3.806428    -0.000334    Cartesian   -0.01
    376 x         13.958130     13.938918    -0.019212    Cartesian   -0.14
    376 y          3.806763      3.806213    -0.000550    Cartesian   -0.01
    376 z         -1.268921     -1.268371     0.000550    Cartesian   -0.04
    377 x         10.151367     10.156178     0.004811    Cartesian    0.05
    377 y          0.000000      0.000589     0.000589    Cartesian    0.00
    377 z         10.151367     10.156079     0.004711    Cartesian    0.05
    378 x         10.151367     10.157475     0.006108    Cartesian    0.06
    378 y          7.613525      7.617121     0.003595    Cartesian    0.05
    378 z          7.613525      7.617121     0.003595    Cartesian    0.05
    379 x         -2.537842     -2.543362    -0.005520    Cartesian    0.22
    379 y         -7.613525     -7.618887    -0.005362    Cartesian    0.07
    379 z          5.075684      5.080808     0.005125    Cartesian    0.10
    380 x          3.806763      3.804479    -0.002284    Cartesian   -0.06
    380 y         -3.806763     -3.803655     0.003108    Cartesian   -0.08
    380 z         11.420288     11.415346    -0.004942    Cartesian   -0.04
    381 x          3.806763      3.807071     0.000309    Cartesian    0.01
    381 y          6.344605      6.343970    -0.000634    Cartesian   -0.01
    381 z         11.420288     11.418710    -0.001578    Cartesian   -0.01
    382 x         12.689209     12.694746     0.005537    Cartesian    0.04
    382 y          7.613525      7.617481     0.003956    Cartesian    0.05
    382 z          0.000000     -0.002009    -0.002009    Cartesian    0.00
    383 x          0.000000     -0.001527    -0.001527    Cartesian    0.00
    383 y         -7.613525     -7.620578    -0.007053    Cartesian    0.09
    383 z          7.613525      7.617830     0.004304    Cartesian    0.06
    384 x         11.420288     11.414951    -0.005337    Cartesian   -0.05
    384 y         -6.344605     -6.343767     0.000837    Cartesian   -0.01
    384 z         -1.268921     -1.266305     0.002616    Cartesian   -0.21
    385 x         11.420288     11.416055    -0.004233    Cartesian   -0.04
    385 y          8.882446      8.879565    -0.002882    Cartesian   -0.03
    385 z         -1.268921     -1.268464     0.000457    Cartesian   -0.04
    386 x         -1.268921     -1.267188     0.001733    Cartesian   -0.14
    386 y         -8.882446     -8.861720     0.020726    Cartesian   -0.23
    386 z          3.806763      3.805717    -0.001045    Cartesian   -0.03
    387 x         -1.268921     -1.267128     0.001793    Cartesian   -0.14
    387 y          3.806763      3.802872    -0.003891    Cartesian   -0.10
    387 z         11.420288     11.417463    -0.002825    Cartesian   -0.02
    388 x          2.537842      2.542206     0.004364    Cartesian    0.17
    388 y         -0.000000     -0.006302    -0.006302    Cartesian *******
    388 z         12.689209     12.695919     0.006710    Cartesian    0.05
    389 x          1.268921      1.268453    -0.000468    Cartesian   -0.04
    389 y         -8.882446     -8.870996     0.011450    Cartesian   -0.13
    389 z          6.344605      6.343507    -0.001098    Cartesian   -0.02
    390 x          1.268921      1.270124     0.001203    Cartesian    0.09
    390 y          6.344605      6.341774    -0.002831    Cartesian   -0.04
    390 z         11.420288     11.408421    -0.011868    Cartesian   -0.10
    391 x          8.882446      8.879759    -0.002687    Cartesian   -0.03
    391 y          1.268921      1.270655     0.001734    Cartesian    0.14
    391 z         11.420288     11.415244    -0.005045    Cartesian   -0.04
    392 x         -3.806763     -3.806162     0.000601    Cartesian   -0.02
    392 y         -3.806763     -3.804461     0.002302    Cartesian   -0.06
    392 z          8.882446      8.879621    -0.002826    Cartesian   -0.03
    393 x         -3.806763     -3.797391     0.009372    Cartesian   -0.25
    393 y          6.344605      6.338389    -0.006216    Cartesian   -0.10
    393 z          8.882446      8.874879    -0.007567    Cartesian   -0.09
    394 x          5.075684      5.077357     0.001673    Cartesian    0.03
    394 y          2.537842      2.537157    -0.000685    Cartesian   -0.03
    394 z         12.689209     12.699370     0.010161    Cartesian    0.08
    395 x         -7.613525     -7.625650    -0.012124    Cartesian    0.16
    395 y         -0.000000      0.000883     0.000883    Cartesian *******
    395 z         -2.537842     -2.538784    -0.000942    Cartesian    0.04
    396 x         -1.268921     -1.263744     0.005177    Cartesian   -0.41
    396 y          8.882446      8.873805    -0.008642    Cartesian   -0.10
    396 z          8.882446      8.873805    -0.008642    Cartesian   -0.10
    397 x         -1.268921     -1.269600    -0.000680    Cartesian    0.05
    397 y         -6.344605     -6.340649     0.003955    Cartesian   -0.06
    397 z          8.882446      8.878491    -0.003955    Cartesian   -0.04
    398 x          7.613525      7.618741     0.005216    Cartesian    0.07
    398 y         10.151367     10.157437     0.006070    Cartesian    0.06
    398 z          7.613525      7.618582     0.005057    Cartesian    0.07
    399 x          6.344605      6.341574    -0.003030    Cartesian   -0.05
    399 y         -3.806763     -3.805018     0.001744    Cartesian   -0.05
    399 z         11.420288     11.412830    -0.007459    Cartesian   -0.07
    400 x          6.344605      6.341967    -0.002638    Cartesian   -0.04
    400 y         11.420288     11.410922    -0.009366    Cartesian   -0.08
    400 z          6.344605      6.341313    -0.003291    Cartesian   -0.05
    401 x         13.958130     13.942868    -0.015262    Cartesian   -0.11
    401 y          6.344605      6.342304    -0.002301    Cartesian   -0.04
    401 z          1.268921      1.268778    -0.000142    Cartesian   -0.01
    402 x         10.151367     10.158026     0.006659    Cartesian    0.07
    402 y         10.151367     10.157284     0.005917    Cartesian    0.06
    402 z          5.075684      5.079378     0.003694    Cartesian    0.07
    403 x          8.882446      8.877490    -0.004956    Cartesian   -0.06
    403 y         -1.268921     -1.267707     0.001214    Cartesian   -0.10
    403 z         11.420288     11.412864    -0.007424    Cartesian   -0.07
    404 x          8.882446      8.878895    -0.003551    Cartesian   -0.04
    404 y         11.420288     11.411545    -0.008743    Cartesian   -0.08
    404 z          3.806763      3.804377    -0.002385    Cartesian   -0.06
    405 x         12.689209     12.698486     0.009277    Cartesian    0.07
    405 y          7.613525      7.617002     0.003476    Cartesian    0.05
    405 z          5.075684      5.076896     0.001212    Cartesian    0.02
    406 x          0.000000     -0.005810    -0.005810    Cartesian    0.00
    406 y          2.537842      2.543202     0.005361    Cartesian    0.21
    406 z         12.689209     12.698138     0.008929    Cartesian    0.07
--------------------------------------------------------------------------------


  Time to end of optimisation  =       84.4150 seconds


  Peak dynamic memory used =     399.82 MB 


  Timing analysis for GULP :

--------------------------------------------------------------------------------
  Task / Subroutine                                          Time (Seconds)
--------------------------------------------------------------------------------
  Calculation of reciprocal space energy and derivatives          0.0002
  Calculation of reciprocal space energy using symmetry           0.0002
  Calculation of real space energy and derivatives                0.0020
  Calculation of real space energy using symmetry                 0.0071
  Calculation for region 1 energy and derivatives (2-b)          21.2590
  Calculation for region 2a energy                               50.9562
  Calculation for region 2b energy                                0.0077
  Calculation and manipulation of Hessian matrix                 10.9525
  Calculation of matrix inversion                                 0.8121
  Symmetry generation of equivalent positions                     0.0015
--------------------------------------------------------------------------------
  Total CPU time                                                 84.4150
--------------------------------------------------------------------------------


  Dump file written as ZrO2.grs


  Job Finished at 13:03.21 14th October    2020                               

