********************************************************************************
*                       GENERAL UTILITY LATTICE PROGRAM                        *
*                                 Julian Gale                                  *
*                       Curtin Institute for Computation                       *
*                    School of Molecular and Life Sciences                     *
*                    Curtin University, Western Australia                      *
********************************************************************************
* Version = 5.2.0 * Last modified =  10th September 2020                       *
********************************************************************************
* Zirconia doped with calcium                                                  *
*  optimise     - perform optimisation run                                     *
*  conp         - constant pressure calculation                                *
*  property     - calculate properties for final geometry                      *
*  defect       - perform defect calculation after bulk run                    *
*  distance     - calculate distances                                          *
*  compare      - compare initial and final structures                         *
********************************************************************************
* Zirconia doped with calcium                                                  *
********************************************************************************


  Job Started  at 13:03.21 14th October    2020                               

  Number of CPUs =     1


  Total number of configurations input =      1

********************************************************************************
*  Input for Configuration =   1 : ZrO2                                        *
********************************************************************************

  Formula = ZrO2                                                        

  Number of irreducible atoms/shells =       4


  Total number atoms/shells =       6

  Dimensionality = 3               :  Bulk   


  Symmetry :

  Crystal family                   :  Cubic       
  Crystal class  (Groth - 1921)    :  Cubic Hexakisoctahedral              

  Space group (centrosymmetric)    :  F M 3 M         

  Patterson group                  :  F m -3 m 

  Cartesian lattice vectors (Angstroms) :

        0.000000    2.535000    2.535000
        2.535000    0.000000    2.535000
        2.535000    2.535000    0.000000

  Primitive cell parameters :            Full cell parameters :

  a =   3.5850    alpha =  60.0000       a =   5.0700    alpha =  90.0000
  b =   3.5850    beta  =  60.0000       b =   5.0700    beta  =  90.0000
  c =   3.5850    gamma =  60.0000       c =   5.0700    gamma =  90.0000

  Initial volumes (Angstroms**3):

  Primitive cell =          32.580961    Full cell =         130.323843

  Temperature of configuration =   0.00     K 

  Pressure of configuration =         0.000 GPa 

  Fractional coordinates of asymmetric unit :

--------------------------------------------------------------------------------
   No.  Atomic       x           y          z         Charge      Occupancy
        Label      (Frac)      (Frac)     (Frac)        (e)         (Frac)  
--------------------------------------------------------------------------------
      1 Zr    c    0.000000    0.000000    0.000000     2.65000    1.000000    
      2 O     c    0.250000    0.250000    0.250000     0.07700    1.000000    
      3 Zr    s    0.000000    0.000000    0.000000     1.35000    1.000000    
      4 O     s    0.250000    0.250000    0.250000    -2.07700    1.000000    
--------------------------------------------------------------------------------


  Constraints : 

--------------------------------------------------------------------------------
  Constraint no.      Unconstrained     Constrained    Coefficient    Offset
                         Variable         Variable
--------------------------------------------------------------------------------
           1              Strain 1        Strain 2       1.00000      0.0000
           2              Strain 1        Strain 3       1.00000      0.0000
--------------------------------------------------------------------------------


  Distance calculation :


  Cutoff for distances  =      4.000000 Angstroms

--------------------------------------------------------------------------------
  Asymmetric unit site  Full lattice sites    No.  Distance      No.  Distance
      No.   At.No.            At.No.                (Angs)             (Angs) 
--------------------------------------------------------------------------------
       1   Zr    core        Zr    core        12    3.5850
                             Zr    shell       12    3.5850
                             O     core         8    2.1954
                             O     shell        8    2.1954
--------------------------------------------------------------------------------
       2   O     core        Zr    core         4    2.1954
                             Zr    shell        4    2.1954
                             O     core         6    2.5350       12    3.5850
                             O     shell        6    2.5350       12    3.5850
--------------------------------------------------------------------------------
       3   Zr    shell       Zr    core        12    3.5850
                             Zr    shell       12    3.5850
                             O     core         8    2.1954
                             O     shell        8    2.1954
--------------------------------------------------------------------------------
       4   O     shell       Zr    core         4    2.1954
                             Zr    shell        4    2.1954
                             O     core         6    2.5350       12    3.5850
                             O     shell        6    2.5350       12    3.5850
--------------------------------------------------------------------------------



********************************************************************************
*  General input information                                                   *
********************************************************************************

  Species output for all configurations : 

--------------------------------------------------------------------------------
  Species    Type    Atomic    Atomic    Charge       Radii (Angs)     Library
                     Number     Mass       (e)     Cova   Ionic  VDW   Symbol
--------------------------------------------------------------------------------
    Zr       Core       40      91.22   2.650000   1.560  0.000  2.330          
    Zr       Shell      40       0.00   1.350000   1.560  0.000  2.330          
    O        Core        8      16.00   0.077000   0.730  0.000  1.360          
    O        Shell       8       0.00  -2.077000   0.730  0.000  1.360          
--------------------------------------------------------------------------------


  Lattice summation method               =    Ewald          (3-D)
                                         =    Parry          (2-D)
                                         =    Saunders et al (1-D)
  Accuracy factor for lattice sums       =   12.000


  Analytic derivatives to be used

  Time limit = Infinity

  Maximum range for interatomic potentials =    100000.000000 Angstroms

  General interatomic potentials :

--------------------------------------------------------------------------------
Atom  Types   Potential      Parameter       Value         Units   Cutoffs(Ang)
  1     2                                                            Min /  Max 
--------------------------------------------------------------------------------
O    s Zr   s Buckingham    Buckingham A     985.86900    eV        0.000 12.000
                            Buckingham rho  0.37600000    Ang       
                            Buckingham C     0.0000000    eV*Ang^6  
--------------------------------------------------------------------------------
O    s O    s Buckingham    Buckingham A     22764.300    eV        0.000 12.000
                            Buckingham rho  0.14900000    Ang       
                            Buckingham C     27.890000    eV*Ang^6  
--------------------------------------------------------------------------------
Zr   c Zr   s Spring (c-s)  Spring k 2       169.61700    eV*Ang^-2 0.000  0.800
                            Spring k 4       0.0000000    eV*Ang^-4 
--------------------------------------------------------------------------------
O    c O    s Spring (c-s)  Spring k 2       27.290000    eV*Ang^-2 0.000  0.800
                            Spring k 4       0.0000000    eV*Ang^-4 
--------------------------------------------------------------------------------

********************************************************************************
*  Output for configuration   1 : ZrO2                                         *
********************************************************************************


  Components of energy : 

--------------------------------------------------------------------------------
  Interatomic potentials     =          22.43756329 eV    
  Monopole - monopole (real) =         -15.67991073 eV    
  Monopole - monopole (recip)=        -116.52038266 eV    
  Monopole - monopole (total)=        -132.20029339 eV    
--------------------------------------------------------------------------------
  Total lattice energy : 
    Primitive unit cell      =        -109.76273010 eV    
    Non-primitive unit cell  =        -439.05092039 eV    
--------------------------------------------------------------------------------
  Total lattice energy (in kJmol-1): 
    Primitive unit cell      =          -10590.4256 kJ/(mole unit cells)
    Non-primitive unit cell  =          -42361.7023 kJ/(mole unit cells)
--------------------------------------------------------------------------------


  Number of variables =        1

  Maximum number of calculations  =          1000
  Maximum Hessian update interval =            10
  Maximum step size               =   1.000000000
  Maximum parameter tolerance     =   0.000010000
  Maximum function  tolerance     =   0.000010000
  Maximum gradient  tolerance     =   0.001000000
  Maximum gradient  component     =   0.010000000

  Symmetry constrained optimisation

  Symmetry used for second derivatives

  Cell parameters to be optimised using strains

  Newton-Raphson optimiser to be used

  BFGS hessian update to be used

  Lower half triangular hessian to be used

  Start of bulk optimisation :

  Cycle:      0 Energy:      -109.762730  Gnorm:      0.588311  CPU:    0.006
  ** Hessian calculated **
  Cycle:      1 Energy:      -109.763059  Gnorm:      0.000316  CPU:    0.009


  **** Optimisation achieved ****


  Final energy =    -109.76305939 eV
  Final Gnorm  =       0.00000099

  Components of energy : 

--------------------------------------------------------------------------------
  Interatomic potentials     =          22.28919976 eV    
  Monopole - monopole (real) =         -15.66235280 eV    
  Monopole - monopole (recip)=        -116.38990634 eV    
  Monopole - monopole (total)=        -132.05225914 eV    
--------------------------------------------------------------------------------
  Total lattice energy : 
    Primitive unit cell      =        -109.76305939 eV    
    Non-primitive unit cell  =        -439.05223754 eV    
--------------------------------------------------------------------------------
  Total lattice energy (in kJmol-1): 
    Primitive unit cell      =          -10590.4573 kJ/(mole unit cells)
    Non-primitive unit cell  =          -42361.8294 kJ/(mole unit cells)
--------------------------------------------------------------------------------

  Final asymmetric unit coordinates :

--------------------------------------------------------------------------------
   No.  Atomic        x           y           z         Radius
        Label       (Frac)      (Frac)      (Frac)       (Angs) 
--------------------------------------------------------------------------------
     1  Zr    c     0.000000    0.000000    0.000000    0.000000
     2  O     c     0.250000    0.250000    0.250000    0.000000
     3  Zr    s     0.000000    0.000000    0.000000    0.000000
     4  O     s     0.250000    0.250000    0.250000    0.000000
--------------------------------------------------------------------------------

  Final Cartesian lattice vectors (Angstroms) :

        0.000000    2.537842    2.537842
        2.537842    0.000000    2.537842
        2.537842    2.537842    0.000000


  Final cell parameters and derivatives :

--------------------------------------------------------------------------------
       a            3.589050 Angstrom     dE/de1(xx)    -0.000001 eV/strain
       b            3.589050 Angstrom     dE/de2(yy)     0.000000 eV/strain
       c            3.589050 Angstrom     dE/de3(zz)     0.000000 eV/strain
       alpha       60.000000 Degrees      dE/de4(yz)     0.000000 eV/strain
       beta        60.000000 Degrees      dE/de5(xz)     0.000000 eV/strain
       gamma       60.000000 Degrees      dE/de6(xy)     0.000000 eV/strain
--------------------------------------------------------------------------------

  Primitive cell volume =            32.690656 Angs**3

  Density of cell =      6.259124 g/cm**3

  Non-primitive lattice parameters :

  a    =     5.075684  b   =     5.075684  c    =     5.075684
  alpha=    90.000000  beta=    90.000000  gamma=    90.000000

  Non-primitive cell volume =           130.762624 Angs**3


  Final internal derivatives :

--------------------------------------------------------------------------------
   No.  Atomic          a             b             c           Radius
        Label          (eV)          (eV)          (eV)        (eV/Angs)
--------------------------------------------------------------------------------
      1 Zr    c       0.000000      0.000000      0.000000      0.000000
      2 O     c       0.000000      0.000000      0.000000      0.000000
      3 Zr    s       0.000000      0.000000      0.000000      0.000000
      4 O     s       0.000000      0.000000      0.000000      0.000000
--------------------------------------------------------------------------------
  Maximum abs         0.000000      0.000000      0.000000      0.000000
--------------------------------------------------------------------------------

  Comparison of initial and final structures : 

--------------------------------------------------------------------------------
  Parameter   Initial value   Final value   Difference    Units      Percent
--------------------------------------------------------------------------------
    Volume       130.323843    130.762624     0.438781    Angs**3      0.34
    a              5.070000      5.075684     0.005684    Angstroms    0.11
    b              5.070000      5.075684     0.005684    Angstroms    0.11
    c              5.070000      5.075684     0.005684    Angstroms    0.11
    alpha         90.000000     90.000000     0.000000    Degrees      0.00
    beta          90.000000     90.000000     0.000000    Degrees      0.00
    gamma         90.000000     90.000000     0.000000    Degrees      0.00
      1 x          0.000000      0.000000     0.000000    Fractional   0.00
      1 y          0.000000      0.000000     0.000000    Fractional   0.00
      1 z          0.000000      0.000000     0.000000    Fractional   0.00
      2 x          0.250000      0.250000     0.000000    Fractional   0.00
      2 y          0.250000      0.250000     0.000000    Fractional   0.00
      2 z          0.250000      0.250000     0.000000    Fractional   0.00
      3 x          0.000000      0.000000     0.000000    Fractional   0.00
      3 y          0.000000      0.000000     0.000000    Fractional   0.00
      3 z          0.000000      0.000000     0.000000    Fractional   0.00
      4 x          0.250000      0.250000     0.000000    Fractional   0.00
      4 y          0.250000      0.250000     0.000000    Fractional   0.00
      4 z          0.250000      0.250000     0.000000    Fractional   0.00
--------------------------------------------------------------------------------


  Distance calculation :


  Cutoff for distances  =      4.000000 Angstroms

--------------------------------------------------------------------------------
  Asymmetric unit site  Full lattice sites    No.  Distance      No.  Distance
      No.   At.No.            At.No.                (Angs)             (Angs) 
--------------------------------------------------------------------------------
       1   Zr    core        Zr    core        12    3.5891
                             Zr    shell       12    3.5891
                             O     core         8    2.1978
                             O     shell        8    2.1978
--------------------------------------------------------------------------------
       2   O     core        Zr    core         4    2.1978
                             Zr    shell        4    2.1978
                             O     core         6    2.5378       12    3.5891
                             O     shell        6    2.5378       12    3.5891
--------------------------------------------------------------------------------
       3   Zr    shell       Zr    core        12    3.5891
                             Zr    shell       12    3.5891
                             O     core         8    2.1978
                             O     shell        8    2.1978
--------------------------------------------------------------------------------
       4   O     shell       Zr    core         4    2.1978
                             Zr    shell        4    2.1978
                             O     core         6    2.5378       12    3.5891
                             O     shell        6    2.5378       12    3.5891
--------------------------------------------------------------------------------



  Born effective charge tensors : 

-------------------------------------------------------------------------------
  Atom             x           y             z
-------------------------------------------------------------------------------
    1 Zr    x       3.6770      0.0000      0.0000
            y       0.0000      3.6770      0.0000
            z       0.0000      0.0000      3.6770
-------------------------------------------------------------------------------
    2 O     x      -1.8385      0.0000      0.0000
            y       0.0000     -1.8385     -0.0000
            z       0.0000     -0.0000     -1.8385
-------------------------------------------------------------------------------




  Elastic Constant Matrix: (Units=GPa)

-------------------------------------------------------------------------------
  Indices      1         2         3         4         5         6    
-------------------------------------------------------------------------------
       1    616.2933  119.6612  119.6612   -0.0000   -0.0000   -0.0000
       2    119.6612  616.2933  119.6612   -0.0000   -0.0000   -0.0000
       3    119.6612  119.6612  616.2933   -0.0000   -0.0000   -0.0000
       4     -0.0000   -0.0000   -0.0000  100.8598    0.0000   -0.0000
       5     -0.0000   -0.0000   -0.0000    0.0000  100.8598    0.0000
       6     -0.0000   -0.0000   -0.0000   -0.0000    0.0000  100.8598
-------------------------------------------------------------------------------


  Elastic Compliance Matrix: (Units=1/GPa)

-------------------------------------------------------------------------------
  Indices      1         2         3         4         5         6    
-------------------------------------------------------------------------------
       1    0.001732 -0.000282 -0.000282  0.000000  0.000000  0.000000
       2   -0.000282  0.001732 -0.000282 -0.000000  0.000000  0.000000
       3   -0.000282 -0.000282  0.001732  0.000000  0.000000  0.000000
       4    0.000000 -0.000000  0.000000  0.009915 -0.000000  0.000000
       5    0.000000  0.000000  0.000000 -0.000000  0.009915 -0.000000
       6    0.000000  0.000000  0.000000  0.000000 -0.000000  0.009915
-------------------------------------------------------------------------------

  Mechanical properties :

-------------------------------------------------------------------------------
  Convention :                    Reuss         Voigt         Hill
-------------------------------------------------------------------------------
  Bulk  Modulus (GPa)     =     285.20524     285.20524     285.20524
  Shear Modulus (GPa)     =     132.28031     159.84228     146.06129
-------------------------------------------------------------------------------
  Velocity S-wave (km/s)  =       4.59717       5.05346       4.83071
  Velocity P-wave (km/s)  =       8.58749       8.92280       8.75675
-------------------------------------------------------------------------------
  Compressibility (1/GPa) =    0.00350625
-------------------------------------------------------------------------------
  Stress axis :                     x             y             z
-------------------------------------------------------------------------------
  Youngs Moduli (GPa)     =     577.38110     577.38110     577.38110
-------------------------------------------------------------------------------
  Poissons Ratio (x)      =                     0.16259       0.16259
  Poissons Ratio (y)      =       0.16259                     0.16259
  Poissons Ratio (z)      =       0.16259       0.16259
-------------------------------------------------------------------------------


  Piezoelectric Strain Matrix: (Units=C/m**2)

-------------------------------------------------------------------------------
  Indices      1         2         3         4         5         6    
-------------------------------------------------------------------------------
       x    -0.00000   0.00000   0.00000   0.00000   0.00000   0.00000
       y    -0.00000  -0.00000  -0.00000   0.00000   0.00000   0.00000
       z    -0.00000  -0.00000  -0.00000   0.00000   0.00000   0.00000
-------------------------------------------------------------------------------


  Piezoelectric Stress Matrix: (Units=10**-11 C/N)

-------------------------------------------------------------------------------
  Indices      1         2         3         4         5         6    
-------------------------------------------------------------------------------
       x    -0.00000   0.00000   0.00000   0.00000   0.00000   0.00000
       y    -0.00000  -0.00000  -0.00000   0.00000   0.00000   0.00000
       z     0.00000   0.00000  -0.00000   0.00000   0.00000   0.00000
-------------------------------------------------------------------------------


  Static dielectric constant tensor : 

-------------------------------------------------------------------------------
              x         y         z
-------------------------------------------------------------------------------
       x    26.88485   0.00000   0.00000
       y     0.00000  26.88485   0.00000
       z     0.00000   0.00000  26.88485
--------------------------------------------------------------------------------

  High frequency dielectric constant tensor : 

-------------------------------------------------------------------------------
              x         y         z
-------------------------------------------------------------------------------
       x     2.63099   0.00000   0.00000
       y     0.00000   2.63099   0.00000
       z     0.00000   0.00000   2.63099
-------------------------------------------------------------------------------

  Static refractive indices : 

-------------------------------------------------------------------------------
    1 =    5.18506      2 =    5.18506      3 =    5.18506
-------------------------------------------------------------------------------

  High frequency refractive indices : 

-------------------------------------------------------------------------------
    1 =    1.62203      2 =    1.62203      3 =    1.62203
-------------------------------------------------------------------------------


  Time to end of optimisation =       0.0142 seconds

********************************************************************************
*  Defect calculation for configuration   1 :                                  *
********************************************************************************

  Total number of defects =      3

  Total charge on defect  =   2.00

  Defect centre is at   0.6600   0.2500   0.2500  Frac

  Region 1 radius =  12.0000      Number of ions =   1324

  Number of symmetry inequivalent region 1 ions  =    406

  Region 2 radius =  24.0000      Number of ions =   9296

  Number of symmetry inequivalent region 2a ions =   2556

  Region 2a mode = 4 : screened electrostatics due to region 1 
                       neglect correction to region 1 forces from 2a
                       region 2a displacements based on defects only

  Region 2a ions will only interact with defects in region 1

  Vacancies:

--------------------------------------------------------------------------------
    Specification type     Symbol/Number         x          y          z
--------------------------------------------------------------------------------
    Fractional                               0.250000   0.250000   0.250000
    Fractional                               0.750000   0.250000   0.250000
--------------------------------------------------------------------------------

  Interstitials:

--------------------------------------------------------------------------------
    Specification type     Symbol/Number         x          y          z
--------------------------------------------------------------------------------
    Atom/Fractional         O                0.660000   0.250000   0.250000
--------------------------------------------------------------------------------


  Symmetry reduced region 1 (Relative to defect centre) :

--------------------------------------------------------------------------------
   No.   Atomic       x            y             z       Radius  Multiplicity   
         Label      (Angs)       (Angs)        (Angs)    (Angs)     
--------------------------------------------------------------------------------
     1  O     c      0.0000       0.0000       0.0000    0.0000     1    Defect
     2  Zr    c     -0.8121 *    -1.2689 *     1.2689    0.0000     2          
     3  Zr    c      1.7257 *    -1.2689 *    -1.2689    0.0000     2          
     4  O     c      0.4568 *     2.5378 *     0.0000 *  0.0000     4          
     5  O     c      2.9947 *     0.0000       0.0000    0.0000     1          
     6  O     c     -2.0810 *    -0.0000 *     2.5378 *  0.0000     4          
     7  O     c      0.4568 *     2.5378 *     2.5378    0.0000     2          
     8  O     c      0.4568 *    -2.5378 *     2.5378    0.0000     2          
     9  Zr    c     -3.3500 *    -1.2689 *    -1.2689    0.0000     2          
    10  O     c      2.9947 *     2.5378 *    -0.0000 *  0.0000     4          
    11  Zr    c     -0.8121 *     1.2689 *     3.8068 *  0.0000     4          
    12  O     c     -2.0810 *     2.5378 *    -2.5378    0.0000     2          
    13  O     c     -2.0810 *     2.5378 *     2.5378    0.0000     2          
    14  Zr    c      1.7257 *    -3.8068 *     1.2689 *  0.0000     4          
    15  O     c     -4.6189 *    -0.0000      -0.0000    0.0000     1          
    16  Zr    c      4.2636 *     1.2689 *    -1.2689    0.0000     2          
    17  O     c      2.9947 *     2.5378 *     2.5378    0.0000     2          
    18  O     c      2.9947 *     2.5378 *    -2.5378    0.0000     2          
    19  O     c      0.4568 *     5.0757 *    -0.0000 *  0.0000     4          
    20  Zr    c     -3.3500 *     1.2689 *    -3.8068 *  0.0000     4          
    21  O     c     -4.6189 *    -2.5378 *     0.0000 *  0.0000     4          
    22  Zr    c     -0.8121 *    -3.8068 *     3.8068    0.0000     2          
    23  O     c     -2.0810 *    -5.0757 *     0.0000 *  0.0000     4          
    24  O     c      5.5325 *    -0.0000      -0.0000    0.0000     1          
    25  Zr    c      1.7257 *     3.8068 *     3.8068    0.0000     2          
    26  O     c      0.4568 *    -5.0757 *     2.5378 *  0.0000     4          
    27  O     c      0.4568 *     5.0757 *     2.5378 *  0.0000     4          
    28  O     c     -4.6189 *     2.5378 *     2.5378    0.0000     2          
    29  O     c     -4.6189 *    -2.5378 *     2.5378    0.0000     2          
    30  Zr    c      4.2636 *    -3.8068 *    -1.2689 *  0.0000     4          
    31  O     c      2.9947 *     5.0757 *     0.0000 *  0.0000     4          
    32  O     c     -2.0810 *     2.5378 *     5.0757 *  0.0000     4          
    33  O     c     -2.0810 *    -2.5378 *     5.0757 *  0.0000     4          
    34  O     c      5.5325 *     2.5378 *     0.0000 *  0.0000     4          
    35  Zr    c     -5.8878 *    -1.2689 *     1.2689    0.0000     2          
    36  Zr    c     -3.3500 *     3.8068 *     3.8068    0.0000     2          
    37  O     c      2.9947 *     5.0757 *     2.5378 *  0.0000     4          
    38  O     c      2.9947 *    -2.5378 *     5.0757 *  0.0000     4          
    39  Zr    c     -0.8121 *    -6.3446 *     1.2689 *  0.0000     4          
    40  O     c      5.5325 *     2.5378 *     2.5378    0.0000     2          
    41  O     c      5.5325 *     2.5378 *    -2.5378    0.0000     2          
    42  Zr    c      1.7257 *     1.2689 *     6.3446 *  0.0000     4          
    43  O     c     -4.6189 *    -0.0000 *     5.0757 *  0.0000     4          
    44  Zr    c      4.2636 *    -3.8068 *     3.8068    0.0000     2          
    45  Zr    c      6.8014 *    -1.2689 *    -1.2689    0.0000     2          
    46  Zr    c     -5.8878 *     1.2689 *     3.8068 *  0.0000     4          
    47  O     c     -7.1567 *     0.0000       0.0000    0.0000     1          
    48  O     c      0.4568 *     5.0757 *     5.0757    0.0000     2          
    49  O     c      0.4568 *    -5.0757 *     5.0757    0.0000     2          
    50  Zr    c     -3.3500 *     6.3446 *     1.2689 *  0.0000     4          
    51  O     c     -4.6189 *     2.5378 *     5.0757 *  0.0000     4          
    52  O     c     -4.6189 *    -5.0757 *     2.5378 *  0.0000     4          
    53  Zr    c     -0.8121 *     3.8068 *     6.3446 *  0.0000     4          
    54  O     c     -2.0810 *     5.0757 *     5.0757    0.0000     2          
    55  O     c     -2.0810 *    -5.0757 *     5.0757    0.0000     2          
    56  O     c      5.5325 *     5.0757 *    -0.0000 *  0.0000     4          
    57  O     c     -7.1567 *    -0.0000 *     2.5378 *  0.0000     4          
    58  Zr    c      1.7257 *    -6.3446 *     3.8068 *  0.0000     4          
    59  O     c      0.4568 *     0.0000 *     7.6135 *  0.0000     4          
    60  Zr    c      4.2636 *    -1.2689 *     6.3446 *  0.0000     4          
    61  O     c      2.9947 *    -5.0757 *    -5.0757    0.0000     2          
    62  O     c      2.9947 *    -5.0757 *     5.0757    0.0000     2          
    63  O     c     -2.0810 *    -0.0000 *     7.6135 *  0.0000     4          
    64  Zr    c      6.8014 *     3.8068 *    -1.2689 *  0.0000     4          
    65  O     c      5.5325 *     2.5378 *     5.0757 *  0.0000     4          
    66  O     c      5.5325 *     2.5378 *    -5.0757 *  0.0000     4          
    67  Zr    c     -5.8878 *    -3.8068 *     3.8068    0.0000     2          
    68  O     c     -7.1567 *     2.5378 *     2.5378    0.0000     2          
    69  O     c     -7.1567 *    -2.5378 *     2.5378    0.0000     2          
    70  O     c      0.4568 *    -2.5378 *     7.6135 *  0.0000     4          
    71  O     c      0.4568 *     2.5378 *     7.6135 *  0.0000     4          
    72  O     c      8.0703 *     0.0000       0.0000    0.0000     1          
    73  Zr    c     -3.3500 *    -6.3446 *     3.8068 *  0.0000     4          
    74  O     c      2.9947 *    -0.0000 *     7.6135 *  0.0000     4          
    75  O     c     -2.0810 *     2.5378 *     7.6135 *  0.0000     4          
    76  O     c     -2.0810 *    -7.6135 *     2.5378 *  0.0000     4          
    77  O     c      8.0703 *     2.5378 *    -0.0000 *  0.0000     4          
    78  O     c     -4.6189 *     5.0757 *     5.0757    0.0000     2          
    79  O     c     -4.6189 *    -5.0757 *     5.0757    0.0000     2          
    80  Zr    c      4.2636 *     6.3446 *     3.8068 *  0.0000     4          
    81  O     c      2.9947 *    -2.5378 *     7.6135 *  0.0000     4          
    82  O     c      2.9947 *     7.6135 *     2.5378 *  0.0000     4          
    83  Zr    c     -8.4256 *    -1.2689 *    -1.2689    0.0000     2          
    84  Zr    c      6.8014 *     3.8068 *     3.8068    0.0000     2          
    85  Zr    c     -5.8878 *    -6.3446 *     1.2689 *  0.0000     4          
    86  O     c     -7.1567 *    -5.0757 *     0.0000 *  0.0000     4          
    87  O     c      8.0703 *     2.5378 *     2.5378    0.0000     2          
    88  O     c      8.0703 *     2.5378 *    -2.5378    0.0000     2          
    89  O     c     -4.6189 *    -7.6135 *     0.0000 *  0.0000     4          
    90  Zr    c     -0.8121 *    -6.3446 *     6.3446    0.0000     2          
    91  Zr    c     -0.8121 *     1.2689 *     8.8824 *  0.0000     4          
    92  O     c      5.5325 *     5.0757 *     5.0757    0.0000     2          
    93  O     c      5.5325 *     5.0757 *    -5.0757    0.0000     2          
    94  O     c     -7.1567 *     2.5378 *     5.0757 *  0.0000     4          
    95  O     c     -7.1567 *    -2.5378 *     5.0757 *  0.0000     4          
    96  Zr    c      1.7257 *    -1.2689 *     8.8824 *  0.0000     4          
    97  Zr    c      1.7257 *     6.3446 *     6.3446    0.0000     2          
    98  O     c      0.4568 *    -7.6135 *     5.0757 *  0.0000     4          
    99  O     c      0.4568 *     7.6135 *     5.0757 *  0.0000     4          
   100  O     c     -4.6189 *     2.5378 *     7.6135 *  0.0000     4          
   101  O     c     -4.6189 *    -2.5378 *     7.6135 *  0.0000     4          
   102  Zr    c     -8.4256 *    -1.2689 *     3.8068 *  0.0000     4          
   103  O     c     -2.0810 *     5.0757 *     7.6135 *  0.0000     4          
   104  O     c     -2.0810 *    -7.6135 *     5.0757 *  0.0000     4          
   105  Zr    c      6.8014 *     6.3446 *     1.2689 *  0.0000     4          
   106  O     c      5.5325 *     7.6135 *     0.0000 *  0.0000     4          
   107  Zr    c     -5.8878 *    -6.3446 *    -3.8068 *  0.0000     4          
   108  Zr    c      9.3393 *     1.2689 *    -1.2689    0.0000     2          
   109  O     c      8.0703 *     0.0000 *    -5.0757 *  0.0000     4          
   110  Zr    c     -3.3500 *     6.3446 *     6.3446    0.0000     2          
   111  Zr    c     -3.3500 *    -8.8824 *     1.2689 *  0.0000     4          
   112  O     c      2.9947 *     7.6135 *     5.0757 *  0.0000     4          
   113  O     c      2.9947 *    -5.0757 *     7.6135 *  0.0000     4          
   114  O     c     -9.6946 *    -0.0000      -0.0000    0.0000     1          
   115  Zr    c     -0.8121 *    -8.8824 *     3.8068 *  0.0000     4          
   116  O     c      5.5325 *     2.5378 *     7.6135 *  0.0000     4          
   117  O     c      5.5325 *    -2.5378 *     7.6135 *  0.0000     4          
   118  Zr    c      1.7257 *     3.8068 *     8.8824 *  0.0000     4          
   119  O     c      8.0703 *     5.0757 *     2.5378 *  0.0000     4          
   120  O     c      8.0703 *     5.0757 *    -2.5378 *  0.0000     4          
   121  Zr    c      4.2636 *    -6.3446 *     6.3446    0.0000     2          
   122  Zr    c      4.2636 *     1.2689 *     8.8824 *  0.0000     4          
   123  Zr    c     -8.4256 *    -3.8068 *    -3.8068    0.0000     2          
   124  O     c     -9.6946 *    -2.5378 *     0.0000 *  0.0000     4          
   125  Zr    c      6.8014 *     6.3446 *    -3.8068 *  0.0000     4          
   126  O     c     -7.1567 *    -5.0757 *    -5.0757    0.0000     2          
   127  O     c     -7.1567 *    -5.0757 *     5.0757    0.0000     2          
   128  O     c      0.4568 *    -0.0000 *    10.1514 *  0.0000     4          
   129  Zr    c      9.3393 *     3.8068 *     1.2689 *  0.0000     4          
   130  Zr    c     -3.3500 *     3.8068 *     8.8824 *  0.0000     4          
   131  O     c     -4.6189 *    -7.6135 *     5.0757 *  0.0000     4          
   132  O     c     -4.6189 *     5.0757 *     7.6135 *  0.0000     4          
   133  O     c     -9.6946 *    -2.5378 *    -2.5378    0.0000     2          
   134  O     c     -9.6946 *    -2.5378 *     2.5378    0.0000     2          
   135  O     c     -2.0810 *    -0.0000 *    10.1514 *  0.0000     4          
   136  O     c     -7.1567 *    -0.0000 *     7.6135 *  0.0000     4          
   137  O     c      0.4568 *     2.5378 *    10.1514 *  0.0000     4          
   138  O     c      0.4568 *    -2.5378 *    10.1514 *  0.0000     4          
   139  Zr    c      4.2636 *    -3.8068 *     8.8824 *  0.0000     4          
   140  O     c      2.9947 *     0.0000 *    10.1514 *  0.0000     4          
   141  O     c     10.6082 *    -0.0000      -0.0000    0.0000     1          
   142  Zr    c     -8.4256 *    -1.2689 *    -6.3446 *  0.0000     4          
   143  O     c     -2.0810 *    -2.5378 *    10.1514 *  0.0000     4          
   144  O     c     -2.0810 *     2.5378 *    10.1514 *  0.0000     4          
   145  O     c      5.5325 *    -5.0757 *     7.6135 *  0.0000     4          
   146  O     c      5.5325 *     7.6135 *     5.0757 *  0.0000     4          
   147  Zr    c     -5.8878 *    -6.3446 *     6.3446    0.0000     2          
   148  Zr    c     -5.8878 *     1.2689 *     8.8824 *  0.0000     4          
   149  O     c     -7.1567 *    -7.6135 *    -2.5378 *  0.0000     4          
   150  O     c     -7.1567 *    -7.6135 *     2.5378 *  0.0000     4          
   151  O     c      0.4568 *     7.6135 *     7.6135    0.0000     2          
   152  O     c      0.4568 *    -7.6135 *     7.6135    0.0000     2          
   153  Zr    c      9.3393 *     3.8068 *    -3.8068    0.0000     2          
   154  O     c      8.0703 *    -5.0757 *    -5.0757    0.0000     2          
   155  O     c      8.0703 *     5.0757 *    -5.0757    0.0000     2          
   156  O     c      2.9947 *    10.1514 *    -2.5378 *  0.0000     4          
   157  O     c      2.9947 *     2.5378 *    10.1514 *  0.0000     4          
   158  O     c     10.6082 *     2.5378 *     0.0000 *  0.0000     4          
   159  O     c     -9.6946 *    -0.0000 *     5.0757 *  0.0000     4          
   160  Zr    c     -0.8121 *     6.3446 *     8.8824 *  0.0000     4          
   161  O     c     -2.0810 *    -7.6135 *     7.6135    0.0000     2          
   162  O     c     -2.0810 *     7.6135 *     7.6135    0.0000     2          
   163  Zr    c      1.7257 *    -8.8824 *     6.3446 *  0.0000     4          
   164  O     c      8.0703 *     7.6135 *    -0.0000 *  0.0000     4          
   165  Zr    c    -10.9635 *    -1.2689 *     1.2689    0.0000     2          
   166  O     c     -4.6189 *    -0.0000 *    10.1514 *  0.0000     4          
   167  O     c      2.9947 *    -7.6135 *     7.6135    0.0000     2          
   168  O     c      2.9947 *     7.6135 *     7.6135    0.0000     2          
   169  O     c     10.6082 *     2.5378 *     2.5378    0.0000     2          
   170  O     c     10.6082 *     2.5378 *    -2.5378    0.0000     2          
   171  Zr    c     -8.4256 *    -6.3446 *     3.8068 *  0.0000     4          
   172  O     c     -9.6946 *    -5.0757 *    -2.5378 *  0.0000     4          
   173  O     c     -9.6946 *    -5.0757 *     2.5378 *  0.0000     4          
   174  Zr    c      6.8014 *     6.3446 *     6.3446    0.0000     2          
   175  Zr    c      6.8014 *    -1.2689 *     8.8824 *  0.0000     4          
   176  Zr    c     -5.8878 *     3.8068 *    -8.8824 *  0.0000     4          
   177  O     c      0.4568 *     5.0757 *    10.1514 *  0.0000     4          
   178  O     c      0.4568 *    -5.0757 *    10.1514 *  0.0000     4          
   179  Zr    c      9.3393 *    -1.2689 *     6.3446 *  0.0000     4          
   180  O     c      8.0703 *    -7.6135 *    -2.5378 *  0.0000     4          
   181  O     c      8.0703 *     7.6135 *    -2.5378 *  0.0000     4          
   182  Zr    c     -3.3500 *     6.3446 *    -8.8824 *  0.0000     4          
   183  O     c     -4.6189 *     2.5378 *    10.1514 *  0.0000     4          
   184  O     c     -4.6189 *   -10.1514 *     2.5378 *  0.0000     4          
   185  Zr    c     -0.8121 *     1.2689 *   -11.4203 *  0.0000     4          
   186  O     c     -2.0810 *   -10.1514 *     5.0757 *  0.0000     4          
   187  O     c     -2.0810 *     5.0757 *    10.1514 *  0.0000     4          
   188  O     c      5.5325 *    -0.0000 *    10.1514 *  0.0000     4          
   189  O     c     -7.1567 *    -7.6135 *     5.0757 *  0.0000     4          
   190  O     c     -7.1567 *     5.0757 *     7.6135 *  0.0000     4          
   191  Zr    c      1.7257 *     1.2689 *    11.4203 *  0.0000     4          
   192  Zr    c    -10.9635 *     1.2689 *     3.8068 *  0.0000     4          
   193  O     c     -4.6189 *     7.6135 *     7.6135    0.0000     2          
   194  O     c     -4.6189 *    -7.6135 *     7.6135    0.0000     2          
   195  Zr    c      4.2636 *     8.8824 *     6.3446 *  0.0000     4          
   196  O     c      2.9947 *    -5.0757 *    10.1514 *  0.0000     4          
   197  O     c      2.9947 *    10.1514 *     5.0757 *  0.0000     4          
   198  O     c     10.6082 *     5.0757 *    -0.0000 *  0.0000     4          
   199  Zr    c      6.8014 *     3.8068 *     8.8824 *  0.0000     4          
   200  O     c      5.5325 *    10.1514 *     2.5378 *  0.0000     4          
   201  O     c      5.5325 *     2.5378 *   -10.1514 *  0.0000     4          
   202  Zr    c      9.3393 *     3.8068 *     6.3446 *  0.0000     4          
   203  Zr    c     -3.3500 *     1.2689 *    11.4203 *  0.0000     4          
   204  O     s      0.0000       0.0000       0.0000    0.0000     1    Defect
   205  Zr    s     -0.8121 *    -1.2689 *     1.2689    0.0000     2          
   206  Zr    s      1.7257 *    -1.2689 *    -1.2689    0.0000     2          
   207  O     s      0.4568 *     2.5378 *     0.0000 *  0.0000     4          
   208  O     s      2.9947 *     0.0000       0.0000    0.0000     1          
   209  O     s     -2.0810 *    -0.0000 *     2.5378 *  0.0000     4          
   210  O     s      0.4568 *     2.5378 *     2.5378    0.0000     2          
   211  O     s      0.4568 *    -2.5378 *     2.5378    0.0000     2          
   212  Zr    s     -3.3500 *    -1.2689 *    -1.2689    0.0000     2          
   213  O     s      2.9947 *     2.5378 *    -0.0000 *  0.0000     4          
   214  Zr    s     -0.8121 *     1.2689 *     3.8068 *  0.0000     4          
   215  O     s     -2.0810 *     2.5378 *    -2.5378    0.0000     2          
   216  O     s     -2.0810 *     2.5378 *     2.5378    0.0000     2          
   217  Zr    s      1.7257 *    -3.8068 *     1.2689 *  0.0000     4          
   218  O     s     -4.6189 *    -0.0000      -0.0000    0.0000     1          
   219  Zr    s      4.2636 *     1.2689 *    -1.2689    0.0000     2          
   220  O     s      2.9947 *     2.5378 *     2.5378    0.0000     2          
   221  O     s      2.9947 *     2.5378 *    -2.5378    0.0000     2          
   222  O     s      0.4568 *     5.0757 *    -0.0000 *  0.0000     4          
   223  Zr    s     -3.3500 *     1.2689 *    -3.8068 *  0.0000     4          
   224  O     s     -4.6189 *    -2.5378 *     0.0000 *  0.0000     4          
   225  Zr    s     -0.8121 *    -3.8068 *     3.8068    0.0000     2          
   226  O     s     -2.0810 *    -5.0757 *     0.0000 *  0.0000     4          
   227  O     s      5.5325 *    -0.0000      -0.0000    0.0000     1          
   228  Zr    s      1.7257 *     3.8068 *     3.8068    0.0000     2          
   229  O     s      0.4568 *    -5.0757 *     2.5378 *  0.0000     4          
   230  O     s      0.4568 *     5.0757 *     2.5378 *  0.0000     4          
   231  O     s     -4.6189 *     2.5378 *     2.5378    0.0000     2          
   232  O     s     -4.6189 *    -2.5378 *     2.5378    0.0000     2          
   233  Zr    s      4.2636 *    -3.8068 *    -1.2689 *  0.0000     4          
   234  O     s      2.9947 *     5.0757 *     0.0000 *  0.0000     4          
   235  O     s     -2.0810 *     2.5378 *     5.0757 *  0.0000     4          
   236  O     s     -2.0810 *    -2.5378 *     5.0757 *  0.0000     4          
   237  O     s      5.5325 *     2.5378 *     0.0000 *  0.0000     4          
   238  Zr    s     -5.8878 *    -1.2689 *     1.2689    0.0000     2          
   239  Zr    s     -3.3500 *     3.8068 *     3.8068    0.0000     2          
   240  O     s      2.9947 *     5.0757 *     2.5378 *  0.0000     4          
   241  O     s      2.9947 *    -2.5378 *     5.0757 *  0.0000     4          
   242  Zr    s     -0.8121 *    -6.3446 *     1.2689 *  0.0000     4          
   243  O     s      5.5325 *     2.5378 *     2.5378    0.0000     2          
   244  O     s      5.5325 *     2.5378 *    -2.5378    0.0000     2          
   245  Zr    s      1.7257 *     1.2689 *     6.3446 *  0.0000     4          
   246  O     s     -4.6189 *    -0.0000 *     5.0757 *  0.0000     4          
   247  Zr    s      4.2636 *    -3.8068 *     3.8068    0.0000     2          
   248  Zr    s      6.8014 *    -1.2689 *    -1.2689    0.0000     2          
   249  Zr    s     -5.8878 *     1.2689 *     3.8068 *  0.0000     4          
   250  O     s     -7.1567 *     0.0000       0.0000    0.0000     1          
   251  O     s      0.4568 *     5.0757 *     5.0757    0.0000     2          
   252  O     s      0.4568 *    -5.0757 *     5.0757    0.0000     2          
   253  Zr    s     -3.3500 *     6.3446 *     1.2689 *  0.0000     4          
   254  O     s     -4.6189 *     2.5378 *     5.0757 *  0.0000     4          
   255  O     s     -4.6189 *    -5.0757 *     2.5378 *  0.0000     4          
   256  Zr    s     -0.8121 *     3.8068 *     6.3446 *  0.0000     4          
   257  O     s     -2.0810 *     5.0757 *     5.0757    0.0000     2          
   258  O     s     -2.0810 *    -5.0757 *     5.0757    0.0000     2          
   259  O     s      5.5325 *     5.0757 *    -0.0000 *  0.0000     4          
   260  O     s     -7.1567 *    -0.0000 *     2.5378 *  0.0000     4          
   261  Zr    s      1.7257 *    -6.3446 *     3.8068 *  0.0000     4          
   262  O     s      0.4568 *     0.0000 *     7.6135 *  0.0000     4          
   263  Zr    s      4.2636 *    -1.2689 *     6.3446 *  0.0000     4          
   264  O     s      2.9947 *    -5.0757 *    -5.0757    0.0000     2          
   265  O     s      2.9947 *    -5.0757 *     5.0757    0.0000     2          
   266  O     s     -2.0810 *    -0.0000 *     7.6135 *  0.0000     4          
   267  Zr    s      6.8014 *     3.8068 *    -1.2689 *  0.0000     4          
   268  O     s      5.5325 *     2.5378 *     5.0757 *  0.0000     4          
   269  O     s      5.5325 *     2.5378 *    -5.0757 *  0.0000     4          
   270  Zr    s     -5.8878 *    -3.8068 *     3.8068    0.0000     2          
   271  O     s     -7.1567 *     2.5378 *     2.5378    0.0000     2          
   272  O     s     -7.1567 *    -2.5378 *     2.5378    0.0000     2          
   273  O     s      0.4568 *    -2.5378 *     7.6135 *  0.0000     4          
   274  O     s      0.4568 *     2.5378 *     7.6135 *  0.0000     4          
   275  O     s      8.0703 *     0.0000       0.0000    0.0000     1          
   276  Zr    s     -3.3500 *    -6.3446 *     3.8068 *  0.0000     4          
   277  O     s      2.9947 *    -0.0000 *     7.6135 *  0.0000     4          
   278  O     s     -2.0810 *     2.5378 *     7.6135 *  0.0000     4          
   279  O     s     -2.0810 *    -7.6135 *     2.5378 *  0.0000     4          
   280  O     s      8.0703 *     2.5378 *    -0.0000 *  0.0000     4          
   281  O     s     -4.6189 *     5.0757 *     5.0757    0.0000     2          
   282  O     s     -4.6189 *    -5.0757 *     5.0757    0.0000     2          
   283  Zr    s      4.2636 *     6.3446 *     3.8068 *  0.0000     4          
   284  O     s      2.9947 *    -2.5378 *     7.6135 *  0.0000     4          
   285  O     s      2.9947 *     7.6135 *     2.5378 *  0.0000     4          
   286  Zr    s     -8.4256 *    -1.2689 *    -1.2689    0.0000     2          
   287  Zr    s      6.8014 *     3.8068 *     3.8068    0.0000     2          
   288  Zr    s     -5.8878 *    -6.3446 *     1.2689 *  0.0000     4          
   289  O     s     -7.1567 *    -5.0757 *     0.0000 *  0.0000     4          
   290  O     s      8.0703 *     2.5378 *     2.5378    0.0000     2          
   291  O     s      8.0703 *     2.5378 *    -2.5378    0.0000     2          
   292  O     s     -4.6189 *    -7.6135 *     0.0000 *  0.0000     4          
   293  Zr    s     -0.8121 *    -6.3446 *     6.3446    0.0000     2          
   294  Zr    s     -0.8121 *     1.2689 *     8.8824 *  0.0000     4          
   295  O     s      5.5325 *     5.0757 *     5.0757    0.0000     2          
   296  O     s      5.5325 *     5.0757 *    -5.0757    0.0000     2          
   297  O     s     -7.1567 *     2.5378 *     5.0757 *  0.0000     4          
   298  O     s     -7.1567 *    -2.5378 *     5.0757 *  0.0000     4          
   299  Zr    s      1.7257 *    -1.2689 *     8.8824 *  0.0000     4          
   300  Zr    s      1.7257 *     6.3446 *     6.3446    0.0000     2          
   301  O     s      0.4568 *    -7.6135 *     5.0757 *  0.0000     4          
   302  O     s      0.4568 *     7.6135 *     5.0757 *  0.0000     4          
   303  O     s     -4.6189 *     2.5378 *     7.6135 *  0.0000     4          
   304  O     s     -4.6189 *    -2.5378 *     7.6135 *  0.0000     4          
   305  Zr    s     -8.4256 *    -1.2689 *     3.8068 *  0.0000     4          
   306  O     s     -2.0810 *     5.0757 *     7.6135 *  0.0000     4          
   307  O     s     -2.0810 *    -7.6135 *     5.0757 *  0.0000     4          
   308  Zr    s      6.8014 *     6.3446 *     1.2689 *  0.0000     4          
   309  O     s      5.5325 *     7.6135 *     0.0000 *  0.0000     4          
   310  Zr    s     -5.8878 *    -6.3446 *    -3.8068 *  0.0000     4          
   311  Zr    s      9.3393 *     1.2689 *    -1.2689    0.0000     2          
   312  O     s      8.0703 *     0.0000 *    -5.0757 *  0.0000     4          
   313  Zr    s     -3.3500 *     6.3446 *     6.3446    0.0000     2          
   314  Zr    s     -3.3500 *    -8.8824 *     1.2689 *  0.0000     4          
   315  O     s      2.9947 *     7.6135 *     5.0757 *  0.0000     4          
   316  O     s      2.9947 *    -5.0757 *     7.6135 *  0.0000     4          
   317  O     s     -9.6946 *    -0.0000      -0.0000    0.0000     1          
   318  Zr    s     -0.8121 *    -8.8824 *     3.8068 *  0.0000     4          
   319  O     s      5.5325 *     2.5378 *     7.6135 *  0.0000     4          
   320  O     s      5.5325 *    -2.5378 *     7.6135 *  0.0000     4          
   321  Zr    s      1.7257 *     3.8068 *     8.8824 *  0.0000     4          
   322  O     s      8.0703 *     5.0757 *     2.5378 *  0.0000     4          
   323  O     s      8.0703 *     5.0757 *    -2.5378 *  0.0000     4          
   324  Zr    s      4.2636 *    -6.3446 *     6.3446    0.0000     2          
   325  Zr    s      4.2636 *     1.2689 *     8.8824 *  0.0000     4          
   326  Zr    s     -8.4256 *    -3.8068 *    -3.8068    0.0000     2          
   327  O     s     -9.6946 *    -2.5378 *     0.0000 *  0.0000     4          
   328  Zr    s      6.8014 *     6.3446 *    -3.8068 *  0.0000     4          
   329  O     s     -7.1567 *    -5.0757 *    -5.0757    0.0000     2          
   330  O     s     -7.1567 *    -5.0757 *     5.0757    0.0000     2          
   331  O     s      0.4568 *    -0.0000 *    10.1514 *  0.0000     4          
   332  Zr    s      9.3393 *     3.8068 *     1.2689 *  0.0000     4          
   333  Zr    s     -3.3500 *     3.8068 *     8.8824 *  0.0000     4          
   334  O     s     -4.6189 *    -7.6135 *     5.0757 *  0.0000     4          
   335  O     s     -4.6189 *     5.0757 *     7.6135 *  0.0000     4          
   336  O     s     -9.6946 *    -2.5378 *    -2.5378    0.0000     2          
   337  O     s     -9.6946 *    -2.5378 *     2.5378    0.0000     2          
   338  O     s     -2.0810 *    -0.0000 *    10.1514 *  0.0000     4          
   339  O     s     -7.1567 *    -0.0000 *     7.6135 *  0.0000     4          
   340  O     s      0.4568 *     2.5378 *    10.1514 *  0.0000     4          
   341  O     s      0.4568 *    -2.5378 *    10.1514 *  0.0000     4          
   342  Zr    s      4.2636 *    -3.8068 *     8.8824 *  0.0000     4          
   343  O     s      2.9947 *     0.0000 *    10.1514 *  0.0000     4          
   344  O     s     10.6082 *    -0.0000      -0.0000    0.0000     1          
   345  Zr    s     -8.4256 *    -1.2689 *    -6.3446 *  0.0000     4          
   346  O     s     -2.0810 *    -2.5378 *    10.1514 *  0.0000     4          
   347  O     s     -2.0810 *     2.5378 *    10.1514 *  0.0000     4          
   348  O     s      5.5325 *    -5.0757 *     7.6135 *  0.0000     4          
   349  O     s      5.5325 *     7.6135 *     5.0757 *  0.0000     4          
   350  Zr    s     -5.8878 *    -6.3446 *     6.3446    0.0000     2          
   351  Zr    s     -5.8878 *     1.2689 *     8.8824 *  0.0000     4          
   352  O     s     -7.1567 *    -7.6135 *    -2.5378 *  0.0000     4          
   353  O     s     -7.1567 *    -7.6135 *     2.5378 *  0.0000     4          
   354  O     s      0.4568 *     7.6135 *     7.6135    0.0000     2          
   355  O     s      0.4568 *    -7.6135 *     7.6135    0.0000     2          
   356  Zr    s      9.3393 *     3.8068 *    -3.8068    0.0000     2          
   357  O     s      8.0703 *    -5.0757 *    -5.0757    0.0000     2          
   358  O     s      8.0703 *     5.0757 *    -5.0757    0.0000     2          
   359  O     s      2.9947 *    10.1514 *    -2.5378 *  0.0000     4          
   360  O     s      2.9947 *     2.5378 *    10.1514 *  0.0000     4          
   361  O     s     10.6082 *     2.5378 *     0.0000 *  0.0000     4          
   362  O     s     -9.6946 *    -0.0000 *     5.0757 *  0.0000     4          
   363  Zr    s     -0.8121 *     6.3446 *     8.8824 *  0.0000     4          
   364  O     s     -2.0810 *    -7.6135 *     7.6135    0.0000     2          
   365  O     s     -2.0810 *     7.6135 *     7.6135    0.0000     2          
   366  Zr    s      1.7257 *    -8.8824 *     6.3446 *  0.0000     4          
   367  O     s      8.0703 *     7.6135 *    -0.0000 *  0.0000     4          
   368  Zr    s    -10.9635 *    -1.2689 *     1.2689    0.0000     2          
   369  O     s     -4.6189 *    -0.0000 *    10.1514 *  0.0000     4          
   370  O     s      2.9947 *    -7.6135 *     7.6135    0.0000     2          
   371  O     s      2.9947 *     7.6135 *     7.6135    0.0000     2          
   372  O     s     10.6082 *     2.5378 *     2.5378    0.0000     2          
   373  O     s     10.6082 *     2.5378 *    -2.5378    0.0000     2          
   374  Zr    s     -8.4256 *    -6.3446 *     3.8068 *  0.0000     4          
   375  O     s     -9.6946 *    -5.0757 *    -2.5378 *  0.0000     4          
   376  O     s     -9.6946 *    -5.0757 *     2.5378 *  0.0000     4          
   377  Zr    s      6.8014 *     6.3446 *     6.3446    0.0000     2          
   378  Zr    s      6.8014 *    -1.2689 *     8.8824 *  0.0000     4          
   379  Zr    s     -5.8878 *     3.8068 *    -8.8824 *  0.0000     4          
   380  O     s      0.4568 *     5.0757 *    10.1514 *  0.0000     4          
   381  O     s      0.4568 *    -5.0757 *    10.1514 *  0.0000     4          
   382  Zr    s      9.3393 *    -1.2689 *     6.3446 *  0.0000     4          
   383  O     s      8.0703 *    -7.6135 *    -2.5378 *  0.0000     4          
   384  O     s      8.0703 *     7.6135 *    -2.5378 *  0.0000     4          
   385  Zr    s     -3.3500 *     6.3446 *    -8.8824 *  0.0000     4          
   386  O     s     -4.6189 *     2.5378 *    10.1514 *  0.0000     4          
   387  O     s     -4.6189 *   -10.1514 *     2.5378 *  0.0000     4          
   388  Zr    s     -0.8121 *     1.2689 *   -11.4203 *  0.0000     4          
   389  O     s     -2.0810 *   -10.1514 *     5.0757 *  0.0000     4          
   390  O     s     -2.0810 *     5.0757 *    10.1514 *  0.0000     4          
   391  O     s      5.5325 *    -0.0000 *    10.1514 *  0.0000     4          
   392  O     s     -7.1567 *    -7.6135 *     5.0757 *  0.0000     4          
   393  O     s     -7.1567 *     5.0757 *     7.6135 *  0.0000     4          
   394  Zr    s      1.7257 *     1.2689 *    11.4203 *  0.0000     4          
   395  Zr    s    -10.9635 *     1.2689 *     3.8068 *  0.0000     4          
   396  O     s     -4.6189 *     7.6135 *     7.6135    0.0000     2          
   397  O     s     -4.6189 *    -7.6135 *     7.6135    0.0000     2          
   398  Zr    s      4.2636 *     8.8824 *     6.3446 *  0.0000     4          
   399  O     s      2.9947 *    -5.0757 *    10.1514 *  0.0000     4          
   400  O     s      2.9947 *    10.1514 *     5.0757 *  0.0000     4          
   401  O     s     10.6082 *     5.0757 *    -0.0000 *  0.0000     4          
   402  Zr    s      6.8014 *     3.8068 *     8.8824 *  0.0000     4          
   403  O     s      5.5325 *    10.1514 *     2.5378 *  0.0000     4          
   404  O     s      5.5325 *     2.5378 *   -10.1514 *  0.0000     4          
   405  Zr    s      9.3393 *     3.8068 *     6.3446 *  0.0000     4          
   406  Zr    s     -3.3500 *     1.2689 *    11.4203 *  0.0000     4          
--------------------------------------------------------------------------------


  Constraints on symmetry reduced coordinates :

--------------------------------------------------------------------------------
  Constraint no.      Unconstrained     Constrained    Coefficient    
                         Variable         Variable
--------------------------------------------------------------------------------
           1                 2 y             2 z        -1.00000
           2                 3 y             3 z         1.00000
           3                 7 y             7 z         1.00000
           4                 8 y             8 z        -1.00000
           5                 9 y             9 z         1.00000
           6                12 y            12 z        -1.00000
           7                13 y            13 z         1.00000
           8                16 y            16 z        -1.00000
           9                17 y            17 z         1.00000
          10                18 y            18 z        -1.00000
          11                22 y            22 z        -1.00000
          12                25 y            25 z         1.00000
          13                28 y            28 z         1.00000
          14                29 y            29 z        -1.00000
          15                35 y            35 z        -1.00000
          16                36 y            36 z         1.00000
          17                40 y            40 z         1.00000
          18                41 y            41 z        -1.00000
          19                44 y            44 z        -1.00000
          20                45 y            45 z         1.00000
          21                48 y            48 z         1.00000
          22                49 y            49 z        -1.00000
          23                54 y            54 z         1.00000
          24                55 y            55 z        -1.00000
          25                61 y            61 z         1.00000
          26                62 y            62 z        -1.00000
          27                67 y            67 z        -1.00000
          28                68 y            68 z         1.00000
          29                69 y            69 z        -1.00000
          30                78 y            78 z         1.00000
          31                79 y            79 z        -1.00000
          32                83 y            83 z         1.00000
          33                84 y            84 z         1.00000
          34                87 y            87 z         1.00000
          35                88 y            88 z        -1.00000
          36                90 y            90 z        -1.00000
          37                92 y            92 z         1.00000
          38                93 y            93 z        -1.00000
          39                97 y            97 z         1.00000
          40               108 y           108 z        -1.00000
          41               110 y           110 z         1.00000
          42               121 y           121 z        -1.00000
          43               123 y           123 z         1.00000
          44               126 y           126 z         1.00000
          45               127 y           127 z        -1.00000
          46               133 y           133 z         1.00000
          47               134 y           134 z        -1.00000
          48               147 y           147 z        -1.00000
          49               151 y           151 z         1.00000
          50               152 y           152 z        -1.00000
          51               153 y           153 z        -1.00000
          52               154 y           154 z         1.00000
          53               155 y           155 z        -1.00000
          54               161 y           161 z        -1.00000
          55               162 y           162 z         1.00000
          56               165 y           165 z        -1.00000
          57               167 y           167 z        -1.00000
          58               168 y           168 z         1.00000
          59               169 y           169 z         1.00000
          60               170 y           170 z        -1.00000
          61               174 y           174 z         1.00000
          62               193 y           193 z         1.00000
          63               194 y           194 z        -1.00000
          64               205 y           205 z        -1.00000
          65               206 y           206 z         1.00000
          66               210 y           210 z         1.00000
          67               211 y           211 z        -1.00000
          68               212 y           212 z         1.00000
          69               215 y           215 z        -1.00000
          70               216 y           216 z         1.00000
          71               219 y           219 z        -1.00000
          72               220 y           220 z         1.00000
          73               221 y           221 z        -1.00000
          74               225 y           225 z        -1.00000
          75               228 y           228 z         1.00000
          76               231 y           231 z         1.00000
          77               232 y           232 z        -1.00000
          78               238 y           238 z        -1.00000
          79               239 y           239 z         1.00000
          80               243 y           243 z         1.00000
          81               244 y           244 z        -1.00000
          82               247 y           247 z        -1.00000
          83               248 y           248 z         1.00000
          84               251 y           251 z         1.00000
          85               252 y           252 z        -1.00000
          86               257 y           257 z         1.00000
          87               258 y           258 z        -1.00000
          88               264 y           264 z         1.00000
          89               265 y           265 z        -1.00000
          90               270 y           270 z        -1.00000
          91               271 y           271 z         1.00000
          92               272 y           272 z        -1.00000
          93               281 y           281 z         1.00000
          94               282 y           282 z        -1.00000
          95               286 y           286 z         1.00000
          96               287 y           287 z         1.00000
          97               290 y           290 z         1.00000
          98               291 y           291 z        -1.00000
          99               293 y           293 z        -1.00000
         100               295 y           295 z         1.00000
         101               296 y           296 z        -1.00000
         102               300 y           300 z         1.00000
         103               311 y           311 z        -1.00000
         104               313 y           313 z         1.00000
         105               324 y           324 z        -1.00000
         106               326 y           326 z         1.00000
         107               329 y           329 z         1.00000
         108               330 y           330 z        -1.00000
         109               336 y           336 z         1.00000
         110               337 y           337 z        -1.00000
         111               350 y           350 z        -1.00000
         112               354 y           354 z         1.00000
         113               355 y           355 z        -1.00000
         114               356 y           356 z        -1.00000
         115               357 y           357 z         1.00000
         116               358 y           358 z        -1.00000
         117               364 y           364 z        -1.00000
         118               365 y           365 z         1.00000
         119               368 y           368 z        -1.00000
         120               370 y           370 z        -1.00000
         121               371 y           371 z         1.00000
         122               372 y           372 z         1.00000
         123               373 y           373 z        -1.00000
         124               377 y           377 z         1.00000
         125               396 y           396 z         1.00000
         126               397 y           397 z        -1.00000
--------------------------------------------------------------------------------


  Components of defect energy : 

--------------------------------------------------------------------------------
  Region 1 - region 1                   =     45.84971265 eV
  Region 1 - region 2a (unrelaxed)      =    -13.32631667 eV
  Region 1 - 2a (relaxed - correction)  =     -2.36859807 eV
  Region 1 (Total)                      =     30.15479791 eV
  Region 2a                             =      1.18432868 eV
  Region 2b                             =     -1.15938654 eV
--------------------------------------------------------------------------------
  Total defect energy                   =     30.17974005 eV
--------------------------------------------------------------------------------

  Largest displacement in region 2 =   0.0062 Angstroms


  Number of variables =     1058

  Maximum number of calculations  =        1000
  Maximum Hessian update interval =          10
  Maximum step size               =   1.0000000
  Maximum parameter tolerance     =   0.0000100
  Maximum function  tolerance     =   0.0000100
  Maximum gradient  tolerance     =   0.0010000

  Symmetry adapted optimisation

  Symmetry to be used for second derivatives

  Newton-Raphson optimiser to be used

  BFGS hessian update to be used

  Lower half triangular hessian to be used

  Start of defect optimisation :

  Cycle:      0 Defect Energy:  30.179740  Gnorm:     0.085403  CPU:    4.859
  ** Hessian calculated **
  Cycle:      1 Defect Energy:  21.745627  Gnorm:     0.033957  CPU:   14.609
  Cycle:      2 Defect Energy:  17.123453  Gnorm:     0.017486  CPU:   23.366
  Cycle:      3 Defect Energy:  16.516617  Gnorm:     0.013816  CPU:   29.155
  Cycle:      4 Defect Energy:  15.895376  Gnorm:     0.008179  CPU:   36.369
  Cycle:      5 Defect Energy:  15.456403  Gnorm:     0.007255  CPU:   43.599
  Cycle:      6 Defect Energy:  15.328584  Gnorm:     0.006068  CPU:   49.396
  Cycle:      7 Defect Energy:  15.198409  Gnorm:     0.004433  CPU:   56.608
  Cycle:      8 Defect Energy:  15.084855  Gnorm:     0.003718  CPU:   63.814
  Cycle:      9 Defect Energy:  15.053176  Gnorm:     0.003335  CPU:   65.342
  Cycle:     10 Defect Energy:  15.006393  Gnorm:     0.003050  CPU:   66.885
  ** Hessian calculated **
  Cycle:     11 Defect Energy:  14.930467  Gnorm:     0.002695  CPU:   74.001
  Cycle:     12 Defect Energy:  14.834269  Gnorm:     0.002158  CPU:   75.535
  Cycle:     13 Defect Energy:  14.748127  Gnorm:     0.001514  CPU:   77.073
  Cycle:     14 Defect Energy:  14.707551  Gnorm:     0.001067  CPU:   78.614
  Cycle:     15 Defect Energy:  14.688509  Gnorm:     0.000752  CPU:   80.149
  Cycle:     16 Defect Energy:  14.679531  Gnorm:     0.000529  CPU:   81.700
  Cycle:     17 Defect Energy:  14.675368  Gnorm:     0.000372  CPU:   83.239
  Cycle:     18 Defect Energy:  14.673431  Gnorm:     0.000261  CPU:   84.774
  Cycle:     19 Defect Energy:  14.672561  Gnorm:     0.000183  CPU:   86.305
  Cycle:     20 Defect Energy:  14.672338  Gnorm:     0.000128  CPU:   87.843
  ** Hessian calculated **
  Cycle:     21 Defect Energy:  14.672341  Gnorm:     0.000090  CPU:   94.971
  Cycle:     22 Defect Energy:  14.672295  Gnorm:     0.000063  CPU:   96.506
  Cycle:     23 Defect Energy:  14.672291  Gnorm:     0.000044  CPU:   98.044
  Cycle:     24 Defect Energy:  14.672301  Gnorm:     0.000031  CPU:   99.591
  Cycle:     25 Defect Energy:  14.672315  Gnorm:     0.000022  CPU:  101.140
  Cycle:     26 Defect Energy:  14.672328  Gnorm:     0.000015  CPU:  102.685
  Cycle:     27 Defect Energy:  14.672338  Gnorm:     0.000011  CPU:  104.223


  **** Optimisation achieved ****


  Final defect energy  =       14.67234622
  Final defect Gnorm   =        0.00000743

  Components of defect energy : 

--------------------------------------------------------------------------------
  Region 1 - region 1                   =     37.11983568 eV
  Region 1 - region 2a (unrelaxed)      =    -20.25437923 eV
  Region 1 - 2a (relaxed - correction)  =     -2.07397935 eV
  Region 1 (Total)                      =     14.79147711 eV
  Region 2a                             =      1.03691954 eV
  Region 2b                             =     -1.15605044 eV
--------------------------------------------------------------------------------
  Total defect energy                   =     14.67234622 eV
--------------------------------------------------------------------------------

  Largest displacement in region 2 =   0.0062 Angstroms

  Final coordinates of region 1 :

--------------------------------------------------------------------------------
   No.  Atomic        x           y           z          Radius      Charge
        Label       (Angs)      (Angs)      (Angs)       (Angs)       (e) 
--------------------------------------------------------------------------------
     1  O     c     3.349951    1.268921    1.268921    0.000000    0.077000
     2  Zr    c     2.584953   -0.046390    2.584232    0.000000    2.650000
     3  Zr    c     2.584953    2.584232   -0.046390    0.000000    2.650000
     4  Zr    c     5.098205   -0.029216   -0.029216    0.000000    2.650000
     5  Zr    c     5.098205    2.567058    2.567058    0.000000    2.650000
     6  O     c     3.851591    3.842542    1.236179    0.000000    0.077000
     7  O     c     3.851591    1.236179    3.842542    0.000000    0.077000
     8  O     c     3.851591    1.301663   -1.304701    0.000000    0.077000
     9  O     c     3.851591   -1.304701    1.301663    0.000000    0.077000
    10  O     c     6.025001    1.268921    1.268921    0.000000    0.077000
    11  O     c     1.263314    1.266677    3.408889    0.000000    0.077000
    12  O     c     1.263314    3.408889    1.266677    0.000000    0.077000
    13  O     c     1.263314   -0.871048    1.271165    0.000000    0.077000
    14  O     c     1.263314    1.271165   -0.871048    0.000000    0.077000
    15  O     c     3.765632    3.782426    3.782426    0.000000    0.077000
    16  O     c     3.765632   -1.244584   -1.244584    0.000000    0.077000
    17  O     c     3.805939   -1.290393    3.828235    0.000000    0.077000
    18  O     c     3.805939    3.828235   -1.290393    0.000000    0.077000
    19  Zr    c    -0.054425   -0.054613   -0.054613    0.000000    2.650000
    20  Zr    c    -0.054425    2.592455    2.592455    0.000000    2.650000
    21  O     c     6.396014    3.788933    1.291929    0.000000    0.077000
    22  O     c     6.396014    1.291929    3.788933    0.000000    0.077000
    23  O     c     6.396014    1.245913   -1.251092    0.000000    0.077000
    24  O     c     6.396014   -1.251092    1.245913    0.000000    0.077000
    25  Zr    c     2.564534    2.567499    5.101604    0.000000    2.650000
    26  Zr    c     2.564534    5.101604    2.567499    0.000000    2.650000
    27  Zr    c     2.564534   -2.563763   -0.029658    0.000000    2.650000
    28  Zr    c     2.564534   -0.029658   -2.563763    0.000000    2.650000
    29  O     c     1.281106    3.847918   -1.310076    0.000000    0.077000
    30  O     c     1.281106   -1.310076    3.847918    0.000000    0.077000
    31  O     c     1.222458    3.844974    3.844974    0.000000    0.077000
    32  O     c     1.222458   -1.307132   -1.307132    0.000000    0.077000
    33  Zr    c     5.094954   -2.558993    2.549288    0.000000    2.650000
    34  Zr    c     5.094954    2.549288   -2.558993    0.000000    2.650000
    35  Zr    c     5.094954   -0.011446    5.096834    0.000000    2.650000
    36  Zr    c     5.094954    5.096834   -0.011446    0.000000    2.650000
    37  O     c    -0.898573    1.268921    1.268921    0.000000    0.077000
    38  Zr    c     7.617094    2.554414   -0.016572    0.000000    2.650000
    39  Zr    c     7.617094   -0.016572    2.554414    0.000000    2.650000
    40  O     c     6.290921    3.814103    3.814103    0.000000    0.077000
    41  O     c     6.290921   -1.276261   -1.276261    0.000000    0.077000
    42  O     c     6.330301    3.794112   -1.256270    0.000000    0.077000
    43  O     c     6.330301   -1.256270    3.794112    0.000000    0.077000
    44  O     c     3.776937    6.381649    1.288603    0.000000    0.077000
    45  O     c     3.776937    1.288603    6.381649    0.000000    0.077000
    46  O     c     3.776937    1.249239   -3.843807    0.000000    0.077000
    47  O     c     3.776937   -3.843807    1.249239    0.000000    0.077000
    48  Zr    c    -0.028971    2.564659   -2.558512    0.000000    2.650000
    49  Zr    c    -0.028971   -2.558512    2.564659    0.000000    2.650000
    50  Zr    c    -0.028971   -0.026817    5.096354    0.000000    2.650000
    51  Zr    c    -0.028971    5.096354   -0.026817    0.000000    2.650000
    52  O     c    -1.306424   -1.308737    1.236697    0.000000    0.077000
    53  O     c    -1.306424    1.236697   -1.308737    0.000000    0.077000
    54  O     c    -1.306424    1.301145    3.846579    0.000000    0.077000
    55  O     c    -1.306424    3.846579    1.301145    0.000000    0.077000
    56  Zr    c     2.545562   -2.556972    5.094814    0.000000    2.650000
    57  Zr    c     2.545562    5.094814   -2.556972    0.000000    2.650000
    58  O     c     1.256528   -3.535924    1.263702    0.000000    0.077000
    59  O     c     1.256528    1.263702   -3.535924    0.000000    0.077000
    60  O     c     1.256528    1.274140    6.073766    0.000000    0.077000
    61  O     c     1.256528    6.073766    1.274140    0.000000    0.077000
    62  O     c     8.683736    1.268921    1.268921    0.000000    0.077000
    63  Zr    c     5.095172    5.094417    5.094417    0.000000    2.650000
    64  Zr    c     5.095172   -2.556575   -2.556575    0.000000    2.650000
    65  O     c     3.806237   -3.815234    3.794652    0.000000    0.077000
    66  O     c     3.806237    3.794652   -3.815234    0.000000    0.077000
    67  O     c     3.806237   -1.256810    6.353076    0.000000    0.077000
    68  O     c     3.806237    6.353076   -1.256810    0.000000    0.077000
    69  O     c     3.816555    6.308233    3.808992    0.000000    0.077000
    70  O     c     3.816555    3.808992    6.308233    0.000000    0.077000
    71  O     c     3.816555   -1.271150   -3.770392    0.000000    0.077000
    72  O     c     3.816555   -3.770392   -1.271150    0.000000    0.077000
    73  O     c    -1.298083    3.821363    3.821363    0.000000    0.077000
    74  O     c    -1.298083   -1.283521   -1.283521    0.000000    0.077000
    75  O     c    -1.264169   -1.242509    3.780351    0.000000    0.077000
    76  O     c    -1.264169    3.780351   -1.242509    0.000000    0.077000
    77  Zr    c     7.623695   -2.545810   -0.001634    0.000000    2.650000
    78  Zr    c     7.623695    5.083652    2.539476    0.000000    2.650000
    79  Zr    c     7.623695    2.539476    5.083652    0.000000    2.650000
    80  Zr    c     7.623695   -0.001634   -2.545810    0.000000    2.650000
    81  O     c     6.317333    6.331472    1.262069    0.000000    0.077000
    82  O     c     6.317333    1.262069    6.331472    0.000000    0.077000
    83  O     c     6.317333    1.275773   -3.793630    0.000000    0.077000
    84  O     c     6.317333   -3.793630    1.275773    0.000000    0.077000
    85  O     c     1.294846    3.791857    6.382681    0.000000    0.077000
    86  O     c     1.294846    6.382681    3.791857    0.000000    0.077000
    87  O     c     1.294846   -3.844840   -1.254016    0.000000    0.077000
    88  O     c     1.294846   -1.254016   -3.844840    0.000000    0.077000
    89  O     c     1.259873   -1.249700    6.384422    0.000000    0.077000
    90  O     c     1.259873    6.384422   -1.249700    0.000000    0.077000
    91  O     c     1.259873   -3.846580    3.787542    0.000000    0.077000
    92  O     c     1.259873    3.787542   -3.846580    0.000000    0.077000
    93  O     c     8.928821    3.805425    1.258785    0.000000    0.077000
    94  O     c     8.928821    1.258785    3.805425    0.000000    0.077000
    95  O     c     8.928821    1.279057   -1.267583    0.000000    0.077000
[...]
    326 y         -2.537842     -2.543653    -0.005811    Cartesian    0.23
    326 z         -2.537842     -2.543653    -0.005811    Cartesian    0.23
    327 x         -6.344605     -6.363603    -0.018998    Cartesian    0.30
    327 y         -1.268921     -1.267382     0.001539    Cartesian   -0.12
    327 z          1.268921      1.266702    -0.002219    Cartesian   -0.17
    328 x         10.151367     10.156420     0.005052    Cartesian    0.05
    328 y          7.613525      7.616366     0.002841    Cartesian    0.04
    328 z         -2.537842     -2.537746     0.000096    Cartesian   -0.00
    329 x         -3.806763     -3.813952    -0.007189    Cartesian    0.19
    329 y         -3.806763     -3.806464     0.000299    Cartesian   -0.01
    329 z         -3.806763     -3.806464     0.000299    Cartesian   -0.01
    330 x         -3.806763     -3.806942    -0.000179    Cartesian    0.00
    330 y         -3.806763     -3.800554     0.006208    Cartesian   -0.16
    330 z          6.344605      6.338396    -0.006208    Cartesian   -0.10
    331 x          3.806763      3.803766    -0.002996    Cartesian   -0.08
    331 y          1.268921      1.271778     0.002857    Cartesian    0.23
    331 z         11.420288     11.435893     0.015604    Cartesian    0.14
    332 x         12.689209     12.690797     0.001588    Cartesian    0.01
    332 y          5.075684      5.076390     0.000706    Cartesian    0.01
    332 z          2.537842      2.535854    -0.001988    Cartesian   -0.08
    333 x          0.000000      0.003092     0.003092    Cartesian    0.00
    333 y          5.075684      5.074280    -0.001403    Cartesian   -0.03
    333 z         10.151367     10.156136     0.004769    Cartesian    0.05
    334 x         -1.268921     -1.268807     0.000114    Cartesian   -0.01
    334 y         -6.344605     -6.349310    -0.004705    Cartesian    0.07
    334 z          6.344605      6.340926    -0.003678    Cartesian   -0.06
    335 x         -1.268921     -1.268264     0.000657    Cartesian   -0.05
    335 y          6.344605      6.341641    -0.002963    Cartesian   -0.05
    335 z          8.882446      8.879028    -0.003419    Cartesian   -0.04
    336 x         -6.344605     -6.343227     0.001377    Cartesian   -0.02
    336 y         -1.268921     -1.265520     0.003401    Cartesian   -0.27
    336 z         -1.268921     -1.265520     0.003401    Cartesian   -0.27
    337 x         -6.344605     -6.345286    -0.000682    Cartesian    0.01
    337 y         -1.268921     -1.265502     0.003419    Cartesian   -0.27
    337 z          3.806763      3.803344    -0.003419    Cartesian   -0.09
    338 x          1.268921      1.268769    -0.000151    Cartesian   -0.01
    338 y          1.268921      1.268073    -0.000848    Cartesian   -0.07
    338 z         11.420288     11.346552    -0.073736    Cartesian   -0.65
    339 x         -3.806763     -3.806814    -0.000051    Cartesian    0.00
    339 y          1.268921      1.266007    -0.002914    Cartesian   -0.23
    339 z          8.882446      8.874289    -0.008157    Cartesian   -0.09
    340 x          3.806763      3.800707    -0.006056    Cartesian   -0.16
    340 y          3.806763      3.805568    -0.001194    Cartesian   -0.03
    340 z         11.420288     11.402156    -0.018132    Cartesian   -0.16
    341 x          3.806763      3.802479    -0.004284    Cartesian   -0.11
    341 y         -1.268921     -1.266098     0.002823    Cartesian   -0.22
    341 z         11.420288     11.421643     0.001355    Cartesian    0.01
    342 x          7.613525      7.616681     0.003156    Cartesian    0.04
    342 y         -2.537842     -2.538611    -0.000769    Cartesian    0.03
    342 z         10.151367     10.155325     0.003958    Cartesian    0.04
    343 x          6.344605      6.342781    -0.001824    Cartesian   -0.03
    343 y          1.268921      1.267384    -0.001537    Cartesian   -0.12
    343 z         11.420288     11.415516    -0.004772    Cartesian   -0.04
    344 x         13.958130     13.907964    -0.050166    Cartesian   -0.36
    344 y          1.268921      1.268921     0.000000    Cartesian    0.00
    344 z          1.268921      1.268921     0.000000    Cartesian    0.00
    345 x         -5.075684     -5.083227    -0.007544    Cartesian    0.15
    345 y          0.000000     -0.002145    -0.002145    Cartesian    0.00
    345 z         -5.075684     -5.083869    -0.008185    Cartesian    0.16
    346 x          1.268921      1.264514    -0.004406    Cartesian   -0.35
    346 y         -1.268921     -1.266850     0.002071    Cartesian   -0.16
    346 z         11.420288     11.435309     0.015021    Cartesian    0.13
    347 x          1.268921      1.270307     0.001386    Cartesian    0.11
    347 y          3.806763      3.804680    -0.002082    Cartesian   -0.05
    347 z         11.420288     11.435135     0.014847    Cartesian    0.13
    348 x          8.882446      8.880253    -0.002193    Cartesian   -0.02
    348 y         -3.806763     -3.806497     0.000265    Cartesian   -0.01
    348 z          8.882446      8.880046    -0.002400    Cartesian   -0.03
    349 x          8.882446      8.883710     0.001263    Cartesian    0.01
    349 y          8.882446      8.883827     0.001381    Cartesian    0.02
    349 z          6.344605      6.342792    -0.001812    Cartesian   -0.03
    350 x         -2.537842     -2.537265     0.000577    Cartesian   -0.02
    350 y         -5.075684     -5.081080    -0.005396    Cartesian    0.11
    350 z          7.613525      7.618921     0.005396    Cartesian    0.07
    351 x         -2.537842     -2.536928     0.000913    Cartesian   -0.04
    351 y          2.537842      2.536043    -0.001799    Cartesian   -0.07
    351 z         10.151367     10.159101     0.007734    Cartesian    0.08
    352 x         -3.806763     -3.810785    -0.004022    Cartesian    0.11
    352 y         -6.344605     -6.339622     0.004982    Cartesian   -0.08
    352 z         -1.268921     -1.269207    -0.000287    Cartesian    0.02
    353 x         -3.806763     -3.805658     0.001104    Cartesian   -0.03
    353 y         -6.344605     -6.345541    -0.000936    Cartesian    0.01
    353 z          3.806763      3.804614    -0.002149    Cartesian   -0.06
    354 x          3.806763      3.806631    -0.000132    Cartesian   -0.00
    354 y          8.882446      8.880958    -0.001489    Cartesian   -0.02
    354 z          8.882446      8.880958    -0.001489    Cartesian   -0.02
    355 x          3.806763      3.801182    -0.005581    Cartesian   -0.15
    355 y         -6.344605     -6.342509     0.002096    Cartesian   -0.03
    355 z          8.882446      8.880351    -0.002096    Cartesian   -0.02
    356 x         12.689209     12.693238     0.004029    Cartesian    0.03
    356 y          5.075684      5.079669     0.003985    Cartesian    0.08
    356 z         -2.537842     -2.541827    -0.003985    Cartesian    0.16
    357 x         11.420288     11.414760    -0.005528    Cartesian   -0.05
    357 y         -3.806763     -3.805428     0.001335    Cartesian   -0.04
    357 z         -3.806763     -3.805428     0.001335    Cartesian   -0.04
    358 x         11.420288     11.416849    -0.003439    Cartesian   -0.03
    358 y          6.344605      6.344058    -0.000546    Cartesian   -0.01
    358 z         -3.806763     -3.806217     0.000546    Cartesian   -0.01
    359 x          6.344605      6.339778    -0.004827    Cartesian   -0.08
    359 y         11.420288     11.417392    -0.002896    Cartesian   -0.03
    359 z         -1.268921     -1.267411     0.001510    Cartesian   -0.12
    360 x          6.344605      6.343037    -0.001567    Cartesian   -0.02
    360 y          3.806763      3.808716     0.001953    Cartesian    0.05
    360 z         11.420288     11.422645     0.002356    Cartesian    0.02
    361 x         13.958130     13.971878     0.013748    Cartesian    0.10
    361 y          3.806763      3.803196    -0.003567    Cartesian   -0.09
    361 z          1.268921      1.267226    -0.001695    Cartesian   -0.13
    362 x         -6.344605     -6.339948     0.004656    Cartesian   -0.07
    362 y          1.268921      1.266822    -0.002099    Cartesian   -0.17
    362 z          6.344605      6.345148     0.000544    Cartesian    0.01
    363 x          2.537842      2.540150     0.002308    Cartesian    0.09
    363 y          7.613525      7.617135     0.003609    Cartesian    0.05
    363 z         10.151367     10.157331     0.005964    Cartesian    0.06
    364 x          1.268921      1.270691     0.001770    Cartesian    0.14
    364 y         -6.344605     -6.343379     0.001225    Cartesian   -0.02
    364 z          8.882446      8.881221    -0.001225    Cartesian   -0.01
    365 x          1.268921      1.266175    -0.002746    Cartesian   -0.22
    365 y          8.882446      8.879955    -0.002491    Cartesian   -0.03
    365 z          8.882446      8.879955    -0.002491    Cartesian   -0.03
    366 x          5.075684      5.077723     0.002040    Cartesian    0.04
    366 y         -7.613525     -7.619803    -0.006277    Cartesian    0.08
    366 z          7.613525      7.617314     0.003789    Cartesian    0.05
    367 x         11.420288     11.419982    -0.000306    Cartesian   -0.00
    367 y          8.882446      8.881105    -0.001341    Cartesian   -0.02
    367 z          1.268921      1.270347     0.001426    Cartesian    0.11
    368 x         -7.613525     -7.616897    -0.003372    Cartesian    0.04
    368 y         -0.000000     -0.007589    -0.007589    Cartesian *******
    368 z          2.537842      2.545431     0.007589    Cartesian    0.30
    369 x         -1.268921     -1.267209     0.001711    Cartesian   -0.13
    369 y          1.268921      1.265366    -0.003555    Cartesian   -0.28
    369 z         11.420288     11.432399     0.012111    Cartesian    0.11
    370 x          6.344605      6.342869    -0.001736    Cartesian   -0.03
    370 y         -6.344605     -6.342334     0.002271    Cartesian   -0.04
    370 z          8.882446      8.880175    -0.002271    Cartesian   -0.03
    371 x          6.344605      6.341011    -0.003593    Cartesian   -0.06
    371 y          8.882446      8.880695    -0.001751    Cartesian   -0.02
    371 z          8.882446      8.880695    -0.001751    Cartesian   -0.02
    372 x         13.958130     13.939005    -0.019125    Cartesian   -0.14
    372 y          3.806763      3.806415    -0.000348    Cartesian   -0.01
    372 z          3.806763      3.806415    -0.000348    Cartesian   -0.01
    373 x         13.958130     13.940041    -0.018089    Cartesian   -0.13
    373 y          3.806763      3.806140    -0.000622    Cartesian   -0.02
    373 z         -1.268921     -1.268298     0.000622    Cartesian   -0.05
    374 x         -5.075684     -5.082800    -0.007117    Cartesian    0.14
    374 y         -5.075684     -5.082486    -0.006803    Cartesian    0.13
    374 z          5.075684      5.078648     0.002964    Cartesian    0.06
    375 x         -6.344605     -6.337018     0.007586    Cartesian   -0.12
    375 y         -3.806763     -3.807423    -0.000660    Cartesian    0.02
    375 z         -1.268921     -1.272223    -0.003302    Cartesian    0.26
    376 x         -6.344605     -6.340478     0.004127    Cartesian   -0.07
    376 y         -3.806763     -3.801304     0.005458    Cartesian   -0.14
    376 z          3.806763      3.803981    -0.002782    Cartesian   -0.07
    377 x         10.151367     10.157574     0.006207    Cartesian    0.06
    377 y          7.613525      7.617001     0.003475    Cartesian    0.05
    377 z          7.613525      7.617001     0.003475    Cartesian    0.05
    378 x         10.151367     10.156328     0.004961    Cartesian    0.05
    378 y          0.000000      0.000572     0.000572    Cartesian    0.00
    378 z         10.151367     10.156038     0.004671    Cartesian    0.05
    379 x         -2.537842     -2.543404    -0.005562    Cartesian    0.22
    379 y          5.075684      5.080960     0.005277    Cartesian    0.10
    379 z         -7.613525     -7.618907    -0.005382    Cartesian    0.07
    380 x          3.806763      3.807085     0.000322    Cartesian    0.01
    380 y          6.344605      6.343975    -0.000629    Cartesian   -0.01
    380 z         11.420288     11.418816    -0.001472    Cartesian   -0.01
    381 x          3.806763      3.804434    -0.002329    Cartesian   -0.06
    381 y         -3.806763     -3.803552     0.003210    Cartesian   -0.08
    381 z         11.420288     11.415452    -0.004836    Cartesian   -0.04
    382 x         12.689209     12.694765     0.005556    Cartesian    0.04
    382 y          0.000000     -0.001936    -0.001936    Cartesian    0.00
    382 z          7.613525      7.617379     0.003854    Cartesian    0.05
    383 x         11.420288     11.415009    -0.005279    Cartesian   -0.05
    383 y         -6.344605     -6.343727     0.000877    Cartesian   -0.01
    383 z         -1.268921     -1.266375     0.002546    Cartesian   -0.20
    384 x         11.420288     11.416091    -0.004197    Cartesian   -0.04
    384 y          8.882446      8.879676    -0.002770    Cartesian   -0.03
    384 z         -1.268921     -1.268465     0.000456    Cartesian   -0.04
    385 x          0.000000     -0.001503    -0.001503    Cartesian *******
    385 y          7.613525      7.617877     0.004352    Cartesian    0.06
    385 z         -7.613525     -7.620572    -0.007046    Cartesian    0.09
    386 x         -1.268921     -1.267167     0.001754    Cartesian   -0.14
    386 y          3.806763      3.802820    -0.003943    Cartesian   -0.10
    386 z         11.420288     11.417278    -0.003010    Cartesian   -0.03
    387 x         -1.268921     -1.267253     0.001668    Cartesian   -0.13
    387 y         -8.882446     -8.861425     0.021021    Cartesian   -0.24
    387 z          3.806763      3.805741    -0.001022    Cartesian   -0.03
    388 x          2.537842      2.542422     0.004580    Cartesian    0.18
    388 y          2.537842      2.544216     0.006374    Cartesian    0.25
    388 z        -10.151367    -10.158040    -0.006673    Cartesian    0.07
    389 x          1.268921      1.268479    -0.000442    Cartesian   -0.03
    389 y         -8.882446     -8.870877     0.011570    Cartesian   -0.13
    389 z          6.344605      6.343553    -0.001051    Cartesian   -0.02
    390 x          1.268921      1.270097     0.001176    Cartesian    0.09
    390 y          6.344605      6.341752    -0.002853    Cartesian   -0.04
    390 z         11.420288     11.408175    -0.012113    Cartesian   -0.11
    391 x          8.882446      8.879751    -0.002696    Cartesian   -0.03
    391 y          1.268921      1.270679     0.001758    Cartesian    0.14
    391 z         11.420288     11.415336    -0.004952    Cartesian   -0.04
    392 x         -3.806763     -3.806210     0.000553    Cartesian   -0.01
    392 y         -6.344605     -6.341861     0.002744    Cartesian   -0.04
    392 z          6.344605      6.342314    -0.002291    Cartesian   -0.04
    393 x         -3.806763     -3.797426     0.009337    Cartesian   -0.25
    393 y          6.344605      6.338378    -0.006227    Cartesian   -0.10
    393 z          8.882446      8.874810    -0.007636    Cartesian   -0.09
    394 x          5.075684      5.077313     0.001630    Cartesian    0.03
    394 y          2.537842      2.536966    -0.000875    Cartesian   -0.03
    394 z         12.689209     12.699476     0.010267    Cartesian    0.08
    395 x         -7.613525     -7.625445    -0.011919    Cartesian    0.16
    395 y          2.537842      2.537162    -0.000680    Cartesian   -0.03
    395 z          5.075684      5.076679     0.000995    Cartesian    0.02
    396 x         -1.268921     -1.263736     0.005185    Cartesian   -0.41
    396 y          8.882446      8.873795    -0.008651    Cartesian   -0.10
    396 z          8.882446      8.873795    -0.008651    Cartesian   -0.10
    397 x         -1.268921     -1.269605    -0.000684    Cartesian    0.05
    397 y         -6.344605     -6.340635     0.003969    Cartesian   -0.06
    397 z          8.882446      8.878477    -0.003969    Cartesian   -0.04
    398 x          7.613525      7.618806     0.005281    Cartesian    0.07
    398 y         10.151367     10.157359     0.005991    Cartesian    0.06
    398 z          7.613525      7.618610     0.005085    Cartesian    0.07
    399 x          6.344605      6.341550    -0.003054    Cartesian   -0.05
    399 y         -3.806763     -3.805091     0.001671    Cartesian   -0.04
    399 z         11.420288     11.412744    -0.007544    Cartesian   -0.07
    400 x          6.344605      6.341887    -0.002718    Cartesian   -0.04
    400 y         11.420288     11.410898    -0.009391    Cartesian   -0.08
    400 z          6.344605      6.341282    -0.003323    Cartesian   -0.05
    401 x         13.958130     13.943193    -0.014937    Cartesian   -0.11
    401 y          6.344605      6.342285    -0.002320    Cartesian   -0.04
    401 z          1.268921      1.268772    -0.000148    Cartesian   -0.01
    402 x         10.151367     10.158065     0.006698    Cartesian    0.07
    402 y          5.075684      5.079341     0.003658    Cartesian    0.07
    402 z         10.151367     10.157235     0.005868    Cartesian    0.06
    403 x          8.882446      8.878832    -0.003614    Cartesian   -0.04
    403 y         11.420288     11.411679    -0.008609    Cartesian   -0.08
    403 z          3.806763      3.804307    -0.002456    Cartesian   -0.06
    404 x          8.882446      8.877425    -0.005021    Cartesian   -0.06
    404 y          3.806763      3.805611    -0.001152    Cartesian   -0.03
    404 z         -8.882446     -8.874915     0.007531    Cartesian   -0.08
    405 x         12.689209     12.698453     0.009244    Cartesian    0.07
    405 y          5.075684      5.076940     0.001257    Cartesian    0.02
    405 z          7.613525      7.616978     0.003452    Cartesian    0.05
    406 x          0.000000     -0.005973    -0.005973    Cartesian    0.00
    406 y          2.537842      2.543328     0.005486    Cartesian    0.22
    406 z         12.689209     12.698106     0.008897    Cartesian    0.07
--------------------------------------------------------------------------------


  Time to end of optimisation  =      105.7676 seconds


  Peak dynamic memory used =     399.82 MB 


  Timing analysis for GULP :

--------------------------------------------------------------------------------
  Task / Subroutine                                          Time (Seconds)
--------------------------------------------------------------------------------
  Calculation of reciprocal space energy and derivatives          0.0002
  Calculation of reciprocal space energy using symmetry           0.0002
  Calculation of real space energy and derivatives                0.0020
  Calculation of real space energy using symmetry                 0.0069
  Calculation for region 1 energy and derivatives (2-b)          27.0780
  Calculation for region 2a energy                               66.4670
  Calculation for region 2b energy                                0.0086
  Calculation and manipulation of Hessian matrix                 10.9695
  Calculation of matrix inversion                                 0.8096
  Symmetry generation of equivalent positions                     0.0015
--------------------------------------------------------------------------------
  Total CPU time                                                105.7677
--------------------------------------------------------------------------------


  Dump file written as ZrO2.grs


  Job Finished at 13:05.07 14th October    2020                               

