********************************************************************************
*                       GENERAL UTILITY LATTICE PROGRAM                        *
*                                 Julian Gale                                  *
*                       Curtin Institute for Computation                       *
*                    School of Molecular and Life Sciences                     *
*                    Curtin University, Western Australia                      *
********************************************************************************
* Version = 5.2.0 * Last modified =  10th September 2020                       *
********************************************************************************
* Zirconia doped with calcium                                                  *
*  optimise     - perform optimisation run                                     *
*  conp         - constant pressure calculation                                *
*  property     - calculate properties for final geometry                      *
*  defect       - perform defect calculation after bulk run                    *
*  distance     - calculate distances                                          *
*  compare      - compare initial and final structures                         *
********************************************************************************
* Zirconia doped with calcium                                                  *
********************************************************************************


  Job Started  at 13:08.32 14th October    2020                               

  Number of CPUs =     1


  Total number of configurations input =      1

********************************************************************************
*  Input for Configuration =   1 : ZrO2                                        *
********************************************************************************

  Formula = ZrO2                                                        

  Number of irreducible atoms/shells =       4


  Total number atoms/shells =       6

  Dimensionality = 3               :  Bulk   


  Symmetry :

  Crystal family                   :  Cubic       
  Crystal class  (Groth - 1921)    :  Cubic Hexakisoctahedral              

  Space group (centrosymmetric)    :  F M 3 M         

  Patterson group                  :  F m -3 m 

  Cartesian lattice vectors (Angstroms) :

        0.000000    2.535000    2.535000
        2.535000    0.000000    2.535000
        2.535000    2.535000    0.000000

  Primitive cell parameters :            Full cell parameters :

  a =   3.5850    alpha =  60.0000       a =   5.0700    alpha =  90.0000
  b =   3.5850    beta  =  60.0000       b =   5.0700    beta  =  90.0000
  c =   3.5850    gamma =  60.0000       c =   5.0700    gamma =  90.0000

  Initial volumes (Angstroms**3):

  Primitive cell =          32.580961    Full cell =         130.323843

  Temperature of configuration =   0.00     K 

  Pressure of configuration =         0.000 GPa 

  Fractional coordinates of asymmetric unit :

--------------------------------------------------------------------------------
   No.  Atomic       x           y          z         Charge      Occupancy
        Label      (Frac)      (Frac)     (Frac)        (e)         (Frac)  
--------------------------------------------------------------------------------
      1 Zr    c    0.000000    0.000000    0.000000     2.65000    1.000000    
      2 O     c    0.250000    0.250000    0.250000     0.07700    1.000000    
      3 Zr    s    0.000000    0.000000    0.000000     1.35000    1.000000    
      4 O     s    0.250000    0.250000    0.250000    -2.07700    1.000000    
--------------------------------------------------------------------------------


  Constraints : 

--------------------------------------------------------------------------------
  Constraint no.      Unconstrained     Constrained    Coefficient    Offset
                         Variable         Variable
--------------------------------------------------------------------------------
           1              Strain 1        Strain 2       1.00000      0.0000
           2              Strain 1        Strain 3       1.00000      0.0000
--------------------------------------------------------------------------------


  Distance calculation :


  Cutoff for distances  =      4.000000 Angstroms

--------------------------------------------------------------------------------
  Asymmetric unit site  Full lattice sites    No.  Distance      No.  Distance
      No.   At.No.            At.No.                (Angs)             (Angs) 
--------------------------------------------------------------------------------
       1   Zr    core        Zr    core        12    3.5850
                             Zr    shell       12    3.5850
                             O     core         8    2.1954
                             O     shell        8    2.1954
--------------------------------------------------------------------------------
       2   O     core        Zr    core         4    2.1954
                             Zr    shell        4    2.1954
                             O     core         6    2.5350       12    3.5850
                             O     shell        6    2.5350       12    3.5850
--------------------------------------------------------------------------------
       3   Zr    shell       Zr    core        12    3.5850
                             Zr    shell       12    3.5850
                             O     core         8    2.1954
                             O     shell        8    2.1954
--------------------------------------------------------------------------------
       4   O     shell       Zr    core         4    2.1954
                             Zr    shell        4    2.1954
                             O     core         6    2.5350       12    3.5850
                             O     shell        6    2.5350       12    3.5850
--------------------------------------------------------------------------------



********************************************************************************
*  General input information                                                   *
********************************************************************************

  Species output for all configurations : 

--------------------------------------------------------------------------------
  Species    Type    Atomic    Atomic    Charge       Radii (Angs)     Library
                     Number     Mass       (e)     Cova   Ionic  VDW   Symbol
--------------------------------------------------------------------------------
    Zr       Core       40      91.22   2.650000   1.560  0.000  2.330          
    Zr       Shell      40       0.00   1.350000   1.560  0.000  2.330          
    O        Core        8      16.00   0.077000   0.730  0.000  1.360          
    O        Shell       8       0.00  -2.077000   0.730  0.000  1.360          
--------------------------------------------------------------------------------


  Lattice summation method               =    Ewald          (3-D)
                                         =    Parry          (2-D)
                                         =    Saunders et al (1-D)
  Accuracy factor for lattice sums       =   12.000


  Analytic derivatives to be used

  Time limit = Infinity

  Maximum range for interatomic potentials =    100000.000000 Angstroms

  General interatomic potentials :

--------------------------------------------------------------------------------
Atom  Types   Potential      Parameter       Value         Units   Cutoffs(Ang)
  1     2                                                            Min /  Max 
--------------------------------------------------------------------------------
O    s Zr   s Buckingham    Buckingham A     985.86900    eV        0.000 12.000
                            Buckingham rho  0.37600000    Ang       
                            Buckingham C     0.0000000    eV*Ang^6  
--------------------------------------------------------------------------------
O    s O    s Buckingham    Buckingham A     22764.300    eV        0.000 12.000
                            Buckingham rho  0.14900000    Ang       
                            Buckingham C     27.890000    eV*Ang^6  
--------------------------------------------------------------------------------
Zr   c Zr   s Spring (c-s)  Spring k 2       169.61700    eV*Ang^-2 0.000  0.800
                            Spring k 4       0.0000000    eV*Ang^-4 
--------------------------------------------------------------------------------
O    c O    s Spring (c-s)  Spring k 2       27.290000    eV*Ang^-2 0.000  0.800
                            Spring k 4       0.0000000    eV*Ang^-4 
--------------------------------------------------------------------------------

********************************************************************************
*  Output for configuration   1 : ZrO2                                         *
********************************************************************************


  Components of energy : 

--------------------------------------------------------------------------------
  Interatomic potentials     =          22.43756329 eV    
  Monopole - monopole (real) =         -15.67991073 eV    
  Monopole - monopole (recip)=        -116.52038266 eV    
  Monopole - monopole (total)=        -132.20029339 eV    
--------------------------------------------------------------------------------
  Total lattice energy : 
    Primitive unit cell      =        -109.76273010 eV    
    Non-primitive unit cell  =        -439.05092039 eV    
--------------------------------------------------------------------------------
  Total lattice energy (in kJmol-1): 
    Primitive unit cell      =          -10590.4256 kJ/(mole unit cells)
    Non-primitive unit cell  =          -42361.7023 kJ/(mole unit cells)
--------------------------------------------------------------------------------


  Number of variables =        1

  Maximum number of calculations  =          1000
  Maximum Hessian update interval =            10
  Maximum step size               =   1.000000000
  Maximum parameter tolerance     =   0.000010000
  Maximum function  tolerance     =   0.000010000
  Maximum gradient  tolerance     =   0.001000000
  Maximum gradient  component     =   0.010000000

  Symmetry constrained optimisation

  Symmetry used for second derivatives

  Cell parameters to be optimised using strains

  Newton-Raphson optimiser to be used

  BFGS hessian update to be used

  Lower half triangular hessian to be used

  Start of bulk optimisation :

  Cycle:      0 Energy:      -109.762730  Gnorm:      0.588311  CPU:    0.006
  ** Hessian calculated **
  Cycle:      1 Energy:      -109.763059  Gnorm:      0.000316  CPU:    0.009


  **** Optimisation achieved ****


  Final energy =    -109.76305939 eV
  Final Gnorm  =       0.00000099

  Components of energy : 

--------------------------------------------------------------------------------
  Interatomic potentials     =          22.28919976 eV    
  Monopole - monopole (real) =         -15.66235280 eV    
  Monopole - monopole (recip)=        -116.38990634 eV    
  Monopole - monopole (total)=        -132.05225914 eV    
--------------------------------------------------------------------------------
  Total lattice energy : 
    Primitive unit cell      =        -109.76305939 eV    
    Non-primitive unit cell  =        -439.05223754 eV    
--------------------------------------------------------------------------------
  Total lattice energy (in kJmol-1): 
    Primitive unit cell      =          -10590.4573 kJ/(mole unit cells)
    Non-primitive unit cell  =          -42361.8294 kJ/(mole unit cells)
--------------------------------------------------------------------------------

  Final asymmetric unit coordinates :

--------------------------------------------------------------------------------
   No.  Atomic        x           y           z         Radius
        Label       (Frac)      (Frac)      (Frac)       (Angs) 
--------------------------------------------------------------------------------
     1  Zr    c     0.000000    0.000000    0.000000    0.000000
     2  O     c     0.250000    0.250000    0.250000    0.000000
     3  Zr    s     0.000000    0.000000    0.000000    0.000000
     4  O     s     0.250000    0.250000    0.250000    0.000000
--------------------------------------------------------------------------------

  Final Cartesian lattice vectors (Angstroms) :

        0.000000    2.537842    2.537842
        2.537842    0.000000    2.537842
        2.537842    2.537842    0.000000


  Final cell parameters and derivatives :

--------------------------------------------------------------------------------
       a            3.589050 Angstrom     dE/de1(xx)    -0.000001 eV/strain
       b            3.589050 Angstrom     dE/de2(yy)     0.000000 eV/strain
       c            3.589050 Angstrom     dE/de3(zz)     0.000000 eV/strain
       alpha       60.000000 Degrees      dE/de4(yz)     0.000000 eV/strain
       beta        60.000000 Degrees      dE/de5(xz)     0.000000 eV/strain
       gamma       60.000000 Degrees      dE/de6(xy)     0.000000 eV/strain
--------------------------------------------------------------------------------

  Primitive cell volume =            32.690656 Angs**3

  Density of cell =      6.259124 g/cm**3

  Non-primitive lattice parameters :

  a    =     5.075684  b   =     5.075684  c    =     5.075684
  alpha=    90.000000  beta=    90.000000  gamma=    90.000000

  Non-primitive cell volume =           130.762624 Angs**3


  Final internal derivatives :

--------------------------------------------------------------------------------
   No.  Atomic          a             b             c           Radius
        Label          (eV)          (eV)          (eV)        (eV/Angs)
--------------------------------------------------------------------------------
      1 Zr    c       0.000000      0.000000      0.000000      0.000000
      2 O     c       0.000000      0.000000      0.000000      0.000000
      3 Zr    s       0.000000      0.000000      0.000000      0.000000
      4 O     s       0.000000      0.000000      0.000000      0.000000
--------------------------------------------------------------------------------
  Maximum abs         0.000000      0.000000      0.000000      0.000000
--------------------------------------------------------------------------------

  Comparison of initial and final structures : 

--------------------------------------------------------------------------------
  Parameter   Initial value   Final value   Difference    Units      Percent
--------------------------------------------------------------------------------
    Volume       130.323843    130.762624     0.438781    Angs**3      0.34
    a              5.070000      5.075684     0.005684    Angstroms    0.11
    b              5.070000      5.075684     0.005684    Angstroms    0.11
    c              5.070000      5.075684     0.005684    Angstroms    0.11
    alpha         90.000000     90.000000     0.000000    Degrees      0.00
    beta          90.000000     90.000000     0.000000    Degrees      0.00
    gamma         90.000000     90.000000     0.000000    Degrees      0.00
      1 x          0.000000      0.000000     0.000000    Fractional   0.00
      1 y          0.000000      0.000000     0.000000    Fractional   0.00
      1 z          0.000000      0.000000     0.000000    Fractional   0.00
      2 x          0.250000      0.250000     0.000000    Fractional   0.00
      2 y          0.250000      0.250000     0.000000    Fractional   0.00
      2 z          0.250000      0.250000     0.000000    Fractional   0.00
      3 x          0.000000      0.000000     0.000000    Fractional   0.00
      3 y          0.000000      0.000000     0.000000    Fractional   0.00
      3 z          0.000000      0.000000     0.000000    Fractional   0.00
      4 x          0.250000      0.250000     0.000000    Fractional   0.00
      4 y          0.250000      0.250000     0.000000    Fractional   0.00
      4 z          0.250000      0.250000     0.000000    Fractional   0.00
--------------------------------------------------------------------------------


  Distance calculation :


  Cutoff for distances  =      4.000000 Angstroms

--------------------------------------------------------------------------------
  Asymmetric unit site  Full lattice sites    No.  Distance      No.  Distance
      No.   At.No.            At.No.                (Angs)             (Angs) 
--------------------------------------------------------------------------------
       1   Zr    core        Zr    core        12    3.5891
                             Zr    shell       12    3.5891
                             O     core         8    2.1978
                             O     shell        8    2.1978
--------------------------------------------------------------------------------
       2   O     core        Zr    core         4    2.1978
                             Zr    shell        4    2.1978
                             O     core         6    2.5378       12    3.5891
                             O     shell        6    2.5378       12    3.5891
--------------------------------------------------------------------------------
       3   Zr    shell       Zr    core        12    3.5891
                             Zr    shell       12    3.5891
                             O     core         8    2.1978
                             O     shell        8    2.1978
--------------------------------------------------------------------------------
       4   O     shell       Zr    core         4    2.1978
                             Zr    shell        4    2.1978
                             O     core         6    2.5378       12    3.5891
                             O     shell        6    2.5378       12    3.5891
--------------------------------------------------------------------------------



  Born effective charge tensors : 

-------------------------------------------------------------------------------
  Atom             x           y             z
-------------------------------------------------------------------------------
    1 Zr    x       3.6770      0.0000      0.0000
            y       0.0000      3.6770      0.0000
            z       0.0000      0.0000      3.6770
-------------------------------------------------------------------------------
    2 O     x      -1.8385      0.0000      0.0000
            y       0.0000     -1.8385     -0.0000
            z       0.0000     -0.0000     -1.8385
-------------------------------------------------------------------------------




  Elastic Constant Matrix: (Units=GPa)

-------------------------------------------------------------------------------
  Indices      1         2         3         4         5         6    
-------------------------------------------------------------------------------
       1    616.2933  119.6612  119.6612   -0.0000   -0.0000   -0.0000
       2    119.6612  616.2933  119.6612   -0.0000   -0.0000   -0.0000
       3    119.6612  119.6612  616.2933   -0.0000   -0.0000   -0.0000
       4     -0.0000   -0.0000   -0.0000  100.8598    0.0000   -0.0000
       5     -0.0000   -0.0000   -0.0000    0.0000  100.8598    0.0000
       6     -0.0000   -0.0000   -0.0000   -0.0000    0.0000  100.8598
-------------------------------------------------------------------------------


  Elastic Compliance Matrix: (Units=1/GPa)

-------------------------------------------------------------------------------
  Indices      1         2         3         4         5         6    
-------------------------------------------------------------------------------
       1    0.001732 -0.000282 -0.000282  0.000000  0.000000  0.000000
       2   -0.000282  0.001732 -0.000282 -0.000000  0.000000  0.000000
       3   -0.000282 -0.000282  0.001732  0.000000  0.000000  0.000000
       4    0.000000 -0.000000  0.000000  0.009915 -0.000000  0.000000
       5    0.000000  0.000000  0.000000 -0.000000  0.009915 -0.000000
       6    0.000000  0.000000  0.000000  0.000000 -0.000000  0.009915
-------------------------------------------------------------------------------

  Mechanical properties :

-------------------------------------------------------------------------------
  Convention :                    Reuss         Voigt         Hill
-------------------------------------------------------------------------------
  Bulk  Modulus (GPa)     =     285.20524     285.20524     285.20524
  Shear Modulus (GPa)     =     132.28031     159.84228     146.06129
-------------------------------------------------------------------------------
  Velocity S-wave (km/s)  =       4.59717       5.05346       4.83071
  Velocity P-wave (km/s)  =       8.58749       8.92280       8.75675
-------------------------------------------------------------------------------
  Compressibility (1/GPa) =    0.00350625
-------------------------------------------------------------------------------
  Stress axis :                     x             y             z
-------------------------------------------------------------------------------
  Youngs Moduli (GPa)     =     577.38110     577.38110     577.38110
-------------------------------------------------------------------------------
  Poissons Ratio (x)      =                     0.16259       0.16259
  Poissons Ratio (y)      =       0.16259                     0.16259
  Poissons Ratio (z)      =       0.16259       0.16259
-------------------------------------------------------------------------------


  Piezoelectric Strain Matrix: (Units=C/m**2)

-------------------------------------------------------------------------------
  Indices      1         2         3         4         5         6    
-------------------------------------------------------------------------------
       x    -0.00000   0.00000   0.00000   0.00000   0.00000   0.00000
       y    -0.00000  -0.00000  -0.00000   0.00000   0.00000   0.00000
       z    -0.00000  -0.00000  -0.00000   0.00000   0.00000   0.00000
-------------------------------------------------------------------------------


  Piezoelectric Stress Matrix: (Units=10**-11 C/N)

-------------------------------------------------------------------------------
  Indices      1         2         3         4         5         6    
-------------------------------------------------------------------------------
       x    -0.00000   0.00000   0.00000   0.00000   0.00000   0.00000
       y    -0.00000  -0.00000  -0.00000   0.00000   0.00000   0.00000
       z     0.00000   0.00000  -0.00000   0.00000   0.00000   0.00000
-------------------------------------------------------------------------------


  Static dielectric constant tensor : 

-------------------------------------------------------------------------------
              x         y         z
-------------------------------------------------------------------------------
       x    26.88485   0.00000   0.00000
       y     0.00000  26.88485   0.00000
       z     0.00000   0.00000  26.88485
--------------------------------------------------------------------------------

  High frequency dielectric constant tensor : 

-------------------------------------------------------------------------------
              x         y         z
-------------------------------------------------------------------------------
       x     2.63099   0.00000   0.00000
       y     0.00000   2.63099   0.00000
       z     0.00000   0.00000   2.63099
-------------------------------------------------------------------------------

  Static refractive indices : 

-------------------------------------------------------------------------------
    1 =    5.18506      2 =    5.18506      3 =    5.18506
-------------------------------------------------------------------------------

  High frequency refractive indices : 

-------------------------------------------------------------------------------
    1 =    1.62203      2 =    1.62203      3 =    1.62203
-------------------------------------------------------------------------------


  Time to end of optimisation =       0.0147 seconds

********************************************************************************
*  Defect calculation for configuration   1 :                                  *
********************************************************************************

  Total number of defects =      3

  Total charge on defect  =   2.00

  Defect centre is at   0.6900   0.2500   0.2500  Frac

  Region 1 radius =  12.0000      Number of ions =   1336

  Number of symmetry inequivalent region 1 ions  =    410

  Region 2 radius =  24.0000      Number of ions =   9296

  Number of symmetry inequivalent region 2a ions =   2556

  Region 2a mode = 4 : screened electrostatics due to region 1 
                       neglect correction to region 1 forces from 2a
                       region 2a displacements based on defects only

  Region 2a ions will only interact with defects in region 1

  Vacancies:

--------------------------------------------------------------------------------
    Specification type     Symbol/Number         x          y          z
--------------------------------------------------------------------------------
    Fractional                               0.250000   0.250000   0.250000
    Fractional                               0.750000   0.250000   0.250000
--------------------------------------------------------------------------------

  Interstitials:

--------------------------------------------------------------------------------
    Specification type     Symbol/Number         x          y          z
--------------------------------------------------------------------------------
    Atom/Fractional         O                0.690000   0.250000   0.250000
--------------------------------------------------------------------------------


  Symmetry reduced region 1 (Relative to defect centre) :

--------------------------------------------------------------------------------
   No.   Atomic       x            y             z       Radius  Multiplicity   
         Label      (Angs)       (Angs)        (Angs)    (Angs)     
--------------------------------------------------------------------------------
     1  O     c      0.0000       0.0000       0.0000    0.0000     1    Defect
     2  Zr    c     -0.9644 *    -1.2689 *     1.2689    0.0000     2          
     3  Zr    c      1.5735 *    -1.2689 *    -1.2689    0.0000     2          
     4  O     c      0.3045 *     2.5378 *     0.0000 *  0.0000     4          
     5  O     c      2.8424 *     0.0000       0.0000    0.0000     1          
     6  O     c     -2.2333 *    -0.0000 *     2.5378 *  0.0000     4          
     7  O     c      0.3045 *     2.5378 *     2.5378    0.0000     2          
     8  O     c      0.3045 *    -2.5378 *     2.5378    0.0000     2          
     9  O     c      2.8424 *     2.5378 *    -0.0000 *  0.0000     4          
    10  Zr    c     -3.5022 *    -1.2689 *    -1.2689    0.0000     2          
    11  Zr    c     -0.9644 *     1.2689 *     3.8068 *  0.0000     4          
    12  O     c     -2.2333 *     2.5378 *    -2.5378    0.0000     2          
    13  O     c     -2.2333 *     2.5378 *     2.5378    0.0000     2          
    14  Zr    c      1.5735 *    -3.8068 *     1.2689 *  0.0000     4          
    15  Zr    c      4.1113 *     1.2689 *    -1.2689    0.0000     2          
    16  O     c      2.8424 *     2.5378 *     2.5378    0.0000     2          
    17  O     c      2.8424 *     2.5378 *    -2.5378    0.0000     2          
    18  O     c     -4.7711 *    -0.0000      -0.0000    0.0000     1          
    19  O     c      0.3045 *    -0.0000 *     5.0757 *  0.0000     4          
    20  Zr    c     -3.5022 *     1.2689 *    -3.8068 *  0.0000     4          
    21  O     c      5.3802 *    -0.0000      -0.0000    0.0000     1          
    22  O     c     -4.7711 *    -2.5378 *     0.0000 *  0.0000     4          
    23  Zr    c     -0.9644 *    -3.8068 *     3.8068    0.0000     2          
    24  O     c     -2.2333 *    -5.0757 *     0.0000 *  0.0000     4          
    25  Zr    c      1.5735 *     3.8068 *     3.8068    0.0000     2          
    26  O     c      0.3045 *    -5.0757 *     2.5378 *  0.0000     4          
    27  O     c      0.3045 *     5.0757 *     2.5378 *  0.0000     4          
    28  Zr    c      4.1113 *    -3.8068 *    -1.2689 *  0.0000     4          
    29  O     c      2.8424 *     5.0757 *     0.0000 *  0.0000     4          
    30  O     c      5.3802 *     2.5378 *     0.0000 *  0.0000     4          
    31  O     c     -4.7711 *     2.5378 *     2.5378    0.0000     2          
    32  O     c     -4.7711 *    -2.5378 *     2.5378    0.0000     2          
    33  O     c     -2.2333 *     5.0757 *     2.5378 *  0.0000     4          
    34  O     c     -2.2333 *    -2.5378 *     5.0757 *  0.0000     4          
    35  Zr    c     -6.0401 *    -1.2689 *     1.2689    0.0000     2          
    36  O     c      2.8424 *     5.0757 *     2.5378 *  0.0000     4          
    37  O     c      2.8424 *    -2.5378 *     5.0757 *  0.0000     4          
    38  Zr    c     -3.5022 *     3.8068 *     3.8068    0.0000     2          
    39  O     c      5.3802 *     2.5378 *     2.5378    0.0000     2          
    40  O     c      5.3802 *     2.5378 *    -2.5378    0.0000     2          
    41  Zr    c     -0.9644 *    -6.3446 *     1.2689 *  0.0000     4          
    42  Zr    c      1.5735 *     6.3446 *     1.2689 *  0.0000     4          
    43  Zr    c      4.1113 *    -3.8068 *     3.8068    0.0000     2          
    44  Zr    c      6.6491 *    -1.2689 *    -1.2689    0.0000     2          
    45  O     c     -4.7711 *    -0.0000 *     5.0757 *  0.0000     4          
    46  O     c      0.3045 *     5.0757 *     5.0757    0.0000     2          
    47  O     c      0.3045 *    -5.0757 *     5.0757    0.0000     2          
    48  Zr    c     -6.0401 *     1.2689 *     3.8068 *  0.0000     4          
    49  O     c     -7.3090 *     0.0000       0.0000    0.0000     1          
    50  Zr    c     -3.5022 *    -1.2689 *    -6.3446 *  0.0000     4          
    51  O     c      5.3802 *     5.0757 *    -0.0000 *  0.0000     4          
    52  O     c     -4.7711 *     5.0757 *     2.5378 *  0.0000     4          
    53  O     c     -4.7711 *    -5.0757 *     2.5378 *  0.0000     4          
    54  Zr    c     -0.9644 *     3.8068 *     6.3446 *  0.0000     4          
    55  O     c     -2.2333 *     5.0757 *     5.0757    0.0000     2          
    56  O     c     -2.2333 *    -5.0757 *     5.0757    0.0000     2          
    57  Zr    c      1.5735 *    -6.3446 *     3.8068 *  0.0000     4          
    58  O     c      0.3045 *     0.0000 *     7.6135 *  0.0000     4          
    59  Zr    c      4.1113 *    -1.2689 *     6.3446 *  0.0000     4          
    60  O     c      2.8424 *    -5.0757 *    -5.0757    0.0000     2          
    61  O     c      2.8424 *    -5.0757 *     5.0757    0.0000     2          
    62  O     c     -7.3090 *    -0.0000 *     2.5378 *  0.0000     4          
    63  Zr    c      6.6491 *     3.8068 *    -1.2689 *  0.0000     4          
    64  O     c      5.3802 *     5.0757 *    -2.5378 *  0.0000     4          
    65  O     c      5.3802 *     5.0757 *     2.5378 *  0.0000     4          
    66  O     c      7.9181 *     0.0000       0.0000    0.0000     1          
    67  O     c     -2.2333 *    -0.0000 *     7.6135 *  0.0000     4          
    68  O     c      0.3045 *    -2.5378 *     7.6135 *  0.0000     4          
    69  O     c      0.3045 *     2.5378 *     7.6135 *  0.0000     4          
    70  Zr    c     -6.0401 *    -3.8068 *     3.8068    0.0000     2          
    71  O     c      2.8424 *    -0.0000 *     7.6135 *  0.0000     4          
    72  O     c     -7.3090 *     2.5378 *     2.5378    0.0000     2          
    73  O     c     -7.3090 *    -2.5378 *     2.5378    0.0000     2          
    74  Zr    c     -3.5022 *    -6.3446 *     3.8068 *  0.0000     4          
    75  O     c      7.9181 *     2.5378 *    -0.0000 *  0.0000     4          
    76  O     c     -2.2333 *     2.5378 *     7.6135 *  0.0000     4          
    77  O     c     -2.2333 *    -7.6135 *     2.5378 *  0.0000     4          
    78  Zr    c      4.1113 *     6.3446 *     3.8068 *  0.0000     4          
    79  O     c      2.8424 *    -2.5378 *     7.6135 *  0.0000     4          
    80  O     c      2.8424 *     7.6135 *     2.5378 *  0.0000     4          
    81  Zr    c      6.6491 *     3.8068 *     3.8068    0.0000     2          
    82  O     c     -4.7711 *     5.0757 *     5.0757    0.0000     2          
    83  O     c     -4.7711 *    -5.0757 *     5.0757    0.0000     2          
    84  O     c      7.9181 *     2.5378 *     2.5378    0.0000     2          
    85  O     c      7.9181 *     2.5378 *    -2.5378    0.0000     2          
    86  Zr    c     -8.5779 *    -1.2689 *    -1.2689    0.0000     2          
    87  Zr    c     -6.0401 *    -6.3446 *     1.2689 *  0.0000     4          
    88  O     c     -7.3090 *     5.0757 *     0.0000 *  0.0000     4          
    89  O     c      5.3802 *     5.0757 *     5.0757    0.0000     2          
    90  O     c      5.3802 *    -5.0757 *     5.0757    0.0000     2          
    91  O     c     -4.7711 *    -7.6135 *     0.0000 *  0.0000     4          
    92  Zr    c     -0.9644 *    -6.3446 *     6.3446    0.0000     2          
    93  Zr    c     -0.9644 *     1.2689 *     8.8824 *  0.0000     4          
    94  Zr    c      1.5735 *     6.3446 *     6.3446    0.0000     2          
    95  Zr    c      1.5735 *    -1.2689 *     8.8824 *  0.0000     4          
    96  O     c      0.3045 *     5.0757 *     7.6135 *  0.0000     4          
    97  O     c      0.3045 *    -7.6135 *     5.0757 *  0.0000     4          
    98  O     c     -7.3090 *    -2.5378 *     5.0757 *  0.0000     4          
    99  O     c     -7.3090 *     2.5378 *     5.0757 *  0.0000     4          
   100  Zr    c      6.6491 *     6.3446 *     1.2689 *  0.0000     4          
   101  O     c      5.3802 *     7.6135 *     0.0000 *  0.0000     4          
   102  O     c     -4.7711 *    -2.5378 *     7.6135 *  0.0000     4          
   103  O     c     -4.7711 *     2.5378 *     7.6135 *  0.0000     4          
   104  Zr    c      9.1870 *     1.2689 *    -1.2689    0.0000     2          
   105  O     c      7.9181 *     5.0757 *     0.0000 *  0.0000     4          
   106  O     c     -2.2333 *     5.0757 *     7.6135 *  0.0000     4          
   107  O     c     -2.2333 *    -7.6135 *     5.0757 *  0.0000     4          
   108  Zr    c     -8.5779 *    -1.2689 *     3.8068 *  0.0000     4          
   109  Zr    c     -6.0401 *    -6.3446 *    -3.8068 *  0.0000     4          
   110  O     c      2.8424 *     7.6135 *     5.0757 *  0.0000     4          
   111  O     c      2.8424 *     7.6135 *    -5.0757 *  0.0000     4          
   112  Zr    c     -3.5022 *     6.3446 *     6.3446    0.0000     2          
   113  Zr    c     -3.5022 *    -8.8824 *     1.2689 *  0.0000     4          
   114  O     c      5.3802 *    -2.5378 *     7.6135 *  0.0000     4          
   115  O     c      5.3802 *     7.6135 *     2.5378 *  0.0000     4          
   116  Zr    c     -0.9644 *    -8.8824 *     3.8068 *  0.0000     4          
   117  O     c      7.9181 *     2.5378 *     5.0757 *  0.0000     4          
   118  O     c      7.9181 *     5.0757 *    -2.5378 *  0.0000     4          
   119  Zr    c      1.5735 *     3.8068 *     8.8824 *  0.0000     4          
   120  O     c     -9.8468 *    -0.0000      -0.0000    0.0000     1          
   121  Zr    c      4.1113 *    -6.3446 *     6.3446    0.0000     2          
   122  Zr    c      4.1113 *     1.2689 *     8.8824 *  0.0000     4          
   123  Zr    c      6.6491 *     6.3446 *    -3.8068 *  0.0000     4          
   124  Zr    c      9.1870 *     3.8068 *     1.2689 *  0.0000     4          
   125  Zr    c     -8.5779 *    -3.8068 *    -3.8068    0.0000     2          
   126  O     c      0.3045 *    -0.0000 *    10.1514 *  0.0000     4          
   127  O     c     -9.8468 *    -2.5378 *     0.0000 *  0.0000     4          
   128  O     c     -7.3090 *     5.0757 *     5.0757    0.0000     2          
   129  O     c     -7.3090 *    -5.0757 *     5.0757    0.0000     2          
   130  Zr    c     -3.5022 *     3.8068 *     8.8824 *  0.0000     4          
   131  O     c     -4.7711 *    -7.6135 *     5.0757 *  0.0000     4          
   132  O     c     -4.7711 *     5.0757 *     7.6135 *  0.0000     4          
   133  O     c     -2.2333 *    -0.0000 *    10.1514 *  0.0000     4          
   134  O     c     10.4559 *    -0.0000      -0.0000    0.0000     1          
   135  O     c      0.3045 *     2.5378 *    10.1514 *  0.0000     4          
   136  O     c      0.3045 *    -2.5378 *    10.1514 *  0.0000     4          
   137  O     c     -9.8468 *    -2.5378 *    -2.5378    0.0000     2          
   138  O     c     -9.8468 *    -2.5378 *     2.5378    0.0000     2          
   139  Zr    c      4.1113 *    -3.8068 *     8.8824 *  0.0000     4          
   140  O     c      2.8424 *     0.0000 *    10.1514 *  0.0000     4          
   141  O     c     -7.3090 *    -0.0000 *     7.6135 *  0.0000     4          
   142  O     c      5.3802 *    -7.6135 *    -5.0757 *  0.0000     4          
   143  O     c      5.3802 *    -5.0757 *     7.6135 *  0.0000     4          
   144  Zr    c      9.1870 *     3.8068 *    -3.8068    0.0000     2          
   145  O     c      7.9181 *     5.0757 *     5.0757    0.0000     2          
   146  O     c      7.9181 *     5.0757 *    -5.0757    0.0000     2          
   147  O     c     -2.2333 *    -2.5378 *    10.1514 *  0.0000     4          
   148  O     c     -2.2333 *     2.5378 *    10.1514 *  0.0000     4          
   149  Zr    c     -8.5779 *    -6.3446 *    -1.2689 *  0.0000     4          
   150  O     c     10.4559 *     2.5378 *     0.0000 *  0.0000     4          
   151  O     c      0.3045 *     7.6135 *     7.6135    0.0000     2          
   152  O     c      0.3045 *    -7.6135 *     7.6135    0.0000     2          
   153  Zr    c     -6.0401 *    -8.8824 *    -1.2689 *  0.0000     4          
   154  Zr    c     -6.0401 *    -6.3446 *     6.3446    0.0000     2          
   155  O     c      2.8424 *    10.1514 *    -2.5378 *  0.0000     4          
   156  O     c      2.8424 *     2.5378 *    10.1514 *  0.0000     4          
   157  O     c     -7.3090 *    -7.6135 *    -2.5378 *  0.0000     4          
   158  O     c     -7.3090 *    -7.6135 *     2.5378 *  0.0000     4          
   159  Zr    c     -0.9644 *     6.3446 *     8.8824 *  0.0000     4          
   160  O     c      7.9181 *     7.6135 *    -0.0000 *  0.0000     4          
   161  O     c     -2.2333 *    -7.6135 *     7.6135    0.0000     2          
   162  O     c     -2.2333 *     7.6135 *     7.6135    0.0000     2          
   163  Zr    c      1.5735 *    -8.8824 *     6.3446 *  0.0000     4          
   164  O     c     10.4559 *     2.5378 *     2.5378    0.0000     2          
   165  O     c     10.4559 *     2.5378 *    -2.5378    0.0000     2          
   166  O     c     -9.8468 *    -0.0000 *     5.0757 *  0.0000     4          
   167  O     c      2.8424 *    -7.6135 *     7.6135    0.0000     2          
   168  O     c      2.8424 *     7.6135 *     7.6135    0.0000     2          
   169  Zr    c      6.6491 *     6.3446 *     6.3446    0.0000     2          
   170  Zr    c      6.6491 *    -1.2689 *     8.8824 *  0.0000     4          
   171  O     c     -4.7711 *    -0.0000 *    10.1514 *  0.0000     4          
   172  Zr    c      9.1870 *    -1.2689 *     6.3446 *  0.0000     4          
   173  Zr    c    -11.1157 *    -1.2689 *     1.2689    0.0000     2          
   174  O     c      7.9181 *     7.6135 *    -2.5378 *  0.0000     4          
   175  O     c      7.9181 *     7.6135 *     2.5378 *  0.0000     4          
   176  Zr    c     -8.5779 *     3.8068 *    -6.3446 *  0.0000     4          
   177  O     c      0.3045 *    -5.0757 *    10.1514 *  0.0000     4          
   178  O     c      0.3045 *     5.0757 *    10.1514 *  0.0000     4          
   179  O     c     -9.8468 *     5.0757 *     2.5378 *  0.0000     4          
   180  O     c     -9.8468 *    -5.0757 *     2.5378 *  0.0000     4          
   181  Zr    c     -6.0401 *    -8.8824 *     3.8068 *  0.0000     4          
   182  Zr    c     -3.5022 *     6.3446 *    -8.8824 *  0.0000     4          
   183  O     c      5.3802 *    -0.0000 *    10.1514 *  0.0000     4          
   184  O     c     -4.7711 *   -10.1514 *     2.5378 *  0.0000     4          
   185  O     c     -4.7711 *    10.1514 *     2.5378 *  0.0000     4          
   186  Zr    c     -0.9644 *    -1.2689 *    11.4203 *  0.0000     4          
   187  O     c     -2.2333 *   -10.1514 *     5.0757 *  0.0000     4          
   188  O     c     -2.2333 *     5.0757 *    10.1514 *  0.0000     4          
   189  Zr    c      1.5735 *     1.2689 *    11.4203 *  0.0000     4          
   190  O     c     10.4559 *     5.0757 *    -0.0000 *  0.0000     4          
   191  Zr    c      4.1113 *     8.8824 *     6.3446 *  0.0000     4          
   192  O     c      2.8424 *    10.1514 *    -5.0757 *  0.0000     4          
   193  O     c      2.8424 *    10.1514 *     5.0757 *  0.0000     4          
   194  O     c     -7.3090 *     5.0757 *     7.6135 *  0.0000     4          
   195  O     c     -7.3090 *    -7.6135 *     5.0757 *  0.0000     4          
   196  Zr    c      6.6491 *     3.8068 *     8.8824 *  0.0000     4          
   197  O     c      5.3802 *    -2.5378 *    10.1514 *  0.0000     4          
   198  O     c      5.3802 *    10.1514 *     2.5378 *  0.0000     4          
   199  O     c     -4.7711 *     7.6135 *     7.6135    0.0000     2          
   200  O     c     -4.7711 *    -7.6135 *     7.6135    0.0000     2          
   201  Zr    c      9.1870 *     3.8068 *     6.3446 *  0.0000     4          
   202  Zr    c    -11.1157 *    -3.8068 *    -1.2689 *  0.0000     4          
   203  Zr    c     11.7248 *     1.2689 *     1.2689    0.0000     2          
   204  O     c     10.4559 *     5.0757 *     2.5378 *  0.0000     4          
   205  O     c     10.4559 *     2.5378 *    -5.0757 *  0.0000     4          
   206  O     s      0.0000       0.0000       0.0000    0.0000     1    Defect
   207  Zr    s     -0.9644 *    -1.2689 *     1.2689    0.0000     2          
   208  Zr    s      1.5735 *    -1.2689 *    -1.2689    0.0000     2          
   209  O     s      0.3045 *     2.5378 *     0.0000 *  0.0000     4          
   210  O     s      2.8424 *     0.0000       0.0000    0.0000     1          
   211  O     s     -2.2333 *    -0.0000 *     2.5378 *  0.0000     4          
   212  O     s      0.3045 *     2.5378 *     2.5378    0.0000     2          
   213  O     s      0.3045 *    -2.5378 *     2.5378    0.0000     2          
   214  O     s      2.8424 *     2.5378 *    -0.0000 *  0.0000     4          
   215  Zr    s     -3.5022 *    -1.2689 *    -1.2689    0.0000     2          
   216  Zr    s     -0.9644 *     1.2689 *     3.8068 *  0.0000     4          
   217  O     s     -2.2333 *     2.5378 *    -2.5378    0.0000     2          
   218  O     s     -2.2333 *     2.5378 *     2.5378    0.0000     2          
   219  Zr    s      1.5735 *    -3.8068 *     1.2689 *  0.0000     4          
   220  Zr    s      4.1113 *     1.2689 *    -1.2689    0.0000     2          
   221  O     s      2.8424 *     2.5378 *     2.5378    0.0000     2          
   222  O     s      2.8424 *     2.5378 *    -2.5378    0.0000     2          
   223  O     s     -4.7711 *    -0.0000      -0.0000    0.0000     1          
   224  O     s      0.3045 *    -0.0000 *     5.0757 *  0.0000     4          
   225  Zr    s     -3.5022 *     1.2689 *    -3.8068 *  0.0000     4          
   226  O     s      5.3802 *    -0.0000      -0.0000    0.0000     1          
   227  O     s     -4.7711 *    -2.5378 *     0.0000 *  0.0000     4          
   228  Zr    s     -0.9644 *    -3.8068 *     3.8068    0.0000     2          
   229  O     s     -2.2333 *    -5.0757 *     0.0000 *  0.0000     4          
   230  Zr    s      1.5735 *     3.8068 *     3.8068    0.0000     2          
   231  O     s      0.3045 *    -5.0757 *     2.5378 *  0.0000     4          
   232  O     s      0.3045 *     5.0757 *     2.5378 *  0.0000     4          
   233  Zr    s      4.1113 *    -3.8068 *    -1.2689 *  0.0000     4          
   234  O     s      2.8424 *     5.0757 *     0.0000 *  0.0000     4          
   235  O     s      5.3802 *     2.5378 *     0.0000 *  0.0000     4          
   236  O     s     -4.7711 *     2.5378 *     2.5378    0.0000     2          
   237  O     s     -4.7711 *    -2.5378 *     2.5378    0.0000     2          
   238  O     s     -2.2333 *     5.0757 *     2.5378 *  0.0000     4          
   239  O     s     -2.2333 *    -2.5378 *     5.0757 *  0.0000     4          
   240  Zr    s     -6.0401 *    -1.2689 *     1.2689    0.0000     2          
   241  O     s      2.8424 *     5.0757 *     2.5378 *  0.0000     4          
   242  O     s      2.8424 *    -2.5378 *     5.0757 *  0.0000     4          
   243  Zr    s     -3.5022 *     3.8068 *     3.8068    0.0000     2          
   244  O     s      5.3802 *     2.5378 *     2.5378    0.0000     2          
   245  O     s      5.3802 *     2.5378 *    -2.5378    0.0000     2          
   246  Zr    s     -0.9644 *    -6.3446 *     1.2689 *  0.0000     4          
   247  Zr    s      1.5735 *     6.3446 *     1.2689 *  0.0000     4          
   248  Zr    s      4.1113 *    -3.8068 *     3.8068    0.0000     2          
   249  Zr    s      6.6491 *    -1.2689 *    -1.2689    0.0000     2          
   250  O     s     -4.7711 *    -0.0000 *     5.0757 *  0.0000     4          
   251  O     s      0.3045 *     5.0757 *     5.0757    0.0000     2          
   252  O     s      0.3045 *    -5.0757 *     5.0757    0.0000     2          
   253  Zr    s     -6.0401 *     1.2689 *     3.8068 *  0.0000     4          
   254  O     s     -7.3090 *     0.0000       0.0000    0.0000     1          
   255  Zr    s     -3.5022 *    -1.2689 *    -6.3446 *  0.0000     4          
   256  O     s      5.3802 *     5.0757 *    -0.0000 *  0.0000     4          
   257  O     s     -4.7711 *     5.0757 *     2.5378 *  0.0000     4          
   258  O     s     -4.7711 *    -5.0757 *     2.5378 *  0.0000     4          
   259  Zr    s     -0.9644 *     3.8068 *     6.3446 *  0.0000     4          
   260  O     s     -2.2333 *     5.0757 *     5.0757    0.0000     2          
   261  O     s     -2.2333 *    -5.0757 *     5.0757    0.0000     2          
   262  Zr    s      1.5735 *    -6.3446 *     3.8068 *  0.0000     4          
   263  O     s      0.3045 *     0.0000 *     7.6135 *  0.0000     4          
   264  Zr    s      4.1113 *    -1.2689 *     6.3446 *  0.0000     4          
   265  O     s      2.8424 *    -5.0757 *    -5.0757    0.0000     2          
   266  O     s      2.8424 *    -5.0757 *     5.0757    0.0000     2          
   267  O     s     -7.3090 *    -0.0000 *     2.5378 *  0.0000     4          
   268  Zr    s      6.6491 *     3.8068 *    -1.2689 *  0.0000     4          
   269  O     s      5.3802 *     5.0757 *    -2.5378 *  0.0000     4          
   270  O     s      5.3802 *     5.0757 *     2.5378 *  0.0000     4          
   271  O     s      7.9181 *     0.0000       0.0000    0.0000     1          
   272  O     s     -2.2333 *    -0.0000 *     7.6135 *  0.0000     4          
   273  O     s      0.3045 *    -2.5378 *     7.6135 *  0.0000     4          
   274  O     s      0.3045 *     2.5378 *     7.6135 *  0.0000     4          
   275  Zr    s     -6.0401 *    -3.8068 *     3.8068    0.0000     2          
   276  O     s      2.8424 *    -0.0000 *     7.6135 *  0.0000     4          
   277  O     s     -7.3090 *     2.5378 *     2.5378    0.0000     2          
   278  O     s     -7.3090 *    -2.5378 *     2.5378    0.0000     2          
   279  Zr    s     -3.5022 *    -6.3446 *     3.8068 *  0.0000     4          
   280  O     s      7.9181 *     2.5378 *    -0.0000 *  0.0000     4          
   281  O     s     -2.2333 *     2.5378 *     7.6135 *  0.0000     4          
   282  O     s     -2.2333 *    -7.6135 *     2.5378 *  0.0000     4          
   283  Zr    s      4.1113 *     6.3446 *     3.8068 *  0.0000     4          
   284  O     s      2.8424 *    -2.5378 *     7.6135 *  0.0000     4          
   285  O     s      2.8424 *     7.6135 *     2.5378 *  0.0000     4          
   286  Zr    s      6.6491 *     3.8068 *     3.8068    0.0000     2          
   287  O     s     -4.7711 *     5.0757 *     5.0757    0.0000     2          
   288  O     s     -4.7711 *    -5.0757 *     5.0757    0.0000     2          
   289  O     s      7.9181 *     2.5378 *     2.5378    0.0000     2          
   290  O     s      7.9181 *     2.5378 *    -2.5378    0.0000     2          
   291  Zr    s     -8.5779 *    -1.2689 *    -1.2689    0.0000     2          
   292  Zr    s     -6.0401 *    -6.3446 *     1.2689 *  0.0000     4          
   293  O     s     -7.3090 *     5.0757 *     0.0000 *  0.0000     4          
   294  O     s      5.3802 *     5.0757 *     5.0757    0.0000     2          
   295  O     s      5.3802 *    -5.0757 *     5.0757    0.0000     2          
   296  O     s     -4.7711 *    -7.6135 *     0.0000 *  0.0000     4          
   297  Zr    s     -0.9644 *    -6.3446 *     6.3446    0.0000     2          
   298  Zr    s     -0.9644 *     1.2689 *     8.8824 *  0.0000     4          
   299  Zr    s      1.5735 *     6.3446 *     6.3446    0.0000     2          
   300  Zr    s      1.5735 *    -1.2689 *     8.8824 *  0.0000     4          
   301  O     s      0.3045 *     5.0757 *     7.6135 *  0.0000     4          
   302  O     s      0.3045 *    -7.6135 *     5.0757 *  0.0000     4          
   303  O     s     -7.3090 *    -2.5378 *     5.0757 *  0.0000     4          
   304  O     s     -7.3090 *     2.5378 *     5.0757 *  0.0000     4          
   305  Zr    s      6.6491 *     6.3446 *     1.2689 *  0.0000     4          
   306  O     s      5.3802 *     7.6135 *     0.0000 *  0.0000     4          
   307  O     s     -4.7711 *    -2.5378 *     7.6135 *  0.0000     4          
   308  O     s     -4.7711 *     2.5378 *     7.6135 *  0.0000     4          
   309  Zr    s      9.1870 *     1.2689 *    -1.2689    0.0000     2          
   310  O     s      7.9181 *     5.0757 *     0.0000 *  0.0000     4          
   311  O     s     -2.2333 *     5.0757 *     7.6135 *  0.0000     4          
   312  O     s     -2.2333 *    -7.6135 *     5.0757 *  0.0000     4          
   313  Zr    s     -8.5779 *    -1.2689 *     3.8068 *  0.0000     4          
   314  Zr    s     -6.0401 *    -6.3446 *    -3.8068 *  0.0000     4          
   315  O     s      2.8424 *     7.6135 *     5.0757 *  0.0000     4          
   316  O     s      2.8424 *     7.6135 *    -5.0757 *  0.0000     4          
   317  Zr    s     -3.5022 *     6.3446 *     6.3446    0.0000     2          
   318  Zr    s     -3.5022 *    -8.8824 *     1.2689 *  0.0000     4          
   319  O     s      5.3802 *    -2.5378 *     7.6135 *  0.0000     4          
   320  O     s      5.3802 *     7.6135 *     2.5378 *  0.0000     4          
   321  Zr    s     -0.9644 *    -8.8824 *     3.8068 *  0.0000     4          
   322  O     s      7.9181 *     2.5378 *     5.0757 *  0.0000     4          
   323  O     s      7.9181 *     5.0757 *    -2.5378 *  0.0000     4          
   324  Zr    s      1.5735 *     3.8068 *     8.8824 *  0.0000     4          
   325  O     s     -9.8468 *    -0.0000      -0.0000    0.0000     1          
   326  Zr    s      4.1113 *    -6.3446 *     6.3446    0.0000     2          
   327  Zr    s      4.1113 *     1.2689 *     8.8824 *  0.0000     4          
   328  Zr    s      6.6491 *     6.3446 *    -3.8068 *  0.0000     4          
   329  Zr    s      9.1870 *     3.8068 *     1.2689 *  0.0000     4          
   330  Zr    s     -8.5779 *    -3.8068 *    -3.8068    0.0000     2          
   331  O     s      0.3045 *    -0.0000 *    10.1514 *  0.0000     4          
   332  O     s     -9.8468 *    -2.5378 *     0.0000 *  0.0000     4          
   333  O     s     -7.3090 *     5.0757 *     5.0757    0.0000     2          
   334  O     s     -7.3090 *    -5.0757 *     5.0757    0.0000     2          
   335  Zr    s     -3.5022 *     3.8068 *     8.8824 *  0.0000     4          
   336  O     s     -4.7711 *    -7.6135 *     5.0757 *  0.0000     4          
   337  O     s     -4.7711 *     5.0757 *     7.6135 *  0.0000     4          
   338  O     s     -2.2333 *    -0.0000 *    10.1514 *  0.0000     4          
   339  O     s     10.4559 *    -0.0000      -0.0000    0.0000     1          
   340  O     s      0.3045 *     2.5378 *    10.1514 *  0.0000     4          
   341  O     s      0.3045 *    -2.5378 *    10.1514 *  0.0000     4          
   342  O     s     -9.8468 *    -2.5378 *    -2.5378    0.0000     2          
   343  O     s     -9.8468 *    -2.5378 *     2.5378    0.0000     2          
   344  Zr    s      4.1113 *    -3.8068 *     8.8824 *  0.0000     4          
   345  O     s      2.8424 *     0.0000 *    10.1514 *  0.0000     4          
   346  O     s     -7.3090 *    -0.0000 *     7.6135 *  0.0000     4          
   347  O     s      5.3802 *    -7.6135 *    -5.0757 *  0.0000     4          
   348  O     s      5.3802 *    -5.0757 *     7.6135 *  0.0000     4          
   349  Zr    s      9.1870 *     3.8068 *    -3.8068    0.0000     2          
   350  O     s      7.9181 *     5.0757 *     5.0757    0.0000     2          
   351  O     s      7.9181 *     5.0757 *    -5.0757    0.0000     2          
   352  O     s     -2.2333 *    -2.5378 *    10.1514 *  0.0000     4          
   353  O     s     -2.2333 *     2.5378 *    10.1514 *  0.0000     4          
   354  Zr    s     -8.5779 *    -6.3446 *    -1.2689 *  0.0000     4          
   355  O     s     10.4559 *     2.5378 *     0.0000 *  0.0000     4          
   356  O     s      0.3045 *     7.6135 *     7.6135    0.0000     2          
   357  O     s      0.3045 *    -7.6135 *     7.6135    0.0000     2          
   358  Zr    s     -6.0401 *    -8.8824 *    -1.2689 *  0.0000     4          
   359  Zr    s     -6.0401 *    -6.3446 *     6.3446    0.0000     2          
   360  O     s      2.8424 *    10.1514 *    -2.5378 *  0.0000     4          
   361  O     s      2.8424 *     2.5378 *    10.1514 *  0.0000     4          
   362  O     s     -7.3090 *    -7.6135 *    -2.5378 *  0.0000     4          
   363  O     s     -7.3090 *    -7.6135 *     2.5378 *  0.0000     4          
   364  Zr    s     -0.9644 *     6.3446 *     8.8824 *  0.0000     4          
   365  O     s      7.9181 *     7.6135 *    -0.0000 *  0.0000     4          
   366  O     s     -2.2333 *    -7.6135 *     7.6135    0.0000     2          
   367  O     s     -2.2333 *     7.6135 *     7.6135    0.0000     2          
   368  Zr    s      1.5735 *    -8.8824 *     6.3446 *  0.0000     4          
   369  O     s     10.4559 *     2.5378 *     2.5378    0.0000     2          
   370  O     s     10.4559 *     2.5378 *    -2.5378    0.0000     2          
   371  O     s     -9.8468 *    -0.0000 *     5.0757 *  0.0000     4          
   372  O     s      2.8424 *    -7.6135 *     7.6135    0.0000     2          
   373  O     s      2.8424 *     7.6135 *     7.6135    0.0000     2          
   374  Zr    s      6.6491 *     6.3446 *     6.3446    0.0000     2          
   375  Zr    s      6.6491 *    -1.2689 *     8.8824 *  0.0000     4          
   376  O     s     -4.7711 *    -0.0000 *    10.1514 *  0.0000     4          
   377  Zr    s      9.1870 *    -1.2689 *     6.3446 *  0.0000     4          
   378  Zr    s    -11.1157 *    -1.2689 *     1.2689    0.0000     2          
   379  O     s      7.9181 *     7.6135 *    -2.5378 *  0.0000     4          
   380  O     s      7.9181 *     7.6135 *     2.5378 *  0.0000     4          
   381  Zr    s     -8.5779 *     3.8068 *    -6.3446 *  0.0000     4          
   382  O     s      0.3045 *    -5.0757 *    10.1514 *  0.0000     4          
   383  O     s      0.3045 *     5.0757 *    10.1514 *  0.0000     4          
   384  O     s     -9.8468 *     5.0757 *     2.5378 *  0.0000     4          
   385  O     s     -9.8468 *    -5.0757 *     2.5378 *  0.0000     4          
   386  Zr    s     -6.0401 *    -8.8824 *     3.8068 *  0.0000     4          
   387  Zr    s     -3.5022 *     6.3446 *    -8.8824 *  0.0000     4          
   388  O     s      5.3802 *    -0.0000 *    10.1514 *  0.0000     4          
   389  O     s     -4.7711 *   -10.1514 *     2.5378 *  0.0000     4          
   390  O     s     -4.7711 *    10.1514 *     2.5378 *  0.0000     4          
   391  Zr    s     -0.9644 *    -1.2689 *    11.4203 *  0.0000     4          
   392  O     s     -2.2333 *   -10.1514 *     5.0757 *  0.0000     4          
   393  O     s     -2.2333 *     5.0757 *    10.1514 *  0.0000     4          
   394  Zr    s      1.5735 *     1.2689 *    11.4203 *  0.0000     4          
   395  O     s     10.4559 *     5.0757 *    -0.0000 *  0.0000     4          
   396  Zr    s      4.1113 *     8.8824 *     6.3446 *  0.0000     4          
   397  O     s      2.8424 *    10.1514 *    -5.0757 *  0.0000     4          
   398  O     s      2.8424 *    10.1514 *     5.0757 *  0.0000     4          
   399  O     s     -7.3090 *     5.0757 *     7.6135 *  0.0000     4          
   400  O     s     -7.3090 *    -7.6135 *     5.0757 *  0.0000     4          
   401  Zr    s      6.6491 *     3.8068 *     8.8824 *  0.0000     4          
   402  O     s      5.3802 *    -2.5378 *    10.1514 *  0.0000     4          
   403  O     s      5.3802 *    10.1514 *     2.5378 *  0.0000     4          
   404  O     s     -4.7711 *     7.6135 *     7.6135    0.0000     2          
   405  O     s     -4.7711 *    -7.6135 *     7.6135    0.0000     2          
   406  Zr    s      9.1870 *     3.8068 *     6.3446 *  0.0000     4          
   407  Zr    s    -11.1157 *    -3.8068 *    -1.2689 *  0.0000     4          
   408  Zr    s     11.7248 *     1.2689 *     1.2689    0.0000     2          
   409  O     s     10.4559 *     5.0757 *     2.5378 *  0.0000     4          
   410  O     s     10.4559 *     2.5378 *    -5.0757 *  0.0000     4          
--------------------------------------------------------------------------------


  Constraints on symmetry reduced coordinates :

--------------------------------------------------------------------------------
  Constraint no.      Unconstrained     Constrained    Coefficient    
                         Variable         Variable
--------------------------------------------------------------------------------
           1                 2 y             2 z        -1.00000
           2                 3 y             3 z         1.00000
           3                 7 y             7 z         1.00000
           4                 8 y             8 z        -1.00000
           5                10 y            10 z         1.00000
           6                12 y            12 z        -1.00000
           7                13 y            13 z         1.00000
           8                15 y            15 z        -1.00000
           9                16 y            16 z         1.00000
          10                17 y            17 z        -1.00000
          11                23 y            23 z        -1.00000
          12                25 y            25 z         1.00000
          13                31 y            31 z         1.00000
          14                32 y            32 z        -1.00000
          15                35 y            35 z        -1.00000
          16                38 y            38 z         1.00000
          17                39 y            39 z         1.00000
          18                40 y            40 z        -1.00000
          19                43 y            43 z        -1.00000
          20                44 y            44 z         1.00000
          21                46 y            46 z         1.00000
          22                47 y            47 z        -1.00000
          23                55 y            55 z         1.00000
          24                56 y            56 z        -1.00000
          25                60 y            60 z         1.00000
          26                61 y            61 z        -1.00000
          27                70 y            70 z        -1.00000
          28                72 y            72 z         1.00000
          29                73 y            73 z        -1.00000
          30                81 y            81 z         1.00000
          31                82 y            82 z         1.00000
          32                83 y            83 z        -1.00000
          33                84 y            84 z         1.00000
          34                85 y            85 z        -1.00000
          35                86 y            86 z         1.00000
          36                89 y            89 z         1.00000
          37                90 y            90 z        -1.00000
          38                92 y            92 z        -1.00000
          39                94 y            94 z         1.00000
          40               104 y           104 z        -1.00000
          41               112 y           112 z         1.00000
          42               121 y           121 z        -1.00000
          43               125 y           125 z         1.00000
          44               128 y           128 z         1.00000
          45               129 y           129 z        -1.00000
          46               137 y           137 z         1.00000
          47               138 y           138 z        -1.00000
          48               144 y           144 z        -1.00000
          49               145 y           145 z         1.00000
          50               146 y           146 z        -1.00000
          51               151 y           151 z         1.00000
          52               152 y           152 z        -1.00000
          53               154 y           154 z        -1.00000
          54               161 y           161 z        -1.00000
          55               162 y           162 z         1.00000
          56               164 y           164 z         1.00000
          57               165 y           165 z        -1.00000
          58               167 y           167 z        -1.00000
          59               168 y           168 z         1.00000
          60               169 y           169 z         1.00000
          61               173 y           173 z        -1.00000
          62               199 y           199 z         1.00000
          63               200 y           200 z        -1.00000
          64               203 y           203 z         1.00000
          65               207 y           207 z        -1.00000
          66               208 y           208 z         1.00000
          67               212 y           212 z         1.00000
          68               213 y           213 z        -1.00000
          69               215 y           215 z         1.00000
          70               217 y           217 z        -1.00000
          71               218 y           218 z         1.00000
          72               220 y           220 z        -1.00000
          73               221 y           221 z         1.00000
          74               222 y           222 z        -1.00000
          75               228 y           228 z        -1.00000
          76               230 y           230 z         1.00000
          77               236 y           236 z         1.00000
          78               237 y           237 z        -1.00000
          79               240 y           240 z        -1.00000
          80               243 y           243 z         1.00000
          81               244 y           244 z         1.00000
          82               245 y           245 z        -1.00000
          83               248 y           248 z        -1.00000
          84               249 y           249 z         1.00000
          85               251 y           251 z         1.00000
          86               252 y           252 z        -1.00000
          87               260 y           260 z         1.00000
          88               261 y           261 z        -1.00000
          89               265 y           265 z         1.00000
          90               266 y           266 z        -1.00000
          91               275 y           275 z        -1.00000
          92               277 y           277 z         1.00000
          93               278 y           278 z        -1.00000
          94               286 y           286 z         1.00000
          95               287 y           287 z         1.00000
          96               288 y           288 z        -1.00000
          97               289 y           289 z         1.00000
          98               290 y           290 z        -1.00000
          99               291 y           291 z         1.00000
         100               294 y           294 z         1.00000
         101               295 y           295 z        -1.00000
         102               297 y           297 z        -1.00000
         103               299 y           299 z         1.00000
         104               309 y           309 z        -1.00000
         105               317 y           317 z         1.00000
         106               326 y           326 z        -1.00000
         107               330 y           330 z         1.00000
         108               333 y           333 z         1.00000
         109               334 y           334 z        -1.00000
         110               342 y           342 z         1.00000
         111               343 y           343 z        -1.00000
         112               349 y           349 z        -1.00000
         113               350 y           350 z         1.00000
         114               351 y           351 z        -1.00000
         115               356 y           356 z         1.00000
         116               357 y           357 z        -1.00000
         117               359 y           359 z        -1.00000
         118               366 y           366 z        -1.00000
         119               367 y           367 z         1.00000
         120               369 y           369 z         1.00000
         121               370 y           370 z        -1.00000
         122               372 y           372 z        -1.00000
         123               373 y           373 z         1.00000
         124               374 y           374 z         1.00000
         125               378 y           378 z        -1.00000
         126               404 y           404 z         1.00000
         127               405 y           405 z        -1.00000
         128               408 y           408 z         1.00000
--------------------------------------------------------------------------------


  Components of defect energy : 

--------------------------------------------------------------------------------
  Region 1 - region 1                   =    -10.09728996 eV
  Region 1 - region 2a (unrelaxed)      =     43.39388966 eV
  Region 1 - 2a (relaxed - correction)  =     -2.38014981 eV
  Region 1 (Total)                      =     30.91644990 eV
  Region 2a                             =      1.19010165 eV
  Region 2b                             =     -1.16002564 eV
--------------------------------------------------------------------------------
  Total defect energy                   =     30.94652591 eV
--------------------------------------------------------------------------------

  Largest displacement in region 2 =   0.0063 Angstroms


  Number of variables =     1068

  Maximum number of calculations  =        1000
  Maximum Hessian update interval =          10
  Maximum step size               =   1.0000000
  Maximum parameter tolerance     =   0.0000100
  Maximum function  tolerance     =   0.0000100
  Maximum gradient  tolerance     =   0.0010000

  Symmetry adapted optimisation

  Symmetry to be used for second derivatives

  Newton-Raphson optimiser to be used

  BFGS hessian update to be used

  Lower half triangular hessian to be used

  Start of defect optimisation :

  Cycle:      0 Defect Energy:  30.946526  Gnorm:     0.086194  CPU:    4.821
  ** Hessian calculated **
  Cycle:      1 Defect Energy:  22.161049  Gnorm:     0.034502  CPU:   14.703
  Cycle:      2 Defect Energy:  17.275324  Gnorm:     0.018094  CPU:   23.309
  Cycle:      3 Defect Energy:  16.615245  Gnorm:     0.014233  CPU:   29.088
  Cycle:      4 Defect Energy:  15.947807  Gnorm:     0.008258  CPU:   36.275
  Cycle:      5 Defect Energy:  15.499140  Gnorm:     0.007559  CPU:   43.453
  Cycle:      6 Defect Energy:  15.366096  Gnorm:     0.006120  CPU:   49.209
  Cycle:      7 Defect Energy:  15.230983  Gnorm:     0.004402  CPU:   56.391
  Cycle:      8 Defect Energy:  15.114796  Gnorm:     0.003694  CPU:   63.578
  Cycle:      9 Defect Energy:  15.081408  Gnorm:     0.003321  CPU:   65.103
  Cycle:     10 Defect Energy:  15.032008  Gnorm:     0.003045  CPU:   66.631
  ** Hessian calculated **
  Cycle:     11 Defect Energy:  14.951399  Gnorm:     0.002683  CPU:   73.825
  Cycle:     12 Defect Energy:  14.849350  Gnorm:     0.002133  CPU:   75.357
  Cycle:     13 Defect Energy:  14.762026  Gnorm:     0.001498  CPU:   76.885
  Cycle:     14 Defect Energy:  14.721002  Gnorm:     0.001056  CPU:   78.413
  Cycle:     15 Defect Energy:  14.701895  Gnorm:     0.000745  CPU:   79.943
  Cycle:     16 Defect Energy:  14.692876  Gnorm:     0.000525  CPU:   81.486
  Cycle:     17 Defect Energy:  14.688862  Gnorm:     0.000369  CPU:   83.015
  Cycle:     18 Defect Energy:  14.686842  Gnorm:     0.000259  CPU:   84.548
  Cycle:     19 Defect Energy:  14.685912  Gnorm:     0.000182  CPU:   86.078
  Cycle:     20 Defect Energy:  14.685497  Gnorm:     0.000128  CPU:   87.618
  ** Hessian calculated **
  Cycle:     21 Defect Energy:  14.685320  Gnorm:     0.000089  CPU:   94.801
  Cycle:     22 Defect Energy:  14.685252  Gnorm:     0.000063  CPU:   96.335
  Cycle:     23 Defect Energy:  14.685232  Gnorm:     0.000044  CPU:   97.859
  Cycle:     24 Defect Energy:  14.685232  Gnorm:     0.000031  CPU:   99.385


  **** Optimisation achieved ****


  Final defect energy  =       14.68523773
  Final defect Gnorm   =        0.00002150

  Components of defect energy : 

--------------------------------------------------------------------------------
  Region 1 - region 1                   =    -17.32555926 eV
  Region 1 - region 2a (unrelaxed)      =     34.20640009 eV
  Region 1 - 2a (relaxed - correction)  =     -2.07982158 eV
  Region 1 (Total)                      =     14.80101925 eV
  Region 2a                             =      1.03984037 eV
  Region 2b                             =     -1.15562189 eV
--------------------------------------------------------------------------------
  Total defect energy                   =     14.68523773 eV
--------------------------------------------------------------------------------

  Largest displacement in region 2 =   0.0063 Angstroms

  Final coordinates of region 1 :

--------------------------------------------------------------------------------
   No.  Atomic        x           y           z          Radius      Charge
        Label       (Angs)      (Angs)      (Angs)       (Angs)       (e) 
--------------------------------------------------------------------------------
     1  O     c     3.502222    1.268921    1.268921    0.000000    0.077000
     2  Zr    c     2.590906   -0.054345    2.592187    0.000000    2.650000
     3  Zr    c     2.590906    2.592187   -0.054345    0.000000    2.650000
     4  Zr    c     5.097797   -0.021710   -0.021710    0.000000    2.650000
     5  Zr    c     5.097797    2.559552    2.559552    0.000000    2.650000
     6  O     c     3.838953    3.857574    1.235214    0.000000    0.077000
     7  O     c     3.838953    1.235214    3.857574    0.000000    0.077000
     8  O     c     3.838953    1.302628   -1.319732    0.000000    0.077000
     9  O     c     3.838953   -1.319732    1.302628    0.000000    0.077000
    10  O     c     6.124938    1.268921    1.268921    0.000000    0.077000
    11  O     c     1.275674    1.270922    3.366458    0.000000    0.077000
    12  O     c     1.275674    3.366458    1.270922    0.000000    0.077000
    13  O     c     1.275674    1.266919   -0.828616    0.000000    0.077000
    14  O     c     1.275674   -0.828616    1.266919    0.000000    0.077000
    15  O     c     3.773996    3.778102    3.778102    0.000000    0.077000
    16  O     c     3.773996   -1.240260   -1.240260    0.000000    0.077000
    17  O     c     3.815577   -1.287336    3.825178    0.000000    0.077000
    18  O     c     3.815577    3.825178   -1.287336    0.000000    0.077000
    19  O     c     6.377016    3.792274    1.284727    0.000000    0.077000
    20  O     c     6.377016    1.284727    3.792274    0.000000    0.077000
    21  O     c     6.377016    1.253114   -1.254432    0.000000    0.077000
    22  O     c     6.377016   -1.254432    1.253114    0.000000    0.077000
    23  Zr    c    -0.046255   -0.052055   -0.052055    0.000000    2.650000
    24  Zr    c    -0.046255    2.589897    2.589897    0.000000    2.650000
    25  Zr    c     2.570916    2.564745    5.099831    0.000000    2.650000
    26  Zr    c     2.570916    5.099831    2.564745    0.000000    2.650000
    27  Zr    c     2.570916   -2.561990   -0.026904    0.000000    2.650000
    28  Zr    c     2.570916   -0.026904   -2.561990    0.000000    2.650000
    29  O     c     1.293242    3.843167   -1.305325    0.000000    0.077000
    30  O     c     1.293242   -1.305325    3.843167    0.000000    0.077000
    31  O     c     1.223196    3.845635    3.845635    0.000000    0.077000
    32  O     c     1.223196   -1.307793   -1.307793    0.000000    0.077000
    33  Zr    c     5.099321   -2.558889    2.547850    0.000000    2.650000
    34  Zr    c     5.099321    5.096731   -0.010008    0.000000    2.650000
    35  Zr    c     5.099321    2.547850   -2.558889    0.000000    2.650000
    36  Zr    c     5.099321   -0.010008    5.096731    0.000000    2.650000
    37  Zr    c     7.617167    2.549146   -0.011304    0.000000    2.650000
    38  Zr    c     7.617167   -0.011304    2.549146    0.000000    2.650000
    39  O     c     6.302413    3.809631    3.809631    0.000000    0.077000
    40  O     c     6.302413   -1.271789   -1.271789    0.000000    0.077000
    41  O     c     6.341137    3.798141   -1.260299    0.000000    0.077000
    42  O     c     6.341137   -1.260299    3.798141    0.000000    0.077000
    43  O     c    -0.946740    1.268921    1.268921    0.000000    0.077000
    44  O     c     3.780946    1.290286    6.393413    0.000000    0.077000
    45  O     c     3.780946    6.393413    1.290286    0.000000    0.077000
    46  O     c     3.780946   -3.855571    1.247556    0.000000    0.077000
    47  O     c     3.780946    1.247556   -3.855571    0.000000    0.077000
    48  Zr    c    -0.031916    2.566658   -2.562060    0.000000    2.650000
    49  Zr    c    -0.031916   -2.562060    2.566658    0.000000    2.650000
    50  Zr    c    -0.031916   -0.028816    5.099902    0.000000    2.650000
    51  Zr    c    -0.031916    5.099902   -0.028816    0.000000    2.650000
    52  O     c     8.744041    1.268921    1.268921    0.000000    0.077000
    53  O     c    -1.293131   -1.316846    1.242414    0.000000    0.077000
    54  O     c    -1.293131    1.242414   -1.316846    0.000000    0.077000
    55  O     c    -1.293131    1.295428    3.854687    0.000000    0.077000
    56  O     c    -1.293131    3.854687    1.295428    0.000000    0.077000
    57  Zr    c     2.548654   -2.558348    5.096190    0.000000    2.650000
    58  Zr    c     2.548654    5.096190   -2.558348    0.000000    2.650000
    59  O     c     1.260619   -3.512137    1.266768    0.000000    0.077000
    60  O     c     1.260619    1.266768   -3.512137    0.000000    0.077000
    61  O     c     1.260619    1.271074    6.049978    0.000000    0.077000
    62  O     c     1.260619    6.049978    1.271074    0.000000    0.077000
    63  Zr    c     5.097214    5.092570    5.092570    0.000000    2.650000
    64  Zr    c     5.097214   -2.554728   -2.554728    0.000000    2.650000
    65  O     c     3.800083   -3.813836    3.795958    0.000000    0.077000
    66  O     c     3.800083    3.795958   -3.813836    0.000000    0.077000
    67  O     c     3.800083   -1.258116    6.351678    0.000000    0.077000
    68  O     c     3.800083    6.351678   -1.258116    0.000000    0.077000
    69  O     c     3.815678    6.304556    3.810390    0.000000    0.077000
    70  O     c     3.815678    3.810390    6.304556    0.000000    0.077000
    71  O     c     3.815678   -1.272548   -3.766714    0.000000    0.077000
    72  O     c     3.815678   -3.766714   -1.272548    0.000000    0.077000
    73  Zr    c     7.624711   -2.544551   -0.001491    0.000000    2.650000
    74  Zr    c     7.624711    5.082393    2.539332    0.000000    2.650000
    75  Zr    c     7.624711    2.539332    5.082393    0.000000    2.650000
    76  Zr    c     7.624711   -0.001491   -2.544551    0.000000    2.650000
    77  O     c     6.322720    6.333244    1.261921    0.000000    0.077000
    78  O     c     6.322720    1.261921    6.333244    0.000000    0.077000
    79  O     c     6.322720    1.275921   -3.795402    0.000000    0.077000
    80  O     c     6.322720   -3.795402    1.275921    0.000000    0.077000
    81  O     c     8.911749    3.806858    1.262894    0.000000    0.077000
    82  O     c     8.911749    1.262894    3.806858    0.000000    0.077000
    83  O     c     8.911749    1.274948   -1.269016    0.000000    0.077000
    84  O     c     8.911749   -1.269016    1.274948    0.000000    0.077000
    85  O     c    -1.300349    3.817108    3.817108    0.000000    0.077000
    86  O     c    -1.300349   -1.279266   -1.279266    0.000000    0.077000
    87  O     c    -1.260124   -1.245667    3.783509    0.000000    0.077000
    88  O     c    -1.260124    3.783509   -1.245667    0.000000    0.077000
    89  O     c     1.293682    6.385983    3.789952    0.000000    0.077000
    90  O     c     1.293682    3.789952    6.385983    0.000000    0.077000
    91  O     c     1.293682   -3.848141   -1.252111    0.000000    0.077000
    92  O     c     1.293682   -1.252111   -3.848141    0.000000    0.077000
[...]
    330 y         -2.537842     -2.542759    -0.004918    Cartesian    0.19
    330 z         -2.537842     -2.542759    -0.004918    Cartesian    0.19
    331 x          3.806763      3.801682    -0.005080    Cartesian   -0.13
    331 y          1.268921      1.271073     0.002152    Cartesian    0.17
    331 z         11.420288     11.439189     0.018901    Cartesian    0.17
    332 x         -6.344605     -6.358066    -0.013462    Cartesian    0.21
    332 y         -1.268921     -1.267340     0.001581    Cartesian   -0.12
    332 z          1.268921      1.267629    -0.001292    Cartesian   -0.10
    333 x         -3.806763     -3.812998    -0.006235    Cartesian    0.16
    333 y          6.344605      6.343564    -0.001040    Cartesian   -0.02
    333 z          6.344605      6.343564    -0.001040    Cartesian   -0.02
    334 x         -3.806763     -3.805760     0.001003    Cartesian   -0.03
    334 y         -3.806763     -3.801163     0.005599    Cartesian   -0.15
    334 z          6.344605      6.339005    -0.005599    Cartesian   -0.09
    335 x          0.000000      0.002884     0.002884    Cartesian    0.00
    335 y          5.075684      5.074517    -0.001167    Cartesian   -0.02
    335 z         10.151367     10.155554     0.004187    Cartesian    0.04
    336 x         -1.268921     -1.269598    -0.000678    Cartesian    0.05
    336 y         -6.344605     -6.349489    -0.004884    Cartesian    0.08
    336 z          6.344605      6.340994    -0.003610    Cartesian   -0.06
    337 x         -1.268921     -1.268532     0.000388    Cartesian   -0.03
    337 y          6.344605      6.341331    -0.003274    Cartesian   -0.05
    337 z          8.882446      8.879176    -0.003270    Cartesian   -0.04
    338 x          1.268921      1.264241    -0.004680    Cartesian   -0.37
    338 y          1.268921      1.272546     0.003625    Cartesian    0.29
    338 z         11.420288     11.346736    -0.073552    Cartesian   -0.64
    339 x         13.958130     13.918237    -0.039893    Cartesian   -0.29
    339 y          1.268921      1.268921     0.000000    Cartesian    0.00
    339 z          1.268921      1.268921     0.000000    Cartesian    0.00
    340 x          3.806763      3.801571    -0.005192    Cartesian   -0.14
    340 y          3.806763      3.805126    -0.001637    Cartesian   -0.04
    340 z         11.420288     11.400312    -0.019976    Cartesian   -0.17
    341 x          3.806763      3.802299    -0.004464    Cartesian   -0.12
    341 y         -1.268921     -1.266647     0.002273    Cartesian   -0.18
    341 z         11.420288     11.422037     0.001749    Cartesian    0.02
    342 x         -6.344605     -6.345061    -0.000457    Cartesian    0.01
    342 y         -1.268921     -1.265524     0.003397    Cartesian   -0.27
    342 z         -1.268921     -1.265524     0.003397    Cartesian   -0.27
    343 x         -6.344605     -6.343769     0.000836    Cartesian   -0.01
    343 y         -1.268921     -1.266046     0.002875    Cartesian   -0.23
    343 z          3.806763      3.803887    -0.002875    Cartesian   -0.08
    344 x          7.613525      7.616971     0.003445    Cartesian    0.05
    344 y         -2.537842     -2.538506    -0.000665    Cartesian    0.03
    344 z         10.151367     10.155432     0.004064    Cartesian    0.04
    345 x          6.344605      6.341688    -0.002916    Cartesian   -0.05
    345 y          1.268921      1.267475    -0.001446    Cartesian   -0.11
    345 z         11.420288     11.415881    -0.004407    Cartesian   -0.04
    346 x         -3.806763     -3.807401    -0.000638    Cartesian    0.02
    346 y          1.268921      1.265605    -0.003316    Cartesian   -0.26
    346 z          8.882446      8.873585    -0.008861    Cartesian   -0.10
    347 x          8.882446      8.883504     0.001058    Cartesian    0.01
    347 y         -6.344605     -6.345637    -0.001032    Cartesian    0.02
    347 z         -3.806763     -3.805113     0.001650    Cartesian   -0.04
    348 x          8.882446      8.879537    -0.002910    Cartesian   -0.03
    348 y         -3.806763     -3.806706     0.000057    Cartesian   -0.00
    348 z          8.882446      8.880391    -0.002055    Cartesian   -0.02
    349 x         12.689209     12.691814     0.002605    Cartesian    0.02
    349 y          5.075684      5.077422     0.001738    Cartesian    0.03
    349 z         -2.537842     -2.539580    -0.001738    Cartesian    0.07
    350 x         11.420288     11.416314    -0.003974    Cartesian   -0.03
    350 y          6.344605      6.343975    -0.000630    Cartesian   -0.01
    350 z          6.344605      6.343975    -0.000630    Cartesian   -0.01
    351 x         11.420288     11.416925    -0.003363    Cartesian   -0.03
    351 y          6.344605      6.343979    -0.000626    Cartesian   -0.01
    351 z         -3.806763     -3.806137     0.000626    Cartesian   -0.02
    352 x          1.268921      1.264907    -0.004014    Cartesian   -0.32
    352 y         -1.268921     -1.265171     0.003750    Cartesian   -0.30
    352 z         11.420288     11.435302     0.015014    Cartesian    0.13
    353 x          1.268921      1.271711     0.002790    Cartesian    0.22
    353 y          3.806763      3.802814    -0.003948    Cartesian   -0.10
    353 z         11.420288     11.435101     0.014813    Cartesian    0.13
    354 x         -5.075684     -5.082833    -0.007149    Cartesian    0.14
    354 y         -5.075684     -5.083675    -0.007991    Cartesian    0.16
    354 z          0.000000     -0.002070    -0.002070    Cartesian    0.00
    355 x         13.958130     13.967665     0.009536    Cartesian    0.07
    355 y          3.806763      3.806618    -0.000145    Cartesian   -0.00
    355 z          1.268921      1.267650    -0.001271    Cartesian   -0.10
    356 x          3.806763      3.806533    -0.000230    Cartesian   -0.01
    356 y          8.882446      8.880610    -0.001837    Cartesian   -0.02
    356 z          8.882446      8.880610    -0.001837    Cartesian   -0.02
    357 x          3.806763      3.801138    -0.005624    Cartesian   -0.15
    357 y         -6.344605     -6.342412     0.002193    Cartesian   -0.03
    357 z          8.882446      8.880254    -0.002193    Cartesian   -0.02
    358 x         -2.537842     -2.536987     0.000855    Cartesian   -0.03
    358 y         -7.613525     -7.621203    -0.007678    Cartesian    0.10
    358 z          0.000000      0.001272     0.001272    Cartesian    0.00
    359 x         -2.537842     -2.537631     0.000211    Cartesian   -0.01
    359 y         -5.075684     -5.081271    -0.005587    Cartesian    0.11
    359 z          7.613525      7.619113     0.005587    Cartesian    0.07
    360 x          6.344605      6.339750    -0.004854    Cartesian   -0.08
    360 y         11.420288     11.418382    -0.001906    Cartesian   -0.02
    360 z         -1.268921     -1.267352     0.001568    Cartesian   -0.12
    361 x          6.344605      6.343657    -0.000948    Cartesian   -0.01
    361 y          3.806763      3.809154     0.002391    Cartesian    0.06
    361 z         11.420288     11.422172     0.001884    Cartesian    0.02
    362 x         -3.806763     -3.810308    -0.003545    Cartesian    0.09
    362 y         -6.344605     -6.339926     0.004678    Cartesian   -0.07
    362 z         -1.268921     -1.269103    -0.000182    Cartesian    0.01
    363 x         -3.806763     -3.805050     0.001713    Cartesian   -0.04
    363 y         -6.344605     -6.345351    -0.000747    Cartesian    0.01
    363 z          3.806763      3.804908    -0.001855    Cartesian   -0.05
    364 x          2.537842      2.540274     0.002432    Cartesian    0.10
    364 y          7.613525      7.616945     0.003420    Cartesian    0.04
    364 z         10.151367     10.156869     0.005502    Cartesian    0.05
    365 x         11.420288     11.419196    -0.001092    Cartesian   -0.01
    365 y          8.882446      8.881302    -0.001145    Cartesian   -0.01
    365 z          1.268921      1.270568     0.001647    Cartesian    0.13
    366 x          1.268921      1.270714     0.001794    Cartesian    0.14
    366 y         -6.344605     -6.343652     0.000953    Cartesian   -0.02
    366 z          8.882446      8.881494    -0.000953    Cartesian   -0.01
    367 x          1.268921      1.266436    -0.002485    Cartesian   -0.20
    367 y          8.882446      8.879822    -0.002624    Cartesian   -0.03
    367 z          8.882446      8.879822    -0.002624    Cartesian   -0.03
    368 x          5.075684      5.078054     0.002371    Cartesian    0.05
    368 y         -7.613525     -7.619847    -0.006321    Cartesian    0.08
    368 z          7.613525      7.617467     0.003942    Cartesian    0.05
    369 x         13.958130     13.948399    -0.009731    Cartesian   -0.07
    369 y          3.806763      3.805771    -0.000992    Cartesian   -0.03
    369 z          3.806763      3.805771    -0.000992    Cartesian   -0.03
    370 x         13.958130     13.946855    -0.011275    Cartesian   -0.08
    370 y          3.806763      3.805006    -0.001756    Cartesian   -0.05
    370 z         -1.268921     -1.267165     0.001756    Cartesian   -0.14
    371 x         -6.344605     -6.338977     0.005627    Cartesian   -0.09
    371 y          1.268921      1.266913    -0.002008    Cartesian   -0.16
    371 z          6.344605      6.344898     0.000293    Cartesian    0.00
    372 x          6.344605      6.342628    -0.001976    Cartesian   -0.03
    372 y         -6.344605     -6.342607     0.001997    Cartesian   -0.03
    372 z          8.882446      8.880449    -0.001997    Cartesian   -0.02
    373 x          6.344605      6.341439    -0.003165    Cartesian   -0.05
    373 y          8.882446      8.880743    -0.001704    Cartesian   -0.02
    373 z          8.882446      8.880743    -0.001704    Cartesian   -0.02
    374 x         10.151367     10.157439     0.006072    Cartesian    0.06
    374 y          7.613525      7.616844     0.003318    Cartesian    0.04
    374 z          7.613525      7.616844     0.003318    Cartesian    0.04
    375 x         10.151367     10.156696     0.005329    Cartesian    0.05
    375 y          0.000000      0.000358     0.000358    Cartesian    0.00
    375 z         10.151367     10.155851     0.004483    Cartesian    0.04
    376 x         -1.268921     -1.265014     0.003907    Cartesian   -0.31
    376 y          1.268921      1.264172    -0.004749    Cartesian   -0.37
    376 z         11.420288     11.432527     0.012238    Cartesian    0.11
    377 x         12.689209     12.694007     0.004798    Cartesian    0.04
    377 y          0.000000     -0.000841    -0.000841    Cartesian    0.00
    377 z          7.613525      7.616621     0.003095    Cartesian    0.04
    378 x         -7.613525     -7.616704    -0.003178    Cartesian    0.04
    378 y         -0.000000     -0.006751    -0.006751    Cartesian *******
    378 z          2.537842      2.544593     0.006751    Cartesian    0.27
    379 x         11.420288     11.416349    -0.003939    Cartesian   -0.03
    379 y          8.882446      8.880189    -0.002257    Cartesian   -0.03
    379 z         -1.268921     -1.268326     0.000594    Cartesian   -0.05
    380 x         11.420288     11.415699    -0.004589    Cartesian   -0.04
    380 y          8.882446      8.881586    -0.000861    Cartesian   -0.01
    380 z          3.806763      3.804864    -0.001899    Cartesian   -0.05
    381 x         -5.075684     -5.083129    -0.007445    Cartesian    0.15
    381 y          5.075684      5.078528     0.002845    Cartesian    0.06
    381 z         -5.075684     -5.082537    -0.006854    Cartesian    0.14
    382 x          3.806763      3.804245    -0.002518    Cartesian   -0.07
    382 y         -3.806763     -3.803526     0.003237    Cartesian   -0.09
    382 z         11.420288     11.415600    -0.004688    Cartesian   -0.04
    383 x          3.806763      3.807311     0.000548    Cartesian    0.01
    383 y          6.344605      6.343721    -0.000884    Cartesian   -0.01
    383 z         11.420288     11.419008    -0.001280    Cartesian   -0.01
    384 x         -6.344605     -6.337379     0.007226    Cartesian   -0.11
    384 y          6.344605      6.344829     0.000224    Cartesian    0.00
    384 z          3.806763      3.809495     0.002733    Cartesian    0.07
    385 x         -6.344605     -6.340859     0.003746    Cartesian   -0.06
    385 y         -3.806763     -3.801549     0.005214    Cartesian   -0.14
    385 z          3.806763      3.803817    -0.002946    Cartesian   -0.08
    386 x         -2.537842     -2.543717    -0.005875    Cartesian    0.23
    386 y         -7.613525     -7.619177    -0.005651    Cartesian    0.07
    386 z          5.075684      5.081589     0.005905    Cartesian    0.12
    387 x          0.000000     -0.001526    -0.001526    Cartesian    0.00
    387 y          7.613525      7.618035     0.004509    Cartesian    0.06
    387 z         -7.613525     -7.620572    -0.007047    Cartesian    0.09
    388 x          8.882446      8.879191    -0.003255    Cartesian   -0.04
    388 y          1.268921      1.270749     0.001828    Cartesian    0.14
    388 z         11.420288     11.415696    -0.004592    Cartesian   -0.04
    389 x         -1.268921     -1.267075     0.001846    Cartesian   -0.15
    389 y         -8.882446     -8.860571     0.021875    Cartesian   -0.25
    389 z          3.806763      3.806487    -0.000275    Cartesian   -0.01
    390 x         -1.268921     -1.267392     0.001528    Cartesian   -0.12
    390 y         11.420288     11.406464    -0.013824    Cartesian   -0.12
    390 z          3.806763      3.803111    -0.003652    Cartesian   -0.10
    391 x          2.537842      2.543890     0.006048    Cartesian    0.24
    391 y         -0.000000     -0.007423    -0.007423    Cartesian *******
    391 z         12.689209     12.696384     0.007175    Cartesian    0.06
    392 x          1.268921      1.268540    -0.000381    Cartesian   -0.03
    392 y         -8.882446     -8.870997     0.011449    Cartesian   -0.13
    392 z          6.344605      6.342835    -0.001770    Cartesian   -0.03
    393 x          1.268921      1.270275     0.001354    Cartesian    0.11
    393 y          6.344605      6.341200    -0.003405    Cartesian   -0.05
    393 z         11.420288     11.406836    -0.013452    Cartesian   -0.12
    394 x          5.075684      5.077151     0.001467    Cartesian    0.03
    394 y          2.537842      2.536799    -0.001042    Cartesian   -0.04
    394 z         12.689209     12.699822     0.010613    Cartesian    0.08
    395 x         13.958130     13.946645    -0.011485    Cartesian   -0.08
    395 y          6.344605      6.343929    -0.000675    Cartesian   -0.01
    395 z          1.268921      1.269301     0.000380    Cartesian    0.03
    396 x          7.613525      7.618917     0.005391    Cartesian    0.07
    396 y         10.151367     10.157186     0.005819    Cartesian    0.06
    396 z          7.613525      7.618781     0.005256    Cartesian    0.07
    397 x          6.344605      6.341452    -0.003153    Cartesian   -0.05
    397 y         11.420288     11.412596    -0.007692    Cartesian   -0.07
    397 z         -3.806763     -3.805293     0.001470    Cartesian   -0.04
    398 x          6.344605      6.341737    -0.002868    Cartesian   -0.05
    398 y         11.420288     11.410649    -0.009639    Cartesian   -0.08
    398 z          6.344605      6.341247    -0.003358    Cartesian   -0.05
    399 x         -3.806763     -3.797618     0.009144    Cartesian   -0.24
    399 y          6.344605      6.338346    -0.006259    Cartesian   -0.10
    399 z          8.882446      8.874172    -0.008275    Cartesian   -0.09
    400 x         -3.806763     -3.806477     0.000286    Cartesian   -0.01
    400 y         -6.344605     -6.342279     0.002325    Cartesian   -0.04
    400 z          6.344605      6.342533    -0.002072    Cartesian   -0.03
    401 x         10.151367     10.158049     0.006681    Cartesian    0.07
    401 y          5.075684      5.079168     0.003484    Cartesian    0.07
    401 z         10.151367     10.157330     0.005962    Cartesian    0.06
    402 x          8.882446      8.877416    -0.005030    Cartesian   -0.06
    402 y         -1.268921     -1.267930     0.000991    Cartesian   -0.08
    402 z         11.420288     11.412503    -0.007785    Cartesian   -0.07
    403 x          8.882446      8.879045    -0.003402    Cartesian   -0.04
    403 y         11.420288     11.411938    -0.008350    Cartesian   -0.07
    403 z          3.806763      3.804150    -0.002613    Cartesian   -0.07
    404 x         -1.268921     -1.263611     0.005310    Cartesian   -0.42
    404 y          8.882446      8.873545    -0.008902    Cartesian   -0.10
    404 z          8.882446      8.873545    -0.008902    Cartesian   -0.10
    405 x         -1.268921     -1.269567    -0.000646    Cartesian    0.05
    405 y         -6.344605     -6.340698     0.003907    Cartesian   -0.06
    405 z          8.882446      8.878539    -0.003907    Cartesian   -0.04
    406 x         12.689209     12.697035     0.007826    Cartesian    0.06
    406 y          5.075684      5.077366     0.001682    Cartesian    0.03
    406 z          7.613525      7.617037     0.003512    Cartesian    0.05
    407 x         -7.613525     -7.624925    -0.011400    Cartesian    0.15
    407 y         -2.537842     -2.539005    -0.001163    Cartesian    0.05
    407 z         -0.000000      0.000118     0.000118    Cartesian *******
    408 x         15.227051     15.235349     0.008298    Cartesian    0.05
    408 y          2.537842      2.540686     0.002844    Cartesian    0.11
    408 z          2.537842      2.540686     0.002844    Cartesian    0.11
    409 x         13.958130     13.955056    -0.003074    Cartesian   -0.02
    409 y          6.344605      6.341682    -0.002923    Cartesian   -0.05
    409 z          3.806763      3.805466    -0.001297    Cartesian   -0.03
    410 x         13.958130     13.951135    -0.006995    Cartesian   -0.05
    410 y          3.806763      3.804610    -0.002153    Cartesian   -0.06
    410 z         -3.806763     -3.803721     0.003041    Cartesian   -0.08
--------------------------------------------------------------------------------


  Time to end of optimisation  =      100.9362 seconds


  Peak dynamic memory used =     407.04 MB 


  Timing analysis for GULP :

--------------------------------------------------------------------------------
  Task / Subroutine                                          Time (Seconds)
--------------------------------------------------------------------------------
  Calculation of reciprocal space energy and derivatives          0.0002
  Calculation of reciprocal space energy using symmetry           0.0002
  Calculation of real space energy and derivatives                0.0020
  Calculation of real space energy using symmetry                 0.0072
  Calculation for region 1 energy and derivatives (2-b)          25.7288
  Calculation for region 2a energy                               62.6563
  Calculation for region 2b energy                                0.0087
  Calculation and manipulation of Hessian matrix                 11.2714
  Calculation of matrix inversion                                 0.8374
  Symmetry generation of equivalent positions                     0.0015
--------------------------------------------------------------------------------
  Total CPU time                                                100.9362
--------------------------------------------------------------------------------


  Dump file written as ZrO2.grs


  Job Finished at 13:10.13 14th October    2020                               

