********************************************************************************
*                       GENERAL UTILITY LATTICE PROGRAM                        *
*                                 Julian Gale                                  *
*                       Curtin Institute for Computation                       *
*                    School of Molecular and Life Sciences                     *
*                    Curtin University, Western Australia                      *
********************************************************************************
* Version = 5.2.0 * Last modified =  10th September 2020                       *
********************************************************************************
* Zirconia doped with calcium                                                  *
*  optimise     - perform optimisation run                                     *
*  conp         - constant pressure calculation                                *
*  property     - calculate properties for final geometry                      *
*  defect       - perform defect calculation after bulk run                    *
*  distance     - calculate distances                                          *
*  compare      - compare initial and final structures                         *
********************************************************************************
* Zirconia doped with calcium                                                  *
********************************************************************************


  Job Started  at 13:11.54 14th October    2020                               

  Number of CPUs =     1


  Total number of configurations input =      1

********************************************************************************
*  Input for Configuration =   1 : ZrO2                                        *
********************************************************************************

  Formula = ZrO2                                                        

  Number of irreducible atoms/shells =       4


  Total number atoms/shells =       6

  Dimensionality = 3               :  Bulk   


  Symmetry :

  Crystal family                   :  Cubic       
  Crystal class  (Groth - 1921)    :  Cubic Hexakisoctahedral              

  Space group (centrosymmetric)    :  F M 3 M         

  Patterson group                  :  F m -3 m 

  Cartesian lattice vectors (Angstroms) :

        0.000000    2.535000    2.535000
        2.535000    0.000000    2.535000
        2.535000    2.535000    0.000000

  Primitive cell parameters :            Full cell parameters :

  a =   3.5850    alpha =  60.0000       a =   5.0700    alpha =  90.0000
  b =   3.5850    beta  =  60.0000       b =   5.0700    beta  =  90.0000
  c =   3.5850    gamma =  60.0000       c =   5.0700    gamma =  90.0000

  Initial volumes (Angstroms**3):

  Primitive cell =          32.580961    Full cell =         130.323843

  Temperature of configuration =   0.00     K 

  Pressure of configuration =         0.000 GPa 

  Fractional coordinates of asymmetric unit :

--------------------------------------------------------------------------------
   No.  Atomic       x           y          z         Charge      Occupancy
        Label      (Frac)      (Frac)     (Frac)        (e)         (Frac)  
--------------------------------------------------------------------------------
      1 Zr    c    0.000000    0.000000    0.000000     2.65000    1.000000    
      2 O     c    0.250000    0.250000    0.250000     0.07700    1.000000    
      3 Zr    s    0.000000    0.000000    0.000000     1.35000    1.000000    
      4 O     s    0.250000    0.250000    0.250000    -2.07700    1.000000    
--------------------------------------------------------------------------------


  Constraints : 

--------------------------------------------------------------------------------
  Constraint no.      Unconstrained     Constrained    Coefficient    Offset
                         Variable         Variable
--------------------------------------------------------------------------------
           1              Strain 1        Strain 2       1.00000      0.0000
           2              Strain 1        Strain 3       1.00000      0.0000
--------------------------------------------------------------------------------


  Distance calculation :


  Cutoff for distances  =      4.000000 Angstroms

--------------------------------------------------------------------------------
  Asymmetric unit site  Full lattice sites    No.  Distance      No.  Distance
      No.   At.No.            At.No.                (Angs)             (Angs) 
--------------------------------------------------------------------------------
       1   Zr    core        Zr    core        12    3.5850
                             Zr    shell       12    3.5850
                             O     core         8    2.1954
                             O     shell        8    2.1954
--------------------------------------------------------------------------------
       2   O     core        Zr    core         4    2.1954
                             Zr    shell        4    2.1954
                             O     core         6    2.5350       12    3.5850
                             O     shell        6    2.5350       12    3.5850
--------------------------------------------------------------------------------
       3   Zr    shell       Zr    core        12    3.5850
                             Zr    shell       12    3.5850
                             O     core         8    2.1954
                             O     shell        8    2.1954
--------------------------------------------------------------------------------
       4   O     shell       Zr    core         4    2.1954
                             Zr    shell        4    2.1954
                             O     core         6    2.5350       12    3.5850
                             O     shell        6    2.5350       12    3.5850
--------------------------------------------------------------------------------



********************************************************************************
*  General input information                                                   *
********************************************************************************

  Species output for all configurations : 

--------------------------------------------------------------------------------
  Species    Type    Atomic    Atomic    Charge       Radii (Angs)     Library
                     Number     Mass       (e)     Cova   Ionic  VDW   Symbol
--------------------------------------------------------------------------------
    Zr       Core       40      91.22   2.650000   1.560  0.000  2.330          
    Zr       Shell      40       0.00   1.350000   1.560  0.000  2.330          
    O        Core        8      16.00   0.077000   0.730  0.000  1.360          
    O        Shell       8       0.00  -2.077000   0.730  0.000  1.360          
--------------------------------------------------------------------------------


  Lattice summation method               =    Ewald          (3-D)
                                         =    Parry          (2-D)
                                         =    Saunders et al (1-D)
  Accuracy factor for lattice sums       =   12.000


  Analytic derivatives to be used

  Time limit = Infinity

  Maximum range for interatomic potentials =    100000.000000 Angstroms

  General interatomic potentials :

--------------------------------------------------------------------------------
Atom  Types   Potential      Parameter       Value         Units   Cutoffs(Ang)
  1     2                                                            Min /  Max 
--------------------------------------------------------------------------------
O    s Zr   s Buckingham    Buckingham A     985.86900    eV        0.000 12.000
                            Buckingham rho  0.37600000    Ang       
                            Buckingham C     0.0000000    eV*Ang^6  
--------------------------------------------------------------------------------
O    s O    s Buckingham    Buckingham A     22764.300    eV        0.000 12.000
                            Buckingham rho  0.14900000    Ang       
                            Buckingham C     27.890000    eV*Ang^6  
--------------------------------------------------------------------------------
Zr   c Zr   s Spring (c-s)  Spring k 2       169.61700    eV*Ang^-2 0.000  0.800
                            Spring k 4       0.0000000    eV*Ang^-4 
--------------------------------------------------------------------------------
O    c O    s Spring (c-s)  Spring k 2       27.290000    eV*Ang^-2 0.000  0.800
                            Spring k 4       0.0000000    eV*Ang^-4 
--------------------------------------------------------------------------------

********************************************************************************
*  Output for configuration   1 : ZrO2                                         *
********************************************************************************


  Components of energy : 

--------------------------------------------------------------------------------
  Interatomic potentials     =          22.43756329 eV    
  Monopole - monopole (real) =         -15.67991073 eV    
  Monopole - monopole (recip)=        -116.52038266 eV    
  Monopole - monopole (total)=        -132.20029339 eV    
--------------------------------------------------------------------------------
  Total lattice energy : 
    Primitive unit cell      =        -109.76273010 eV    
    Non-primitive unit cell  =        -439.05092039 eV    
--------------------------------------------------------------------------------
  Total lattice energy (in kJmol-1): 
    Primitive unit cell      =          -10590.4256 kJ/(mole unit cells)
    Non-primitive unit cell  =          -42361.7023 kJ/(mole unit cells)
--------------------------------------------------------------------------------


  Number of variables =        1

  Maximum number of calculations  =          1000
  Maximum Hessian update interval =            10
  Maximum step size               =   1.000000000
  Maximum parameter tolerance     =   0.000010000
  Maximum function  tolerance     =   0.000010000
  Maximum gradient  tolerance     =   0.001000000
  Maximum gradient  component     =   0.010000000

  Symmetry constrained optimisation

  Symmetry used for second derivatives

  Cell parameters to be optimised using strains

  Newton-Raphson optimiser to be used

  BFGS hessian update to be used

  Lower half triangular hessian to be used

  Start of bulk optimisation :

  Cycle:      0 Energy:      -109.762730  Gnorm:      0.588311  CPU:    0.006
  ** Hessian calculated **
  Cycle:      1 Energy:      -109.763059  Gnorm:      0.000316  CPU:    0.009


  **** Optimisation achieved ****


  Final energy =    -109.76305939 eV
  Final Gnorm  =       0.00000099

  Components of energy : 

--------------------------------------------------------------------------------
  Interatomic potentials     =          22.28919976 eV    
  Monopole - monopole (real) =         -15.66235280 eV    
  Monopole - monopole (recip)=        -116.38990634 eV    
  Monopole - monopole (total)=        -132.05225914 eV    
--------------------------------------------------------------------------------
  Total lattice energy : 
    Primitive unit cell      =        -109.76305939 eV    
    Non-primitive unit cell  =        -439.05223754 eV    
--------------------------------------------------------------------------------
  Total lattice energy (in kJmol-1): 
    Primitive unit cell      =          -10590.4573 kJ/(mole unit cells)
    Non-primitive unit cell  =          -42361.8294 kJ/(mole unit cells)
--------------------------------------------------------------------------------

  Final asymmetric unit coordinates :

--------------------------------------------------------------------------------
   No.  Atomic        x           y           z         Radius
        Label       (Frac)      (Frac)      (Frac)       (Angs) 
--------------------------------------------------------------------------------
     1  Zr    c     0.000000    0.000000    0.000000    0.000000
     2  O     c     0.250000    0.250000    0.250000    0.000000
     3  Zr    s     0.000000    0.000000    0.000000    0.000000
     4  O     s     0.250000    0.250000    0.250000    0.000000
--------------------------------------------------------------------------------

  Final Cartesian lattice vectors (Angstroms) :

        0.000000    2.537842    2.537842
        2.537842    0.000000    2.537842
        2.537842    2.537842    0.000000


  Final cell parameters and derivatives :

--------------------------------------------------------------------------------
       a            3.589050 Angstrom     dE/de1(xx)    -0.000001 eV/strain
       b            3.589050 Angstrom     dE/de2(yy)     0.000000 eV/strain
       c            3.589050 Angstrom     dE/de3(zz)     0.000000 eV/strain
       alpha       60.000000 Degrees      dE/de4(yz)     0.000000 eV/strain
       beta        60.000000 Degrees      dE/de5(xz)     0.000000 eV/strain
       gamma       60.000000 Degrees      dE/de6(xy)     0.000000 eV/strain
--------------------------------------------------------------------------------

  Primitive cell volume =            32.690656 Angs**3

  Density of cell =      6.259124 g/cm**3

  Non-primitive lattice parameters :

  a    =     5.075684  b   =     5.075684  c    =     5.075684
  alpha=    90.000000  beta=    90.000000  gamma=    90.000000

  Non-primitive cell volume =           130.762624 Angs**3


  Final internal derivatives :

--------------------------------------------------------------------------------
   No.  Atomic          a             b             c           Radius
        Label          (eV)          (eV)          (eV)        (eV/Angs)
--------------------------------------------------------------------------------
      1 Zr    c       0.000000      0.000000      0.000000      0.000000
      2 O     c       0.000000      0.000000      0.000000      0.000000
      3 Zr    s       0.000000      0.000000      0.000000      0.000000
      4 O     s       0.000000      0.000000      0.000000      0.000000
--------------------------------------------------------------------------------
  Maximum abs         0.000000      0.000000      0.000000      0.000000
--------------------------------------------------------------------------------

  Comparison of initial and final structures : 

--------------------------------------------------------------------------------
  Parameter   Initial value   Final value   Difference    Units      Percent
--------------------------------------------------------------------------------
    Volume       130.323843    130.762624     0.438781    Angs**3      0.34
    a              5.070000      5.075684     0.005684    Angstroms    0.11
    b              5.070000      5.075684     0.005684    Angstroms    0.11
    c              5.070000      5.075684     0.005684    Angstroms    0.11
    alpha         90.000000     90.000000     0.000000    Degrees      0.00
    beta          90.000000     90.000000     0.000000    Degrees      0.00
    gamma         90.000000     90.000000     0.000000    Degrees      0.00
      1 x          0.000000      0.000000     0.000000    Fractional   0.00
      1 y          0.000000      0.000000     0.000000    Fractional   0.00
      1 z          0.000000      0.000000     0.000000    Fractional   0.00
      2 x          0.250000      0.250000     0.000000    Fractional   0.00
      2 y          0.250000      0.250000     0.000000    Fractional   0.00
      2 z          0.250000      0.250000     0.000000    Fractional   0.00
      3 x          0.000000      0.000000     0.000000    Fractional   0.00
      3 y          0.000000      0.000000     0.000000    Fractional   0.00
      3 z          0.000000      0.000000     0.000000    Fractional   0.00
      4 x          0.250000      0.250000     0.000000    Fractional   0.00
      4 y          0.250000      0.250000     0.000000    Fractional   0.00
      4 z          0.250000      0.250000     0.000000    Fractional   0.00
--------------------------------------------------------------------------------


  Distance calculation :


  Cutoff for distances  =      4.000000 Angstroms

--------------------------------------------------------------------------------
  Asymmetric unit site  Full lattice sites    No.  Distance      No.  Distance
      No.   At.No.            At.No.                (Angs)             (Angs) 
--------------------------------------------------------------------------------
       1   Zr    core        Zr    core        12    3.5891
                             Zr    shell       12    3.5891
                             O     core         8    2.1978
                             O     shell        8    2.1978
--------------------------------------------------------------------------------
       2   O     core        Zr    core         4    2.1978
                             Zr    shell        4    2.1978
                             O     core         6    2.5378       12    3.5891
                             O     shell        6    2.5378       12    3.5891
--------------------------------------------------------------------------------
       3   Zr    shell       Zr    core        12    3.5891
                             Zr    shell       12    3.5891
                             O     core         8    2.1978
                             O     shell        8    2.1978
--------------------------------------------------------------------------------
       4   O     shell       Zr    core         4    2.1978
                             Zr    shell        4    2.1978
                             O     core         6    2.5378       12    3.5891
                             O     shell        6    2.5378       12    3.5891
--------------------------------------------------------------------------------



  Born effective charge tensors : 

-------------------------------------------------------------------------------
  Atom             x           y             z
-------------------------------------------------------------------------------
    1 Zr    x       3.6770      0.0000      0.0000
            y       0.0000      3.6770      0.0000
            z       0.0000      0.0000      3.6770
-------------------------------------------------------------------------------
    2 O     x      -1.8385      0.0000      0.0000
            y       0.0000     -1.8385     -0.0000
            z       0.0000     -0.0000     -1.8385
-------------------------------------------------------------------------------




  Elastic Constant Matrix: (Units=GPa)

-------------------------------------------------------------------------------
  Indices      1         2         3         4         5         6    
-------------------------------------------------------------------------------
       1    616.2933  119.6612  119.6612   -0.0000   -0.0000   -0.0000
       2    119.6612  616.2933  119.6612   -0.0000   -0.0000   -0.0000
       3    119.6612  119.6612  616.2933   -0.0000   -0.0000   -0.0000
       4     -0.0000   -0.0000   -0.0000  100.8598    0.0000   -0.0000
       5     -0.0000   -0.0000   -0.0000    0.0000  100.8598    0.0000
       6     -0.0000   -0.0000   -0.0000   -0.0000    0.0000  100.8598
-------------------------------------------------------------------------------


  Elastic Compliance Matrix: (Units=1/GPa)

-------------------------------------------------------------------------------
  Indices      1         2         3         4         5         6    
-------------------------------------------------------------------------------
       1    0.001732 -0.000282 -0.000282  0.000000  0.000000  0.000000
       2   -0.000282  0.001732 -0.000282 -0.000000  0.000000  0.000000
       3   -0.000282 -0.000282  0.001732  0.000000  0.000000  0.000000
       4    0.000000 -0.000000  0.000000  0.009915 -0.000000  0.000000
       5    0.000000  0.000000  0.000000 -0.000000  0.009915 -0.000000
       6    0.000000  0.000000  0.000000  0.000000 -0.000000  0.009915
-------------------------------------------------------------------------------

  Mechanical properties :

-------------------------------------------------------------------------------
  Convention :                    Reuss         Voigt         Hill
-------------------------------------------------------------------------------
  Bulk  Modulus (GPa)     =     285.20524     285.20524     285.20524
  Shear Modulus (GPa)     =     132.28031     159.84228     146.06129
-------------------------------------------------------------------------------
  Velocity S-wave (km/s)  =       4.59717       5.05346       4.83071
  Velocity P-wave (km/s)  =       8.58749       8.92280       8.75675
-------------------------------------------------------------------------------
  Compressibility (1/GPa) =    0.00350625
-------------------------------------------------------------------------------
  Stress axis :                     x             y             z
-------------------------------------------------------------------------------
  Youngs Moduli (GPa)     =     577.38110     577.38110     577.38110
-------------------------------------------------------------------------------
  Poissons Ratio (x)      =                     0.16259       0.16259
  Poissons Ratio (y)      =       0.16259                     0.16259
  Poissons Ratio (z)      =       0.16259       0.16259
-------------------------------------------------------------------------------


  Piezoelectric Strain Matrix: (Units=C/m**2)

-------------------------------------------------------------------------------
  Indices      1         2         3         4         5         6    
-------------------------------------------------------------------------------
       x    -0.00000   0.00000   0.00000   0.00000   0.00000   0.00000
       y    -0.00000  -0.00000  -0.00000   0.00000   0.00000   0.00000
       z    -0.00000  -0.00000  -0.00000   0.00000   0.00000   0.00000
-------------------------------------------------------------------------------


  Piezoelectric Stress Matrix: (Units=10**-11 C/N)

-------------------------------------------------------------------------------
  Indices      1         2         3         4         5         6    
-------------------------------------------------------------------------------
       x    -0.00000   0.00000   0.00000   0.00000   0.00000   0.00000
       y    -0.00000  -0.00000  -0.00000   0.00000   0.00000   0.00000
       z     0.00000   0.00000  -0.00000   0.00000   0.00000   0.00000
-------------------------------------------------------------------------------


  Static dielectric constant tensor : 

-------------------------------------------------------------------------------
              x         y         z
-------------------------------------------------------------------------------
       x    26.88485   0.00000   0.00000
       y     0.00000  26.88485   0.00000
       z     0.00000   0.00000  26.88485
--------------------------------------------------------------------------------

  High frequency dielectric constant tensor : 

-------------------------------------------------------------------------------
              x         y         z
-------------------------------------------------------------------------------
       x     2.63099   0.00000   0.00000
       y     0.00000   2.63099   0.00000
       z     0.00000   0.00000   2.63099
-------------------------------------------------------------------------------

  Static refractive indices : 

-------------------------------------------------------------------------------
    1 =    5.18506      2 =    5.18506      3 =    5.18506
-------------------------------------------------------------------------------

  High frequency refractive indices : 

-------------------------------------------------------------------------------
    1 =    1.62203      2 =    1.62203      3 =    1.62203
-------------------------------------------------------------------------------


  Time to end of optimisation =       0.0143 seconds

********************************************************************************
*  Defect calculation for configuration   1 :                                  *
********************************************************************************

  Total number of defects =      3

  Total charge on defect  =   2.00

  Defect centre is at   0.7100   0.2500   0.2500  Frac

  Region 1 radius =  12.0000      Number of ions =   1344

  Number of symmetry inequivalent region 1 ions  =    414

  Region 2 radius =  24.0000      Number of ions =   9312

  Number of symmetry inequivalent region 2a ions =   2558

  Region 2a mode = 4 : screened electrostatics due to region 1 
                       neglect correction to region 1 forces from 2a
                       region 2a displacements based on defects only

  Region 2a ions will only interact with defects in region 1

  Vacancies:

--------------------------------------------------------------------------------
    Specification type     Symbol/Number         x          y          z
--------------------------------------------------------------------------------
    Fractional                               0.250000   0.250000   0.250000
    Fractional                               0.750000   0.250000   0.250000
--------------------------------------------------------------------------------

  Interstitials:

--------------------------------------------------------------------------------
    Specification type     Symbol/Number         x          y          z
--------------------------------------------------------------------------------
    Atom/Fractional         O                0.710000   0.250000   0.250000
--------------------------------------------------------------------------------


  Symmetry reduced region 1 (Relative to defect centre) :

--------------------------------------------------------------------------------
   No.   Atomic       x            y             z       Radius  Multiplicity   
         Label      (Angs)       (Angs)        (Angs)    (Angs)     
--------------------------------------------------------------------------------
     1  O     c      0.0000       0.0000       0.0000    0.0000     1    Defect
     2  Zr    c     -1.0659 *    -1.2689 *     1.2689    0.0000     2          
     3  Zr    c      1.4719 *    -1.2689 *    -1.2689    0.0000     2          
     4  O     c      0.2030 *     2.5378 *     0.0000 *  0.0000     4          
     5  O     c      2.7409 *     0.0000       0.0000    0.0000     1          
     6  O     c     -2.3348 *    -0.0000 *     2.5378 *  0.0000     4          
     7  O     c      0.2030 *     2.5378 *     2.5378    0.0000     2          
     8  O     c      0.2030 *    -2.5378 *     2.5378    0.0000     2          
     9  O     c      2.7409 *     2.5378 *    -0.0000 *  0.0000     4          
    10  Zr    c     -3.6037 *     1.2689 *     1.2689    0.0000     2          
    11  Zr    c     -1.0659 *    -3.8068 *    -1.2689 *  0.0000     4          
    12  Zr    c      1.4719 *    -3.8068 *     1.2689 *  0.0000     4          
    13  O     c     -2.3348 *     2.5378 *    -2.5378    0.0000     2          
    14  O     c     -2.3348 *     2.5378 *     2.5378    0.0000     2          
    15  Zr    c      4.0098 *     1.2689 *    -1.2689    0.0000     2          
    16  O     c      2.7409 *    -2.5378 *     2.5378    0.0000     2          
    17  O     c      2.7409 *     2.5378 *     2.5378    0.0000     2          
    18  O     c     -4.8727 *    -0.0000      -0.0000    0.0000     1          
    19  O     c      0.2030 *    -0.0000 *     5.0757 *  0.0000     4          
    20  O     c      5.2787 *    -0.0000      -0.0000    0.0000     1          
    21  Zr    c     -3.6037 *    -3.8068 *     1.2689 *  0.0000     4          
    22  Zr    c     -1.0659 *    -3.8068 *     3.8068    0.0000     2          
    23  O     c     -4.8727 *     0.0000 *     2.5378 *  0.0000     4          
    24  Zr    c      1.4719 *     3.8068 *     3.8068    0.0000     2          
    25  O     c     -2.3348 *    -5.0757 *     0.0000 *  0.0000     4          
    26  Zr    c      4.0098 *     1.2689 *     3.8068 *  0.0000     4          
    27  O     c      0.2030 *    -5.0757 *     2.5378 *  0.0000     4          
    28  O     c      0.2030 *     5.0757 *     2.5378 *  0.0000     4          
    29  O     c      2.7409 *     0.0000 *     5.0757 *  0.0000     4          
    30  O     c      5.2787 *     2.5378 *     0.0000 *  0.0000     4          
    31  O     c     -4.8727 *     2.5378 *     2.5378    0.0000     2          
    32  O     c     -4.8727 *    -2.5378 *     2.5378    0.0000     2          
    33  O     c     -2.3348 *     2.5378 *     5.0757 *  0.0000     4          
    34  O     c     -2.3348 *    -2.5378 *     5.0757 *  0.0000     4          
    35  O     c      2.7409 *     5.0757 *     2.5378 *  0.0000     4          
    36  O     c      2.7409 *    -2.5378 *     5.0757 *  0.0000     4          
    37  O     c      5.2787 *     2.5378 *     2.5378    0.0000     2          
    38  O     c      5.2787 *     2.5378 *    -2.5378    0.0000     2          
    39  Zr    c     -6.1416 *    -1.2689 *     1.2689    0.0000     2          
    40  Zr    c     -3.6037 *     3.8068 *     3.8068    0.0000     2          
    41  Zr    c     -1.0659 *     1.2689 *    -6.3446 *  0.0000     4          
    42  Zr    c      1.4719 *     1.2689 *     6.3446 *  0.0000     4          
    43  Zr    c      4.0098 *    -3.8068 *     3.8068    0.0000     2          
    44  Zr    c      6.5476 *    -1.2689 *    -1.2689    0.0000     2          
    45  O     c     -4.8727 *    -0.0000 *     5.0757 *  0.0000     4          
    46  O     c      0.2030 *     5.0757 *     5.0757    0.0000     2          
    47  O     c      0.2030 *    -5.0757 *     5.0757    0.0000     2          
    48  O     c      5.2787 *     5.0757 *    -0.0000 *  0.0000     4          
    49  Zr    c     -6.1416 *     1.2689 *     3.8068 *  0.0000     4          
    50  Zr    c     -3.6037 *     6.3446 *     1.2689 *  0.0000     4          
    51  O     c     -7.4105 *     0.0000       0.0000    0.0000     1          
    52  Zr    c     -1.0659 *     6.3446 *     3.8068 *  0.0000     4          
    53  O     c     -4.8727 *    -5.0757 *    -2.5378 *  0.0000     4          
    54  O     c     -4.8727 *    -5.0757 *     2.5378 *  0.0000     4          
    55  Zr    c      1.4719 *    -6.3446 *     3.8068 *  0.0000     4          
    56  O     c     -2.3348 *     5.0757 *     5.0757    0.0000     2          
    57  O     c     -2.3348 *    -5.0757 *     5.0757    0.0000     2          
    58  Zr    c      4.0098 *    -1.2689 *     6.3446 *  0.0000     4          
    59  O     c      0.2030 *     0.0000 *     7.6135 *  0.0000     4          
    60  Zr    c      6.5476 *     3.8068 *    -1.2689 *  0.0000     4          
    61  O     c      2.7409 *    -5.0757 *     5.0757    0.0000     2          
    62  O     c      2.7409 *    -5.0757 *    -5.0757    0.0000     2          
    63  O     c      5.2787 *    -2.5378 *    -5.0757 *  0.0000     4          
    64  O     c      5.2787 *     5.0757 *    -2.5378 *  0.0000     4          
    65  O     c      7.8166 *     0.0000       0.0000    0.0000     1          
    66  O     c     -7.4105 *    -0.0000 *     2.5378 *  0.0000     4          
    67  O     c     -2.3348 *    -0.0000 *     7.6135 *  0.0000     4          
    68  O     c      0.2030 *     2.5378 *     7.6135 *  0.0000     4          
    69  O     c      0.2030 *    -2.5378 *     7.6135 *  0.0000     4          
    70  O     c      2.7409 *    -0.0000 *     7.6135 *  0.0000     4          
    71  Zr    c     -6.1416 *    -3.8068 *     3.8068    0.0000     2          
    72  O     c      7.8166 *     2.5378 *    -0.0000 *  0.0000     4          
    73  Zr    c     -3.6037 *    -6.3446 *     3.8068 *  0.0000     4          
    74  O     c     -7.4105 *     2.5378 *     2.5378    0.0000     2          
    75  O     c     -7.4105 *    -2.5378 *     2.5378    0.0000     2          
    76  O     c     -2.3348 *     2.5378 *     7.6135 *  0.0000     4          
    77  O     c     -2.3348 *    -7.6135 *     2.5378 *  0.0000     4          
    78  Zr    c      4.0098 *     6.3446 *     3.8068 *  0.0000     4          
    79  Zr    c      6.5476 *     3.8068 *     3.8068    0.0000     2          
    80  O     c      2.7409 *    -2.5378 *     7.6135 *  0.0000     4          
    81  O     c      2.7409 *     7.6135 *     2.5378 *  0.0000     4          
    82  O     c      7.8166 *     2.5378 *     2.5378    0.0000     2          
    83  O     c      7.8166 *     2.5378 *    -2.5378    0.0000     2          
    84  O     c     -4.8727 *     5.0757 *     5.0757    0.0000     2          
    85  O     c     -4.8727 *    -5.0757 *     5.0757    0.0000     2          
    86  Zr    c     -8.6794 *    -1.2689 *    -1.2689    0.0000     2          
    87  O     c      5.2787 *     5.0757 *     5.0757    0.0000     2          
    88  O     c      5.2787 *    -5.0757 *     5.0757    0.0000     2          
    89  Zr    c     -6.1416 *    -6.3446 *     1.2689 *  0.0000     4          
    90  O     c     -7.4105 *     5.0757 *     0.0000 *  0.0000     4          
    91  Zr    c     -1.0659 *    -6.3446 *     6.3446    0.0000     2          
    92  Zr    c     -1.0659 *     1.2689 *     8.8824 *  0.0000     4          
    93  O     c     -4.8727 *    -7.6135 *     0.0000 *  0.0000     4          
    94  Zr    c      1.4719 *     6.3446 *     6.3446    0.0000     2          
    95  Zr    c      1.4719 *    -1.2689 *     8.8824 *  0.0000     4          
    96  O     c      0.2030 *     5.0757 *     7.6135 *  0.0000     4          
    97  O     c      0.2030 *    -7.6135 *     5.0757 *  0.0000     4          
    98  Zr    c      6.5476 *     6.3446 *     1.2689 *  0.0000     4          
    99  Zr    c      9.0855 *     1.2689 *    -1.2689    0.0000     2          
   100  O     c      5.2787 *     7.6135 *     0.0000 *  0.0000     4          
   101  O     c      7.8166 *     5.0757 *     0.0000 *  0.0000     4          
   102  O     c     -7.4105 *    -2.5378 *     5.0757 *  0.0000     4          
   103  O     c     -7.4105 *     2.5378 *     5.0757 *  0.0000     4          
   104  O     c     -4.8727 *     7.6135 *    -2.5378 *  0.0000     4          
   105  O     c     -4.8727 *     2.5378 *     7.6135 *  0.0000     4          
   106  O     c     -2.3348 *     7.6135 *     5.0757 *  0.0000     4          
   107  O     c     -2.3348 *    -7.6135 *     5.0757 *  0.0000     4          
   108  O     c      2.7409 *     7.6135 *     5.0757 *  0.0000     4          
   109  O     c      2.7409 *     7.6135 *    -5.0757 *  0.0000     4          
   110  Zr    c     -8.6794 *    -1.2689 *     3.8068 *  0.0000     4          
   111  O     c      5.2787 *     2.5378 *     7.6135 *  0.0000     4          
   112  O     c      5.2787 *    -2.5378 *     7.6135 *  0.0000     4          
   113  Zr    c     -6.1416 *    -6.3446 *    -3.8068 *  0.0000     4          
   114  O     c      7.8166 *     5.0757 *     2.5378 *  0.0000     4          
   115  O     c      7.8166 *     5.0757 *    -2.5378 *  0.0000     4          
   116  Zr    c     -3.6037 *     6.3446 *     6.3446    0.0000     2          
   117  Zr    c     -3.6037 *    -8.8824 *     1.2689 *  0.0000     4          
   118  Zr    c     -1.0659 *    -8.8824 *     3.8068 *  0.0000     4          
   119  Zr    c      1.4719 *     3.8068 *     8.8824 *  0.0000     4          
   120  Zr    c      4.0098 *    -6.3446 *     6.3446    0.0000     2          
   121  Zr    c      4.0098 *     1.2689 *     8.8824 *  0.0000     4          
   122  Zr    c      6.5476 *    -3.8068 *     6.3446 *  0.0000     4          
   123  Zr    c      9.0855 *     3.8068 *     1.2689 *  0.0000     4          
   124  O     c     -9.9483 *    -0.0000      -0.0000    0.0000     1          
   125  O     c      0.2030 *    -0.0000 *    10.1514 *  0.0000     4          
   126  Zr    c     -8.6794 *    -3.8068 *    -3.8068    0.0000     2          
   127  O     c     -9.9483 *    -2.5378 *     0.0000 *  0.0000     4          
   128  Zr    c     -3.6037 *     3.8068 *     8.8824 *  0.0000     4          
   129  O     c     -7.4105 *     5.0757 *     5.0757    0.0000     2          
   130  O     c     -7.4105 *    -5.0757 *     5.0757    0.0000     2          
   131  O     c     10.3544 *    -0.0000      -0.0000    0.0000     1          
   132  O     c     -4.8727 *    -7.6135 *     5.0757 *  0.0000     4          
   133  O     c     -4.8727 *     5.0757 *     7.6135 *  0.0000     4          
   134  O     c     -2.3348 *    -0.0000 *    10.1514 *  0.0000     4          
   135  Zr    c      4.0098 *     8.8824 *    -3.8068 *  0.0000     4          
   136  O     c      0.2030 *     2.5378 *    10.1514 *  0.0000     4          
   137  O     c      0.2030 *    -2.5378 *    10.1514 *  0.0000     4          
   138  O     c      2.7409 *     0.0000 *    10.1514 *  0.0000     4          
   139  Zr    c      9.0855 *     3.8068 *    -3.8068    0.0000     2          
   140  O     c      5.2787 *    -5.0757 *     7.6135 *  0.0000     4          
   141  O     c      5.2787 *     7.6135 *     5.0757 *  0.0000     4          
   142  O     c     -9.9483 *    -2.5378 *    -2.5378    0.0000     2          
   143  O     c     -9.9483 *    -2.5378 *     2.5378    0.0000     2          
   144  O     c      7.8166 *     5.0757 *     5.0757    0.0000     2          
   145  O     c      7.8166 *     5.0757 *    -5.0757    0.0000     2          
   146  O     c     -7.4105 *    -0.0000 *     7.6135 *  0.0000     4          
   147  O     c     10.3544 *     2.5378 *     0.0000 *  0.0000     4          
   148  O     c     -2.3348 *    -2.5378 *    10.1514 *  0.0000     4          
   149  O     c     -2.3348 *     2.5378 *    10.1514 *  0.0000     4          
   150  O     c      0.2030 *     7.6135 *     7.6135    0.0000     2          
   151  O     c      0.2030 *    -7.6135 *     7.6135    0.0000     2          
   152  O     c      2.7409 *    -2.5378 *    10.1514 *  0.0000     4          
   153  O     c      2.7409 *     2.5378 *    10.1514 *  0.0000     4          
   154  Zr    c     -8.6794 *    -1.2689 *    -6.3446 *  0.0000     4          
   155  Zr    c     -6.1416 *    -6.3446 *     6.3446    0.0000     2          
   156  Zr    c     -6.1416 *     1.2689 *     8.8824 *  0.0000     4          
   157  O     c      7.8166 *     7.6135 *    -0.0000 *  0.0000     4          
   158  O     c     -7.4105 *    -7.6135 *    -2.5378 *  0.0000     4          
   159  O     c     -7.4105 *    -7.6135 *     2.5378 *  0.0000     4          
   160  O     c     10.3544 *     2.5378 *     2.5378    0.0000     2          
   161  O     c     10.3544 *     2.5378 *    -2.5378    0.0000     2          
   162  Zr    c     -1.0659 *     6.3446 *     8.8824 *  0.0000     4          
   163  Zr    c      1.4719 *    -8.8824 *     6.3446 *  0.0000     4          
   164  O     c     -2.3348 *    -7.6135 *     7.6135    0.0000     2          
   165  O     c     -2.3348 *     7.6135 *     7.6135    0.0000     2          
   166  Zr    c      6.5476 *     6.3446 *     6.3446    0.0000     2          
   167  Zr    c      6.5476 *     8.8824 *    -1.2689 *  0.0000     4          
   168  O     c      2.7409 *    -7.6135 *     7.6135    0.0000     2          
   169  O     c      2.7409 *     7.6135 *     7.6135    0.0000     2          
   170  Zr    c      9.0855 *     6.3446 *    -1.2689 *  0.0000     4          
   171  O     c     -9.9483 *    -0.0000 *     5.0757 *  0.0000     4          
   172  O     c      7.8166 *    -2.5378 *     7.6135 *  0.0000     4          
   173  O     c      7.8166 *     2.5378 *     7.6135 *  0.0000     4          
   174  O     c     -4.8727 *    -0.0000 *    10.1514 *  0.0000     4          
   175  O     c      0.2030 *     5.0757 *    10.1514 *  0.0000     4          
   176  O     c      0.2030 *    -5.0757 *    10.1514 *  0.0000     4          
   177  Zr    c    -11.2173 *    -1.2689 *     1.2689    0.0000     2          
   178  Zr    c     -8.6794 *    -6.3446 *     3.8068 *  0.0000     4          
   179  O     c      5.2787 *    -0.0000 *    10.1514 *  0.0000     4          
   180  Zr    c     -6.1416 *    -8.8824 *     3.8068 *  0.0000     4          
   181  O     c     -9.9483 *    -5.0757 *     2.5378 *  0.0000     4          
   182  O     c     -9.9483 *     2.5378 *     5.0757 *  0.0000     4          
   183  Zr    c     -3.6037 *    -8.8824 *     6.3446 *  0.0000     4          
   184  O     c     10.3544 *     5.0757 *    -0.0000 *  0.0000     4          
   185  Zr    c     -1.0659 *    -1.2689 *    11.4203 *  0.0000     4          
   186  O     c     -4.8727 *   -10.1514 *     2.5378 *  0.0000     4          
   187  O     c     -4.8727 *     2.5378 *    10.1514 *  0.0000     4          
   188  Zr    c      1.4719 *     1.2689 *    11.4203 *  0.0000     4          
   189  O     c     -2.3348 *   -10.1514 *     5.0757 *  0.0000     4          
   190  O     c     -2.3348 *     5.0757 *    10.1514 *  0.0000     4          
   191  Zr    c      4.0098 *     8.8824 *     6.3446 *  0.0000     4          
   192  Zr    c      6.5476 *     8.8824 *     3.8068 *  0.0000     4          
   193  O     c      2.7409 *     5.0757 *    10.1514 *  0.0000     4          
   194  O     c      2.7409 *    -5.0757 *    10.1514 *  0.0000     4          
   195  Zr    c      9.0855 *     6.3446 *     3.8068 *  0.0000     4          
   196  O     c      5.2787 *   -10.1514 *    -2.5378 *  0.0000     4          
   197  O     c      5.2787 *    -2.5378 *    10.1514 *  0.0000     4          
   198  Zr    c     11.6233 *     1.2689 *     1.2689    0.0000     2          
   199  O     c     -7.4105 *     5.0757 *     7.6135 *  0.0000     4          
   200  O     c     -7.4105 *    -7.6135 *     5.0757 *  0.0000     4          
   201  O     c     10.3544 *    -5.0757 *    -2.5378 *  0.0000     4          
   202  O     c     10.3544 *     5.0757 *    -2.5378 *  0.0000     4          
   203  O     c     -4.8727 *     7.6135 *     7.6135    0.0000     2          
   204  O     c     -4.8727 *    -7.6135 *     7.6135    0.0000     2          
   205  Zr    c    -11.2173 *    -3.8068 *    -1.2689 *  0.0000     4          
   206  O     c      5.2787 *     7.6135 *     7.6135    0.0000     2          
   207  O     c      5.2787 *    -7.6135 *     7.6135    0.0000     2          
   208  O     s      0.0000       0.0000       0.0000    0.0000     1    Defect
   209  Zr    s     -1.0659 *    -1.2689 *     1.2689    0.0000     2          
   210  Zr    s      1.4719 *    -1.2689 *    -1.2689    0.0000     2          
   211  O     s      0.2030 *     2.5378 *     0.0000 *  0.0000     4          
   212  O     s      2.7409 *     0.0000       0.0000    0.0000     1          
   213  O     s     -2.3348 *    -0.0000 *     2.5378 *  0.0000     4          
   214  O     s      0.2030 *     2.5378 *     2.5378    0.0000     2          
   215  O     s      0.2030 *    -2.5378 *     2.5378    0.0000     2          
   216  O     s      2.7409 *     2.5378 *    -0.0000 *  0.0000     4          
   217  Zr    s     -3.6037 *     1.2689 *     1.2689    0.0000     2          
   218  Zr    s     -1.0659 *    -3.8068 *    -1.2689 *  0.0000     4          
   219  Zr    s      1.4719 *    -3.8068 *     1.2689 *  0.0000     4          
   220  O     s     -2.3348 *     2.5378 *    -2.5378    0.0000     2          
   221  O     s     -2.3348 *     2.5378 *     2.5378    0.0000     2          
   222  Zr    s      4.0098 *     1.2689 *    -1.2689    0.0000     2          
   223  O     s      2.7409 *    -2.5378 *     2.5378    0.0000     2          
   224  O     s      2.7409 *     2.5378 *     2.5378    0.0000     2          
   225  O     s     -4.8727 *    -0.0000      -0.0000    0.0000     1          
   226  O     s      0.2030 *    -0.0000 *     5.0757 *  0.0000     4          
   227  O     s      5.2787 *    -0.0000      -0.0000    0.0000     1          
   228  Zr    s     -3.6037 *    -3.8068 *     1.2689 *  0.0000     4          
   229  Zr    s     -1.0659 *    -3.8068 *     3.8068    0.0000     2          
   230  O     s     -4.8727 *     0.0000 *     2.5378 *  0.0000     4          
   231  Zr    s      1.4719 *     3.8068 *     3.8068    0.0000     2          
   232  O     s     -2.3348 *    -5.0757 *     0.0000 *  0.0000     4          
   233  Zr    s      4.0098 *     1.2689 *     3.8068 *  0.0000     4          
   234  O     s      0.2030 *    -5.0757 *     2.5378 *  0.0000     4          
   235  O     s      0.2030 *     5.0757 *     2.5378 *  0.0000     4          
   236  O     s      2.7409 *     0.0000 *     5.0757 *  0.0000     4          
   237  O     s      5.2787 *     2.5378 *     0.0000 *  0.0000     4          
   238  O     s     -4.8727 *     2.5378 *     2.5378    0.0000     2          
   239  O     s     -4.8727 *    -2.5378 *     2.5378    0.0000     2          
   240  O     s     -2.3348 *     2.5378 *     5.0757 *  0.0000     4          
   241  O     s     -2.3348 *    -2.5378 *     5.0757 *  0.0000     4          
   242  O     s      2.7409 *     5.0757 *     2.5378 *  0.0000     4          
   243  O     s      2.7409 *    -2.5378 *     5.0757 *  0.0000     4          
   244  O     s      5.2787 *     2.5378 *     2.5378    0.0000     2          
   245  O     s      5.2787 *     2.5378 *    -2.5378    0.0000     2          
   246  Zr    s     -6.1416 *    -1.2689 *     1.2689    0.0000     2          
   247  Zr    s     -3.6037 *     3.8068 *     3.8068    0.0000     2          
   248  Zr    s     -1.0659 *     1.2689 *    -6.3446 *  0.0000     4          
   249  Zr    s      1.4719 *     1.2689 *     6.3446 *  0.0000     4          
   250  Zr    s      4.0098 *    -3.8068 *     3.8068    0.0000     2          
   251  Zr    s      6.5476 *    -1.2689 *    -1.2689    0.0000     2          
   252  O     s     -4.8727 *    -0.0000 *     5.0757 *  0.0000     4          
   253  O     s      0.2030 *     5.0757 *     5.0757    0.0000     2          
   254  O     s      0.2030 *    -5.0757 *     5.0757    0.0000     2          
   255  O     s      5.2787 *     5.0757 *    -0.0000 *  0.0000     4          
   256  Zr    s     -6.1416 *     1.2689 *     3.8068 *  0.0000     4          
   257  Zr    s     -3.6037 *     6.3446 *     1.2689 *  0.0000     4          
   258  O     s     -7.4105 *     0.0000       0.0000    0.0000     1          
   259  Zr    s     -1.0659 *     6.3446 *     3.8068 *  0.0000     4          
   260  O     s     -4.8727 *    -5.0757 *    -2.5378 *  0.0000     4          
   261  O     s     -4.8727 *    -5.0757 *     2.5378 *  0.0000     4          
   262  Zr    s      1.4719 *    -6.3446 *     3.8068 *  0.0000     4          
   263  O     s     -2.3348 *     5.0757 *     5.0757    0.0000     2          
   264  O     s     -2.3348 *    -5.0757 *     5.0757    0.0000     2          
   265  Zr    s      4.0098 *    -1.2689 *     6.3446 *  0.0000     4          
   266  O     s      0.2030 *     0.0000 *     7.6135 *  0.0000     4          
   267  Zr    s      6.5476 *     3.8068 *    -1.2689 *  0.0000     4          
   268  O     s      2.7409 *    -5.0757 *     5.0757    0.0000     2          
   269  O     s      2.7409 *    -5.0757 *    -5.0757    0.0000     2          
   270  O     s      5.2787 *    -2.5378 *    -5.0757 *  0.0000     4          
   271  O     s      5.2787 *     5.0757 *    -2.5378 *  0.0000     4          
   272  O     s      7.8166 *     0.0000       0.0000    0.0000     1          
   273  O     s     -7.4105 *    -0.0000 *     2.5378 *  0.0000     4          
   274  O     s     -2.3348 *    -0.0000 *     7.6135 *  0.0000     4          
   275  O     s      0.2030 *     2.5378 *     7.6135 *  0.0000     4          
   276  O     s      0.2030 *    -2.5378 *     7.6135 *  0.0000     4          
   277  O     s      2.7409 *    -0.0000 *     7.6135 *  0.0000     4          
   278  Zr    s     -6.1416 *    -3.8068 *     3.8068    0.0000     2          
   279  O     s      7.8166 *     2.5378 *    -0.0000 *  0.0000     4          
   280  Zr    s     -3.6037 *    -6.3446 *     3.8068 *  0.0000     4          
   281  O     s     -7.4105 *     2.5378 *     2.5378    0.0000     2          
   282  O     s     -7.4105 *    -2.5378 *     2.5378    0.0000     2          
   283  O     s     -2.3348 *     2.5378 *     7.6135 *  0.0000     4          
   284  O     s     -2.3348 *    -7.6135 *     2.5378 *  0.0000     4          
   285  Zr    s      4.0098 *     6.3446 *     3.8068 *  0.0000     4          
   286  Zr    s      6.5476 *     3.8068 *     3.8068    0.0000     2          
   287  O     s      2.7409 *    -2.5378 *     7.6135 *  0.0000     4          
   288  O     s      2.7409 *     7.6135 *     2.5378 *  0.0000     4          
   289  O     s      7.8166 *     2.5378 *     2.5378    0.0000     2          
   290  O     s      7.8166 *     2.5378 *    -2.5378    0.0000     2          
   291  O     s     -4.8727 *     5.0757 *     5.0757    0.0000     2          
   292  O     s     -4.8727 *    -5.0757 *     5.0757    0.0000     2          
   293  Zr    s     -8.6794 *    -1.2689 *    -1.2689    0.0000     2          
   294  O     s      5.2787 *     5.0757 *     5.0757    0.0000     2          
   295  O     s      5.2787 *    -5.0757 *     5.0757    0.0000     2          
   296  Zr    s     -6.1416 *    -6.3446 *     1.2689 *  0.0000     4          
   297  O     s     -7.4105 *     5.0757 *     0.0000 *  0.0000     4          
   298  Zr    s     -1.0659 *    -6.3446 *     6.3446    0.0000     2          
   299  Zr    s     -1.0659 *     1.2689 *     8.8824 *  0.0000     4          
   300  O     s     -4.8727 *    -7.6135 *     0.0000 *  0.0000     4          
   301  Zr    s      1.4719 *     6.3446 *     6.3446    0.0000     2          
   302  Zr    s      1.4719 *    -1.2689 *     8.8824 *  0.0000     4          
   303  O     s      0.2030 *     5.0757 *     7.6135 *  0.0000     4          
   304  O     s      0.2030 *    -7.6135 *     5.0757 *  0.0000     4          
   305  Zr    s      6.5476 *     6.3446 *     1.2689 *  0.0000     4          
   306  Zr    s      9.0855 *     1.2689 *    -1.2689    0.0000     2          
   307  O     s      5.2787 *     7.6135 *     0.0000 *  0.0000     4          
   308  O     s      7.8166 *     5.0757 *     0.0000 *  0.0000     4          
   309  O     s     -7.4105 *    -2.5378 *     5.0757 *  0.0000     4          
   310  O     s     -7.4105 *     2.5378 *     5.0757 *  0.0000     4          
   311  O     s     -4.8727 *     7.6135 *    -2.5378 *  0.0000     4          
   312  O     s     -4.8727 *     2.5378 *     7.6135 *  0.0000     4          
   313  O     s     -2.3348 *     7.6135 *     5.0757 *  0.0000     4          
   314  O     s     -2.3348 *    -7.6135 *     5.0757 *  0.0000     4          
   315  O     s      2.7409 *     7.6135 *     5.0757 *  0.0000     4          
   316  O     s      2.7409 *     7.6135 *    -5.0757 *  0.0000     4          
   317  Zr    s     -8.6794 *    -1.2689 *     3.8068 *  0.0000     4          
   318  O     s      5.2787 *     2.5378 *     7.6135 *  0.0000     4          
   319  O     s      5.2787 *    -2.5378 *     7.6135 *  0.0000     4          
   320  Zr    s     -6.1416 *    -6.3446 *    -3.8068 *  0.0000     4          
   321  O     s      7.8166 *     5.0757 *     2.5378 *  0.0000     4          
   322  O     s      7.8166 *     5.0757 *    -2.5378 *  0.0000     4          
   323  Zr    s     -3.6037 *     6.3446 *     6.3446    0.0000     2          
   324  Zr    s     -3.6037 *    -8.8824 *     1.2689 *  0.0000     4          
   325  Zr    s     -1.0659 *    -8.8824 *     3.8068 *  0.0000     4          
   326  Zr    s      1.4719 *     3.8068 *     8.8824 *  0.0000     4          
   327  Zr    s      4.0098 *    -6.3446 *     6.3446    0.0000     2          
   328  Zr    s      4.0098 *     1.2689 *     8.8824 *  0.0000     4          
   329  Zr    s      6.5476 *    -3.8068 *     6.3446 *  0.0000     4          
   330  Zr    s      9.0855 *     3.8068 *     1.2689 *  0.0000     4          
   331  O     s     -9.9483 *    -0.0000      -0.0000    0.0000     1          
   332  O     s      0.2030 *    -0.0000 *    10.1514 *  0.0000     4          
   333  Zr    s     -8.6794 *    -3.8068 *    -3.8068    0.0000     2          
   334  O     s     -9.9483 *    -2.5378 *     0.0000 *  0.0000     4          
   335  Zr    s     -3.6037 *     3.8068 *     8.8824 *  0.0000     4          
   336  O     s     -7.4105 *     5.0757 *     5.0757    0.0000     2          
   337  O     s     -7.4105 *    -5.0757 *     5.0757    0.0000     2          
   338  O     s     10.3544 *    -0.0000      -0.0000    0.0000     1          
   339  O     s     -4.8727 *    -7.6135 *     5.0757 *  0.0000     4          
   340  O     s     -4.8727 *     5.0757 *     7.6135 *  0.0000     4          
   341  O     s     -2.3348 *    -0.0000 *    10.1514 *  0.0000     4          
   342  Zr    s      4.0098 *     8.8824 *    -3.8068 *  0.0000     4          
   343  O     s      0.2030 *     2.5378 *    10.1514 *  0.0000     4          
   344  O     s      0.2030 *    -2.5378 *    10.1514 *  0.0000     4          
   345  O     s      2.7409 *     0.0000 *    10.1514 *  0.0000     4          
   346  Zr    s      9.0855 *     3.8068 *    -3.8068    0.0000     2          
   347  O     s      5.2787 *    -5.0757 *     7.6135 *  0.0000     4          
   348  O     s      5.2787 *     7.6135 *     5.0757 *  0.0000     4          
   349  O     s     -9.9483 *    -2.5378 *    -2.5378    0.0000     2          
   350  O     s     -9.9483 *    -2.5378 *     2.5378    0.0000     2          
   351  O     s      7.8166 *     5.0757 *     5.0757    0.0000     2          
   352  O     s      7.8166 *     5.0757 *    -5.0757    0.0000     2          
   353  O     s     -7.4105 *    -0.0000 *     7.6135 *  0.0000     4          
   354  O     s     10.3544 *     2.5378 *     0.0000 *  0.0000     4          
   355  O     s     -2.3348 *    -2.5378 *    10.1514 *  0.0000     4          
   356  O     s     -2.3348 *     2.5378 *    10.1514 *  0.0000     4          
   357  O     s      0.2030 *     7.6135 *     7.6135    0.0000     2          
   358  O     s      0.2030 *    -7.6135 *     7.6135    0.0000     2          
   359  O     s      2.7409 *    -2.5378 *    10.1514 *  0.0000     4          
   360  O     s      2.7409 *     2.5378 *    10.1514 *  0.0000     4          
   361  Zr    s     -8.6794 *    -1.2689 *    -6.3446 *  0.0000     4          
   362  Zr    s     -6.1416 *    -6.3446 *     6.3446    0.0000     2          
   363  Zr    s     -6.1416 *     1.2689 *     8.8824 *  0.0000     4          
   364  O     s      7.8166 *     7.6135 *    -0.0000 *  0.0000     4          
   365  O     s     -7.4105 *    -7.6135 *    -2.5378 *  0.0000     4          
   366  O     s     -7.4105 *    -7.6135 *     2.5378 *  0.0000     4          
   367  O     s     10.3544 *     2.5378 *     2.5378    0.0000     2          
   368  O     s     10.3544 *     2.5378 *    -2.5378    0.0000     2          
   369  Zr    s     -1.0659 *     6.3446 *     8.8824 *  0.0000     4          
   370  Zr    s      1.4719 *    -8.8824 *     6.3446 *  0.0000     4          
   371  O     s     -2.3348 *    -7.6135 *     7.6135    0.0000     2          
   372  O     s     -2.3348 *     7.6135 *     7.6135    0.0000     2          
   373  Zr    s      6.5476 *     6.3446 *     6.3446    0.0000     2          
   374  Zr    s      6.5476 *     8.8824 *    -1.2689 *  0.0000     4          
   375  O     s      2.7409 *    -7.6135 *     7.6135    0.0000     2          
   376  O     s      2.7409 *     7.6135 *     7.6135    0.0000     2          
   377  Zr    s      9.0855 *     6.3446 *    -1.2689 *  0.0000     4          
   378  O     s     -9.9483 *    -0.0000 *     5.0757 *  0.0000     4          
   379  O     s      7.8166 *    -2.5378 *     7.6135 *  0.0000     4          
   380  O     s      7.8166 *     2.5378 *     7.6135 *  0.0000     4          
   381  O     s     -4.8727 *    -0.0000 *    10.1514 *  0.0000     4          
   382  O     s      0.2030 *     5.0757 *    10.1514 *  0.0000     4          
   383  O     s      0.2030 *    -5.0757 *    10.1514 *  0.0000     4          
   384  Zr    s    -11.2173 *    -1.2689 *     1.2689    0.0000     2          
   385  Zr    s     -8.6794 *    -6.3446 *     3.8068 *  0.0000     4          
   386  O     s      5.2787 *    -0.0000 *    10.1514 *  0.0000     4          
   387  Zr    s     -6.1416 *    -8.8824 *     3.8068 *  0.0000     4          
   388  O     s     -9.9483 *    -5.0757 *     2.5378 *  0.0000     4          
   389  O     s     -9.9483 *     2.5378 *     5.0757 *  0.0000     4          
   390  Zr    s     -3.6037 *    -8.8824 *     6.3446 *  0.0000     4          
   391  O     s     10.3544 *     5.0757 *    -0.0000 *  0.0000     4          
   392  Zr    s     -1.0659 *    -1.2689 *    11.4203 *  0.0000     4          
   393  O     s     -4.8727 *   -10.1514 *     2.5378 *  0.0000     4          
   394  O     s     -4.8727 *     2.5378 *    10.1514 *  0.0000     4          
   395  Zr    s      1.4719 *     1.2689 *    11.4203 *  0.0000     4          
   396  O     s     -2.3348 *   -10.1514 *     5.0757 *  0.0000     4          
   397  O     s     -2.3348 *     5.0757 *    10.1514 *  0.0000     4          
   398  Zr    s      4.0098 *     8.8824 *     6.3446 *  0.0000     4          
   399  Zr    s      6.5476 *     8.8824 *     3.8068 *  0.0000     4          
   400  O     s      2.7409 *     5.0757 *    10.1514 *  0.0000     4          
   401  O     s      2.7409 *    -5.0757 *    10.1514 *  0.0000     4          
   402  Zr    s      9.0855 *     6.3446 *     3.8068 *  0.0000     4          
   403  O     s      5.2787 *   -10.1514 *    -2.5378 *  0.0000     4          
   404  O     s      5.2787 *    -2.5378 *    10.1514 *  0.0000     4          
   405  Zr    s     11.6233 *     1.2689 *     1.2689    0.0000     2          
   406  O     s     -7.4105 *     5.0757 *     7.6135 *  0.0000     4          
   407  O     s     -7.4105 *    -7.6135 *     5.0757 *  0.0000     4          
   408  O     s     10.3544 *    -5.0757 *    -2.5378 *  0.0000     4          
   409  O     s     10.3544 *     5.0757 *    -2.5378 *  0.0000     4          
   410  O     s     -4.8727 *     7.6135 *     7.6135    0.0000     2          
   411  O     s     -4.8727 *    -7.6135 *     7.6135    0.0000     2          
   412  Zr    s    -11.2173 *    -3.8068 *    -1.2689 *  0.0000     4          
   413  O     s      5.2787 *     7.6135 *     7.6135    0.0000     2          
   414  O     s      5.2787 *    -7.6135 *     7.6135    0.0000     2          
--------------------------------------------------------------------------------


  Constraints on symmetry reduced coordinates :

--------------------------------------------------------------------------------
  Constraint no.      Unconstrained     Constrained    Coefficient    
                         Variable         Variable
--------------------------------------------------------------------------------
           1                 2 y             2 z        -1.00000
           2                 3 y             3 z         1.00000
           3                 7 y             7 z         1.00000
           4                 8 y             8 z        -1.00000
           5                10 y            10 z         1.00000
           6                13 y            13 z        -1.00000
           7                14 y            14 z         1.00000
           8                15 y            15 z        -1.00000
           9                16 y            16 z        -1.00000
          10                17 y            17 z         1.00000
          11                22 y            22 z        -1.00000
          12                24 y            24 z         1.00000
          13                31 y            31 z         1.00000
          14                32 y            32 z        -1.00000
          15                37 y            37 z         1.00000
          16                38 y            38 z        -1.00000
          17                39 y            39 z        -1.00000
          18                40 y            40 z         1.00000
          19                43 y            43 z        -1.00000
          20                44 y            44 z         1.00000
          21                46 y            46 z         1.00000
          22                47 y            47 z        -1.00000
          23                56 y            56 z         1.00000
          24                57 y            57 z        -1.00000
          25                61 y            61 z        -1.00000
          26                62 y            62 z         1.00000
          27                71 y            71 z        -1.00000
          28                74 y            74 z         1.00000
          29                75 y            75 z        -1.00000
          30                79 y            79 z         1.00000
          31                82 y            82 z         1.00000
          32                83 y            83 z        -1.00000
          33                84 y            84 z         1.00000
          34                85 y            85 z        -1.00000
          35                86 y            86 z         1.00000
          36                87 y            87 z         1.00000
          37                88 y            88 z        -1.00000
          38                91 y            91 z        -1.00000
          39                94 y            94 z         1.00000
          40                99 y            99 z        -1.00000
          41               116 y           116 z         1.00000
          42               120 y           120 z        -1.00000
          43               126 y           126 z         1.00000
          44               129 y           129 z         1.00000
          45               130 y           130 z        -1.00000
          46               139 y           139 z        -1.00000
          47               142 y           142 z         1.00000
          48               143 y           143 z        -1.00000
          49               144 y           144 z         1.00000
          50               145 y           145 z        -1.00000
          51               150 y           150 z         1.00000
          52               151 y           151 z        -1.00000
          53               155 y           155 z        -1.00000
          54               160 y           160 z         1.00000
          55               161 y           161 z        -1.00000
          56               164 y           164 z        -1.00000
          57               165 y           165 z         1.00000
          58               166 y           166 z         1.00000
          59               168 y           168 z        -1.00000
          60               169 y           169 z         1.00000
          61               177 y           177 z        -1.00000
          62               198 y           198 z         1.00000
          63               203 y           203 z         1.00000
          64               204 y           204 z        -1.00000
          65               206 y           206 z         1.00000
          66               207 y           207 z        -1.00000
          67               209 y           209 z        -1.00000
          68               210 y           210 z         1.00000
          69               214 y           214 z         1.00000
          70               215 y           215 z        -1.00000
          71               217 y           217 z         1.00000
          72               220 y           220 z        -1.00000
          73               221 y           221 z         1.00000
          74               222 y           222 z        -1.00000
          75               223 y           223 z        -1.00000
          76               224 y           224 z         1.00000
          77               229 y           229 z        -1.00000
          78               231 y           231 z         1.00000
          79               238 y           238 z         1.00000
          80               239 y           239 z        -1.00000
          81               244 y           244 z         1.00000
          82               245 y           245 z        -1.00000
          83               246 y           246 z        -1.00000
          84               247 y           247 z         1.00000
          85               250 y           250 z        -1.00000
          86               251 y           251 z         1.00000
          87               253 y           253 z         1.00000
          88               254 y           254 z        -1.00000
          89               263 y           263 z         1.00000
          90               264 y           264 z        -1.00000
          91               268 y           268 z        -1.00000
          92               269 y           269 z         1.00000
          93               278 y           278 z        -1.00000
          94               281 y           281 z         1.00000
          95               282 y           282 z        -1.00000
          96               286 y           286 z         1.00000
          97               289 y           289 z         1.00000
          98               290 y           290 z        -1.00000
          99               291 y           291 z         1.00000
         100               292 y           292 z        -1.00000
         101               293 y           293 z         1.00000
         102               294 y           294 z         1.00000
         103               295 y           295 z        -1.00000
         104               298 y           298 z        -1.00000
         105               301 y           301 z         1.00000
         106               306 y           306 z        -1.00000
         107               323 y           323 z         1.00000
         108               327 y           327 z        -1.00000
         109               333 y           333 z         1.00000
         110               336 y           336 z         1.00000
         111               337 y           337 z        -1.00000
         112               346 y           346 z        -1.00000
         113               349 y           349 z         1.00000
         114               350 y           350 z        -1.00000
         115               351 y           351 z         1.00000
         116               352 y           352 z        -1.00000
         117               357 y           357 z         1.00000
         118               358 y           358 z        -1.00000
         119               362 y           362 z        -1.00000
         120               367 y           367 z         1.00000
         121               368 y           368 z        -1.00000
         122               371 y           371 z        -1.00000
         123               372 y           372 z         1.00000
         124               373 y           373 z         1.00000
         125               375 y           375 z        -1.00000
         126               376 y           376 z         1.00000
         127               384 y           384 z        -1.00000
         128               405 y           405 z         1.00000
         129               410 y           410 z         1.00000
         130               411 y           411 z        -1.00000
         131               413 y           413 z         1.00000
         132               414 y           414 z        -1.00000
--------------------------------------------------------------------------------


  Components of defect energy : 

--------------------------------------------------------------------------------
  Region 1 - region 1                   =    -27.04934461 eV
  Region 1 - region 2a (unrelaxed)      =     60.97592906 eV
  Region 1 - 2a (relaxed - correction)  =     -2.38310010 eV
  Region 1 (Total)                      =     31.54348434 eV
  Region 2a                             =      1.19157643 eV
  Region 2b                             =     -1.16038408 eV
--------------------------------------------------------------------------------
  Total defect energy                   =     31.57467669 eV
--------------------------------------------------------------------------------

  Largest displacement in region 2 =   0.0063 Angstroms


  Number of variables =     1076

  Maximum number of calculations  =        1000
  Maximum Hessian update interval =          10
  Maximum step size               =   1.0000000
  Maximum parameter tolerance     =   0.0000100
  Maximum function  tolerance     =   0.0000100
  Maximum gradient  tolerance     =   0.0010000

  Symmetry adapted optimisation

  Symmetry to be used for second derivatives

  Newton-Raphson optimiser to be used

  BFGS hessian update to be used

  Lower half triangular hessian to be used

  Start of defect optimisation :

  Cycle:      0 Defect Energy:  31.574677  Gnorm:     0.086936  CPU:    4.886
  ** Hessian calculated **
  Cycle:      1 Defect Energy:  22.507360  Gnorm:     0.034937  CPU:   14.903
  Cycle:      2 Defect Energy:  17.420834  Gnorm:     0.018612  CPU:   23.589
  Cycle:      3 Defect Energy:  16.720920  Gnorm:     0.014553  CPU:   29.423
  Cycle:      4 Defect Energy:  16.020092  Gnorm:     0.008342  CPU:   36.673
  Cycle:      5 Defect Energy:  15.561758  Gnorm:     0.007814  CPU:   43.929
  Cycle:      6 Defect Energy:  15.423316  Gnorm:     0.006181  CPU:   49.774
  Cycle:      7 Defect Energy:  15.283055  Gnorm:     0.004437  CPU:   57.025
  Cycle:      8 Defect Energy:  15.162810  Gnorm:     0.003737  CPU:   64.293
  Cycle:      9 Defect Energy:  15.072716  Gnorm:     0.004013  CPU:   71.561
  Cycle:     10 Defect Energy:  14.991004  Gnorm:     0.004106  CPU:   78.842
  ** Hessian calculated **
  Cycle:     11 Defect Energy:  14.796268  Gnorm:     0.002343  CPU:   93.327
  Cycle:     12 Defect Energy:  14.755742  Gnorm:     0.001727  CPU:   94.879
  Cycle:     13 Defect Energy:  14.732804  Gnorm:     0.001211  CPU:   96.422
  Cycle:     14 Defect Energy:  14.722191  Gnorm:     0.000851  CPU:   97.964
  Cycle:     15 Defect Energy:  14.717009  Gnorm:     0.000596  CPU:   99.528
  Cycle:     16 Defect Energy:  14.714570  Gnorm:     0.000418  CPU:  101.074
  Cycle:     17 Defect Energy:  14.713438  Gnorm:     0.000293  CPU:  102.615
  Cycle:     18 Defect Energy:  14.713000  Gnorm:     0.000205  CPU:  104.161
  Cycle:     19 Defect Energy:  14.712779  Gnorm:     0.000144  CPU:  105.704
  Cycle:     20 Defect Energy:  14.712690  Gnorm:     0.000101  CPU:  107.249
  ** Hessian calculated **
  Cycle:     21 Defect Energy:  14.712661  Gnorm:     0.000070  CPU:  114.610


  **** Optimisation achieved ****


  Final defect energy  =       14.71265679
  Final defect Gnorm   =        0.00004933

  Components of defect energy : 

--------------------------------------------------------------------------------
  Region 1 - region 1                   =    -35.35289623 eV
  Region 1 - region 2a (unrelaxed)      =     52.25826515 eV
  Region 1 - 2a (relaxed - correction)  =     -2.07537755 eV
  Region 1 (Total)                      =     14.82999138 eV
  Region 2a                             =      1.03764160 eV
  Region 2b                             =     -1.15497620 eV
--------------------------------------------------------------------------------
  Total defect energy                   =     14.71265679 eV
--------------------------------------------------------------------------------

  Largest displacement in region 2 =   0.0063 Angstroms

  Final coordinates of region 1 :

--------------------------------------------------------------------------------
   No.  Atomic        x           y           z          Radius      Charge
        Label       (Angs)      (Angs)      (Angs)       (Angs)       (e) 
--------------------------------------------------------------------------------
     1  O     c     3.603735    1.268921    1.268921    0.000000    0.077000
     2  Zr    c     2.594078   -0.061444    2.599285    0.000000    2.650000
     3  Zr    c     2.594078    2.599285   -0.061444    0.000000    2.650000
     4  Zr    c     5.099724   -0.016233   -0.016233    0.000000    2.650000
     5  Zr    c     5.099724    2.554075    2.554075    0.000000    2.650000
     6  O     c     3.829443    3.865782    1.233431    0.000000    0.077000
     7  O     c     3.829443    1.233431    3.865782    0.000000    0.077000
     8  O     c     3.829443    1.304411   -1.327940    0.000000    0.077000
     9  O     c     3.829443   -1.327940    1.304411    0.000000    0.077000
    10  O     c     6.193198    1.268921    1.268921    0.000000    0.077000
    11  O     c     1.283812    1.273197    3.342982    0.000000    0.077000
    12  O     c     1.283812    3.342982    1.273197    0.000000    0.077000
    13  O     c     1.283812   -0.805140    1.264645    0.000000    0.077000
    14  O     c     1.283812    1.264645   -0.805140    0.000000    0.077000
    15  O     c     3.780061    3.775132    3.775132    0.000000    0.077000
    16  O     c     3.780061   -1.237290   -1.237290    0.000000    0.077000
    17  O     c     3.821755   -1.286463    3.824304    0.000000    0.077000
    18  O     c     3.821755    3.824304   -1.286463    0.000000    0.077000
    19  O     c     6.364049    3.793706    1.280782    0.000000    0.077000
    20  O     c     6.364049    1.280782    3.793706    0.000000    0.077000
    21  O     c     6.364049    1.257060   -1.255864    0.000000    0.077000
    22  O     c     6.364049   -1.255864    1.257060    0.000000    0.077000
    23  Zr    c    -0.040290    2.587810    2.587810    0.000000    2.650000
    24  Zr    c    -0.040290   -0.049968   -0.049968    0.000000    2.650000
    25  Zr    c     2.575003   -2.560156   -0.024737    0.000000    2.650000
    26  Zr    c     2.575003   -0.024737   -2.560156    0.000000    2.650000
    27  Zr    c     2.575003    2.562578    5.097998    0.000000    2.650000
    28  Zr    c     2.575003    5.097998    2.562578    0.000000    2.650000
    29  Zr    c     5.102246   -2.558868    2.546972    0.000000    2.650000
    30  Zr    c     5.102246   -0.009131    5.096710    0.000000    2.650000
    31  Zr    c     5.102246    2.546972   -2.558868    0.000000    2.650000
    32  Zr    c     5.102246    5.096710   -0.009131    0.000000    2.650000
    33  O     c     1.301639    3.839856   -1.302014    0.000000    0.077000
    34  O     c     1.301639   -1.302014    3.839856    0.000000    0.077000
    35  O     c     1.224751    3.845814    3.845814    0.000000    0.077000
    36  O     c     1.224751   -1.307972   -1.307972    0.000000    0.077000
    37  Zr    c     7.618886    2.545997   -0.008155    0.000000    2.650000
    38  Zr    c     7.618886   -0.008155    2.545997    0.000000    2.650000
    39  O     c     6.348242   -1.262951    3.800793    0.000000    0.077000
    40  O     c     6.348242    3.800793   -1.262951    0.000000    0.077000
    41  O     c     6.311101    3.807905    3.807905    0.000000    0.077000
    42  O     c     6.311101   -1.270063   -1.270063    0.000000    0.077000
    43  O     c    -0.969823    1.268921    1.268921    0.000000    0.077000
    44  O     c     3.783428    1.291010    6.399781    0.000000    0.077000
    45  O     c     3.783428    6.399781    1.291010    0.000000    0.077000
    46  O     c     3.783428   -3.861939    1.246832    0.000000    0.077000
    47  O     c     3.783428    1.246832   -3.861939    0.000000    0.077000
    48  O     c     8.787279    1.268921    1.268921    0.000000    0.077000
    49  Zr    c    -0.033437   -2.564678    2.567709    0.000000    2.650000
    50  Zr    c    -0.033437    2.567709   -2.564678    0.000000    2.650000
    51  Zr    c    -0.033437    5.102520   -0.029867    0.000000    2.650000
    52  Zr    c    -0.033437   -0.029867    5.102520    0.000000    2.650000
    53  Zr    c     2.550722   -2.559965    5.097807    0.000000    2.650000
    54  Zr    c     2.550722    5.097807   -2.559965    0.000000    2.650000
    55  O     c    -1.285415    1.292768    3.858699    0.000000    0.077000
    56  O     c    -1.285415    3.858699    1.292768    0.000000    0.077000
    57  O     c    -1.285415   -1.320858    1.245074    0.000000    0.077000
    58  O     c    -1.285415    1.245074   -1.320858    0.000000    0.077000
    59  Zr    c     5.098441    5.091399    5.091399    0.000000    2.650000
    60  Zr    c     5.098441   -2.553557   -2.553557    0.000000    2.650000
    61  O     c     1.262734   -3.498588    1.268135    0.000000    0.077000
    62  O     c     1.262734    1.268135   -3.498588    0.000000    0.077000
    63  O     c     1.262734    1.269707    6.036430    0.000000    0.077000
    64  O     c     1.262734    6.036430    1.269707    0.000000    0.077000
    65  Zr    c     7.625451    2.539560    5.081927    0.000000    2.650000
    66  Zr    c     7.625451   -0.001718   -2.544086    0.000000    2.650000
    67  Zr    c     7.625451    5.081927    2.539560    0.000000    2.650000
    68  Zr    c     7.625451   -2.544086   -0.001718    0.000000    2.650000
    69  O     c     3.797231   -3.813726    3.797263    0.000000    0.077000
    70  O     c     3.797231    3.797263   -3.813726    0.000000    0.077000
    71  O     c     3.797231   -1.259421    6.351568    0.000000    0.077000
    72  O     c     3.797231    6.351568   -1.259421    0.000000    0.077000
    73  O     c     3.815061    6.302286    3.811049    0.000000    0.077000
    74  O     c     3.815061    3.811049    6.302286    0.000000    0.077000
    75  O     c     3.815061   -1.273207   -3.764444    0.000000    0.077000
    76  O     c     3.815061   -3.764444   -1.273207    0.000000    0.077000
    77  O     c     6.325941    1.262317    6.333873    0.000000    0.077000
    78  O     c     6.325941   -3.796031    1.275524    0.000000    0.077000
    79  O     c     6.325941    6.333873    1.262317    0.000000    0.077000
    80  O     c     6.325941    1.275524   -3.796031    0.000000    0.077000
    81  O     c     8.900121    3.807582    1.264879    0.000000    0.077000
    82  O     c     8.900121    1.264879    3.807582    0.000000    0.077000
    83  O     c     8.900121    1.272963   -1.269741    0.000000    0.077000
    84  O     c     8.900121   -1.269741    1.272963    0.000000    0.077000
    85  O     c    -1.300729    3.816069    3.816069    0.000000    0.077000
    86  O     c    -1.300729   -1.278227   -1.278227    0.000000    0.077000
    87  O     c    -1.257004   -1.247324    3.785165    0.000000    0.077000
    88  O     c    -1.257004    3.785165   -1.247324    0.000000    0.077000
[...]
    334 y         -1.268921     -1.267239     0.001682    Cartesian   -0.13
    334 z          1.268921      1.268013    -0.000908    Cartesian   -0.07
    335 x          0.000000      0.003223     0.003223    Cartesian    0.00
    335 y          5.075684      5.074591    -0.001092    Cartesian   -0.02
    335 z         10.151367     10.155558     0.004191    Cartesian    0.04
    336 x         -3.806763     -3.812456    -0.005693    Cartesian    0.15
    336 y          6.344605      6.343463    -0.001141    Cartesian   -0.02
    336 z          6.344605      6.343463    -0.001141    Cartesian   -0.02
    337 x         -3.806763     -3.805325     0.001438    Cartesian   -0.04
    337 y         -3.806763     -3.801300     0.005462    Cartesian   -0.14
    337 z          6.344605      6.339142    -0.005462    Cartesian   -0.09
    338 x         13.958130     13.930504    -0.027626    Cartesian   -0.20
    338 y          1.268921      1.268921     0.000000    Cartesian    0.00
    338 z          1.268921      1.268921     0.000000    Cartesian    0.00
    339 x         -1.268921     -1.269743    -0.000822    Cartesian    0.06
    339 y         -6.344605     -6.349591    -0.004986    Cartesian    0.08
    339 z          6.344605      6.340890    -0.003714    Cartesian   -0.06
    340 x         -1.268921     -1.268685     0.000236    Cartesian   -0.02
    340 y          6.344605      6.341274    -0.003331    Cartesian   -0.05
    340 z          8.882446      8.878948    -0.003499    Cartesian   -0.04
    341 x          1.268921      1.264284    -0.004637    Cartesian   -0.37
    341 y          1.268921      1.272560     0.003639    Cartesian    0.29
    341 z         11.420288     11.343843    -0.076445    Cartesian   -0.67
    342 x          7.613525      7.617398     0.003872    Cartesian    0.05
    342 y         10.151367     10.155417     0.004050    Cartesian    0.04
    342 z         -2.537842     -2.538247    -0.000405    Cartesian    0.02
    343 x          3.806763      3.801328    -0.005435    Cartesian   -0.14
    343 y          3.806763      3.805138    -0.001624    Cartesian   -0.04
    343 z         11.420288     11.399368    -0.020920    Cartesian   -0.18
    344 x          3.806763      3.801885    -0.004877    Cartesian   -0.13
    344 y         -1.268921     -1.266617     0.002304    Cartesian   -0.18
    344 z         11.420288     11.422001     0.001713    Cartesian    0.01
    345 x          6.344605      6.341778    -0.002826    Cartesian   -0.04
    345 y          1.268921      1.267478    -0.001443    Cartesian   -0.11
    345 z         11.420288     11.416046    -0.004242    Cartesian   -0.04
    346 x         12.689209     12.691956     0.002747    Cartesian    0.02
    346 y          5.075684      5.076869     0.001185    Cartesian    0.02
    346 z         -2.537842     -2.539027    -0.001185    Cartesian    0.05
    347 x          8.882446      8.880999    -0.001447    Cartesian   -0.02
    347 y         -3.806763     -3.803284     0.003479    Cartesian   -0.09
    347 z          8.882446      8.882067    -0.000380    Cartesian   -0.00
    348 x          8.882446      8.883843     0.001397    Cartesian    0.02
    348 y          8.882446      8.883260     0.000814    Cartesian    0.01
    348 z          6.344605      6.342680    -0.001925    Cartesian   -0.03
    349 x         -6.344605     -6.345692    -0.001088    Cartesian    0.02
    349 y         -1.268921     -1.265551     0.003370    Cartesian   -0.27
    349 z         -1.268921     -1.265551     0.003370    Cartesian   -0.27
    350 x         -6.344605     -6.342807     0.001797    Cartesian   -0.03
    350 y         -1.268921     -1.266269     0.002652    Cartesian   -0.21
    350 z          3.806763      3.804110    -0.002652    Cartesian   -0.07
    351 x         11.420288     11.416696    -0.003592    Cartesian   -0.03
    351 y          6.344605      6.344357    -0.000247    Cartesian   -0.00
    351 z          6.344605      6.344357    -0.000247    Cartesian   -0.00
    352 x         11.420288     11.417080    -0.003208    Cartesian   -0.03
    352 y          6.344605      6.344311    -0.000294    Cartesian   -0.00
    352 z         -3.806763     -3.806469     0.000294    Cartesian   -0.01
    353 x         -3.806763     -3.807630    -0.000868    Cartesian    0.02
    353 y          1.268921      1.265414    -0.003507    Cartesian   -0.28
    353 z          8.882446      8.873391    -0.009055    Cartesian   -0.10
    354 x         13.958130     13.963508     0.005378    Cartesian    0.04
    354 y          3.806763      3.806901     0.000139    Cartesian    0.00
    354 z          1.268921      1.267788    -0.001132    Cartesian   -0.09
    355 x          1.268921      1.264566    -0.004355    Cartesian   -0.34
    355 y         -1.268921     -1.265140     0.003781    Cartesian   -0.30
    355 z         11.420288     11.435477     0.015189    Cartesian    0.13
    356 x          1.268921      1.271650     0.002729    Cartesian    0.22
    356 y          3.806763      3.802767    -0.003996    Cartesian   -0.10
    356 z         11.420288     11.436075     0.015787    Cartesian    0.14
    357 x          3.806763      3.804745    -0.002017    Cartesian   -0.05
    357 y          8.882446      8.880447    -0.001999    Cartesian   -0.02
    357 z          8.882446      8.880447    -0.001999    Cartesian   -0.02
    358 x          3.806763      3.798781    -0.007981    Cartesian   -0.21
    358 y         -6.344605     -6.342226     0.002379    Cartesian   -0.04
    358 z          8.882446      8.880067    -0.002379    Cartesian   -0.03
    359 x          6.344605      6.339502    -0.005102    Cartesian   -0.08
    359 y         -1.268921     -1.267367     0.001554    Cartesian   -0.12
    359 z         11.420288     11.419097    -0.001191    Cartesian   -0.01
    360 x          6.344605      6.343535    -0.001069    Cartesian   -0.02
    360 y          3.806763      3.809343     0.002581    Cartesian    0.07
    360 z         11.420288     11.422011     0.001723    Cartesian    0.02
    361 x         -5.075684     -5.082485    -0.006802    Cartesian    0.13
    361 y          0.000000     -0.002098    -0.002098    Cartesian    0.00
    361 z         -5.075684     -5.083559    -0.007876    Cartesian    0.16
    362 x         -2.537842     -2.537741     0.000101    Cartesian   -0.00
    362 y         -5.075684     -5.081483    -0.005799    Cartesian    0.11
    362 z          7.613525      7.619325     0.005799    Cartesian    0.08
    363 x         -2.537842     -2.536833     0.001009    Cartesian   -0.04
    363 y          2.537842      2.536517    -0.001325    Cartesian   -0.05
    363 z         10.151367     10.159204     0.007837    Cartesian    0.08
    364 x         11.420288     11.418777    -0.001511    Cartesian   -0.01
    364 y          8.882446      8.881617    -0.000829    Cartesian   -0.01
    364 z          1.268921      1.270417     0.001497    Cartesian    0.12
    365 x         -3.806763     -3.810104    -0.003341    Cartesian    0.09
    365 y         -6.344605     -6.339802     0.004802    Cartesian   -0.08
    365 z         -1.268921     -1.268974    -0.000053    Cartesian    0.00
    366 x         -3.806763     -3.804787     0.001976    Cartesian   -0.05
    366 y         -6.344605     -6.345291    -0.000686    Cartesian    0.01
    366 z          3.806763      3.804983    -0.001779    Cartesian   -0.05
    367 x         13.958130     13.950231    -0.007899    Cartesian   -0.06
    367 y          3.806763      3.806193    -0.000570    Cartesian   -0.01
    367 z          3.806763      3.806193    -0.000570    Cartesian   -0.01
    368 x         13.958130     13.950162    -0.007967    Cartesian   -0.06
    368 y          3.806763      3.805193    -0.001570    Cartesian   -0.04
    368 z         -1.268921     -1.267351     0.001570    Cartesian   -0.12
    369 x          2.537842      2.540331     0.002489    Cartesian    0.10
    369 y          7.613525      7.616944     0.003419    Cartesian    0.04
    369 z         10.151367     10.156580     0.005213    Cartesian    0.05
    370 x          5.075684      5.078088     0.002404    Cartesian    0.05
    370 y         -7.613525     -7.619690    -0.006165    Cartesian    0.08
    370 z          7.613525      7.617732     0.004206    Cartesian    0.06
    371 x          1.268921      1.269374     0.000453    Cartesian    0.04
    371 y         -6.344605     -6.343781     0.000823    Cartesian   -0.01
    371 z          8.882446      8.881623    -0.000823    Cartesian   -0.01
    372 x          1.268921      1.265679    -0.003242    Cartesian   -0.26
    372 y          8.882446      8.879594    -0.002852    Cartesian   -0.03
    372 z          8.882446      8.879594    -0.002852    Cartesian   -0.03
    373 x         10.151367     10.157203     0.005836    Cartesian    0.06
    373 y          7.613525      7.615958     0.002433    Cartesian    0.03
    373 z          7.613525      7.615958     0.002433    Cartesian    0.03
    374 x         10.151367     10.156868     0.005501    Cartesian    0.05
    374 y         10.151367     10.155770     0.004403    Cartesian    0.04
    374 z          0.000000      0.000485     0.000485    Cartesian    0.00
    375 x          6.344605      6.338704    -0.005900    Cartesian   -0.09
    375 y         -6.344605     -6.344281     0.000323    Cartesian   -0.01
    375 z          8.882446      8.882123    -0.000323    Cartesian   -0.00
    376 x          6.344605      6.339059    -0.005545    Cartesian   -0.09
    376 y          8.882446      8.880695    -0.001752    Cartesian   -0.02
    376 z          8.882446      8.880695    -0.001752    Cartesian   -0.02
    377 x         12.689209     12.694106     0.004897    Cartesian    0.04
    377 y          7.613525      7.616449     0.002923    Cartesian    0.04
    377 z          0.000000     -0.000629    -0.000629    Cartesian    0.00
    378 x         -6.344605     -6.338382     0.006223    Cartesian   -0.10
    378 y          1.268921      1.266921    -0.002000    Cartesian   -0.16
    378 z          6.344605      6.344701     0.000096    Cartesian    0.00
    379 x         11.420288     11.416619    -0.003669    Cartesian   -0.03
    379 y         -1.268921     -1.268519     0.000402    Cartesian   -0.03
    379 z          8.882446      8.880418    -0.002029    Cartesian   -0.02
    380 x         11.420288     11.416055    -0.004233    Cartesian   -0.04
    380 y          3.806763      3.804894    -0.001868    Cartesian   -0.05
    380 z          8.882446      8.881483    -0.000964    Cartesian   -0.01
    381 x         -1.268921     -1.264732     0.004189    Cartesian   -0.33
    381 y          1.268921      1.264036    -0.004885    Cartesian   -0.38
    381 z         11.420288     11.433595     0.013307    Cartesian    0.12
    382 x          3.806763      3.807233     0.000471    Cartesian    0.01
    382 y          6.344605      6.343640    -0.000965    Cartesian   -0.02
    382 z         11.420288     11.419133    -0.001155    Cartesian   -0.01
    383 x          3.806763      3.804203    -0.002559    Cartesian   -0.07
    383 y         -3.806763     -3.803287     0.003476    Cartesian   -0.09
    383 z         11.420288     11.415915    -0.004373    Cartesian   -0.04
    384 x         -7.613525     -7.616485    -0.002960    Cartesian    0.04
    384 y         -0.000000     -0.006321    -0.006321    Cartesian *******
    384 z          2.537842      2.544163     0.006321    Cartesian    0.25
    385 x         -5.075684     -5.083256    -0.007572    Cartesian    0.15
    385 y         -5.075684     -5.082561    -0.006877    Cartesian    0.14
    385 z          5.075684      5.078483     0.002800    Cartesian    0.06
    386 x          8.882446      8.879246    -0.003200    Cartesian   -0.04
    386 y          1.268921      1.270643     0.001722    Cartesian    0.14
    386 z         11.420288     11.415916    -0.004372    Cartesian   -0.04
    387 x         -2.537842     -2.543724    -0.005882    Cartesian    0.23
    387 y         -7.613525     -7.619318    -0.005792    Cartesian    0.08
    387 z          5.075684      5.081763     0.006080    Cartesian    0.12
    388 x         -6.344605     -6.341082     0.003523    Cartesian   -0.06
    388 y         -3.806763     -3.801633     0.005130    Cartesian   -0.13
    388 z          3.806763      3.803726    -0.003037    Cartesian   -0.08
    389 x         -6.344605     -6.337668     0.006936    Cartesian   -0.11
    389 y          3.806763      3.809153     0.002391    Cartesian    0.06
    389 z          6.344605      6.344620     0.000016    Cartesian    0.00
    390 x         -0.000000     -0.001507    -0.001507    Cartesian *******
    390 y         -7.613525     -7.620615    -0.007090    Cartesian    0.09
    390 z          7.613525      7.618205     0.004679    Cartesian    0.06
    391 x         13.958130     13.948089    -0.010041    Cartesian   -0.07
    391 y          6.344605      6.343855    -0.000750    Cartesian   -0.01
    391 z          1.268921      1.269434     0.000514    Cartesian    0.04
    392 x          2.537842      2.544270     0.006429    Cartesian    0.25
    392 y         -0.000000     -0.007530    -0.007530    Cartesian *******
    392 z         12.689209     12.696322     0.007113    Cartesian    0.06
    393 x         -1.268921     -1.267207     0.001714    Cartesian   -0.14
    393 y         -8.882446     -8.860429     0.022017    Cartesian   -0.25
    393 z          3.806763      3.806568    -0.000195    Cartesian   -0.01
    394 x         -1.268921     -1.267538     0.001383    Cartesian   -0.11
    394 y          3.806763      3.803042    -0.003720    Cartesian   -0.10
    394 z         11.420288     11.405988    -0.014301    Cartesian   -0.13
    395 x          5.075684      5.077179     0.001495    Cartesian    0.03
    395 y          2.537842      2.536576    -0.001266    Cartesian   -0.05
    395 z         12.689209     12.699919     0.010710    Cartesian    0.08
    396 x          1.268921      1.268622    -0.000299    Cartesian   -0.02
    396 y         -8.882446     -8.871032     0.011414    Cartesian   -0.13
    396 z          6.344605      6.342910    -0.001695    Cartesian   -0.03
    397 x          1.268921      1.270106     0.001185    Cartesian    0.09
    397 y          6.344605      6.341080    -0.003525    Cartesian   -0.06
    397 z         11.420288     11.406508    -0.013780    Cartesian   -0.12
    398 x          7.613525      7.618536     0.005011    Cartesian    0.07
    398 y         10.151367     10.156737     0.005370    Cartesian    0.05
    398 z          7.613525      7.618678     0.005152    Cartesian    0.07
    399 x         10.151367     10.157990     0.006623    Cartesian    0.07
    399 y         10.151367     10.157194     0.005827    Cartesian    0.06
    399 z          5.075684      5.079196     0.003512    Cartesian    0.07
    400 x          6.344605      6.341435    -0.003169    Cartesian   -0.05
    400 y          6.344605      6.341135    -0.003469    Cartesian   -0.05
    400 z         11.420288     11.410599    -0.009689    Cartesian   -0.08
    401 x          6.344605      6.341748    -0.002857    Cartesian   -0.05
    401 y         -3.806763     -3.805744     0.001019    Cartesian   -0.03
    401 z         11.420288     11.412608    -0.007680    Cartesian   -0.07
    402 x         12.689209     12.696902     0.007693    Cartesian    0.06
    402 y          7.613525      7.617135     0.003610    Cartesian    0.05
    402 z          5.075684      5.077504     0.001821    Cartesian    0.04
    403 x          8.882446      8.878872    -0.003574    Cartesian   -0.04
    403 y         -8.882446     -8.874337     0.008109    Cartesian   -0.09
    403 z         -1.268921     -1.266132     0.002789    Cartesian   -0.22
    404 x          8.882446      8.877387    -0.005060    Cartesian   -0.06
    404 y         -1.268921     -1.268210     0.000711    Cartesian   -0.06
    404 z         11.420288     11.412566    -0.007722    Cartesian   -0.07
    405 x         15.227051     15.235707     0.008656    Cartesian    0.06
    405 y          2.537842      2.540036     0.002194    Cartesian    0.09
    405 z          2.537842      2.540036     0.002194    Cartesian    0.09
    406 x         -3.806763     -3.797752     0.009011    Cartesian   -0.24
    406 y          6.344605      6.338270    -0.006335    Cartesian   -0.10
    406 z          8.882446      8.874069    -0.008378    Cartesian   -0.09
    407 x         -3.806763     -3.806570     0.000193    Cartesian   -0.01
    407 y         -6.344605     -6.342415     0.002189    Cartesian   -0.03
    407 z          6.344605      6.342622    -0.001982    Cartesian   -0.03
    408 x         13.958130     13.954130    -0.004000    Cartesian   -0.03
    408 y         -3.806763     -3.804104     0.002659    Cartesian   -0.07
    408 z         -1.268921     -1.267661     0.001260    Cartesian   -0.10
    409 x         13.958130     13.950316    -0.007814    Cartesian   -0.06
    409 y          6.344605      6.341803    -0.002801    Cartesian   -0.04
    409 z         -1.268921     -1.266647     0.002274    Cartesian   -0.18
    410 x         -1.268921     -1.263920     0.005001    Cartesian   -0.39
    410 y          8.882446      8.873479    -0.008967    Cartesian   -0.10
    410 z          8.882446      8.873479    -0.008967    Cartesian   -0.10
    411 x         -1.268921     -1.270203    -0.001282    Cartesian    0.10
    411 y         -6.344605     -6.340666     0.003938    Cartesian   -0.06
    411 z          8.882446      8.878508    -0.003938    Cartesian   -0.04
    412 x         -7.613525     -7.624555    -0.011030    Cartesian    0.14
    412 y         -2.537842     -2.539135    -0.001293    Cartesian    0.05
    412 z         -0.000000     -0.000198    -0.000198    Cartesian *******
    413 x          8.882446      8.878276    -0.004170    Cartesian   -0.05
    413 y          8.882446      8.881369    -0.001078    Cartesian   -0.01
    413 z          8.882446      8.881369    -0.001078    Cartesian   -0.01
    414 x          8.882446      8.873156    -0.009290    Cartesian   -0.10
    414 y         -6.344605     -6.335749     0.008856    Cartesian   -0.14
    414 z          8.882446      8.873590    -0.008856    Cartesian   -0.10
--------------------------------------------------------------------------------


  Time to end of optimisation  =      116.1629 seconds


  Peak dynamic memory used =     412.15 MB 


  Timing analysis for GULP :

--------------------------------------------------------------------------------
  Task / Subroutine                                          Time (Seconds)
--------------------------------------------------------------------------------
  Calculation of reciprocal space energy and derivatives          0.0002
  Calculation of reciprocal space energy using symmetry           0.0002
  Calculation of real space energy and derivatives                0.0020
  Calculation of real space energy using symmetry                 0.0069
  Calculation for region 1 energy and derivatives (2-b)          29.3675
  Calculation for region 2a energy                               73.9631
  Calculation for region 2b energy                                0.0104
  Calculation and manipulation of Hessian matrix                 11.5358
  Calculation of matrix inversion                                 0.8622
  Symmetry generation of equivalent positions                     0.0015
--------------------------------------------------------------------------------
  Total CPU time                                                116.1629
--------------------------------------------------------------------------------


  Dump file written as ZrO2.grs


  Job Finished at 13:13.51 14th October    2020                               

