********************************************************************************
*                       GENERAL UTILITY LATTICE PROGRAM                        *
*                                 Julian Gale                                  *
*                       Curtin Institute for Computation                       *
*                    School of Molecular and Life Sciences                     *
*                    Curtin University, Western Australia                      *
********************************************************************************
* Version = 5.2.0 * Last modified =  10th September 2020                       *
********************************************************************************
* Zirconia doped with calcium                                                  *
*  optimise     - perform optimisation run                                     *
*  conp         - constant pressure calculation                                *
*  property     - calculate properties for final geometry                      *
*  defect       - perform defect calculation after bulk run                    *
*  distance     - calculate distances                                          *
*  compare      - compare initial and final structures                         *
********************************************************************************
* Zirconia doped with calcium                                                  *
********************************************************************************


  Job Started  at 13:13.51 14th October    2020                               

  Number of CPUs =     1


  Total number of configurations input =      1

********************************************************************************
*  Input for Configuration =   1 : ZrO2                                        *
********************************************************************************

  Formula = ZrO2                                                        

  Number of irreducible atoms/shells =       4


  Total number atoms/shells =       6

  Dimensionality = 3               :  Bulk   


  Symmetry :

  Crystal family                   :  Cubic       
  Crystal class  (Groth - 1921)    :  Cubic Hexakisoctahedral              

  Space group (centrosymmetric)    :  F M 3 M         

  Patterson group                  :  F m -3 m 

  Cartesian lattice vectors (Angstroms) :

        0.000000    2.535000    2.535000
        2.535000    0.000000    2.535000
        2.535000    2.535000    0.000000

  Primitive cell parameters :            Full cell parameters :

  a =   3.5850    alpha =  60.0000       a =   5.0700    alpha =  90.0000
  b =   3.5850    beta  =  60.0000       b =   5.0700    beta  =  90.0000
  c =   3.5850    gamma =  60.0000       c =   5.0700    gamma =  90.0000

  Initial volumes (Angstroms**3):

  Primitive cell =          32.580961    Full cell =         130.323843

  Temperature of configuration =   0.00     K 

  Pressure of configuration =         0.000 GPa 

  Fractional coordinates of asymmetric unit :

--------------------------------------------------------------------------------
   No.  Atomic       x           y          z         Charge      Occupancy
        Label      (Frac)      (Frac)     (Frac)        (e)         (Frac)  
--------------------------------------------------------------------------------
      1 Zr    c    0.000000    0.000000    0.000000     2.65000    1.000000    
      2 O     c    0.250000    0.250000    0.250000     0.07700    1.000000    
      3 Zr    s    0.000000    0.000000    0.000000     1.35000    1.000000    
      4 O     s    0.250000    0.250000    0.250000    -2.07700    1.000000    
--------------------------------------------------------------------------------


  Constraints : 

--------------------------------------------------------------------------------
  Constraint no.      Unconstrained     Constrained    Coefficient    Offset
                         Variable         Variable
--------------------------------------------------------------------------------
           1              Strain 1        Strain 2       1.00000      0.0000
           2              Strain 1        Strain 3       1.00000      0.0000
--------------------------------------------------------------------------------


  Distance calculation :


  Cutoff for distances  =      4.000000 Angstroms

--------------------------------------------------------------------------------
  Asymmetric unit site  Full lattice sites    No.  Distance      No.  Distance
      No.   At.No.            At.No.                (Angs)             (Angs) 
--------------------------------------------------------------------------------
       1   Zr    core        Zr    core        12    3.5850
                             Zr    shell       12    3.5850
                             O     core         8    2.1954
                             O     shell        8    2.1954
--------------------------------------------------------------------------------
       2   O     core        Zr    core         4    2.1954
                             Zr    shell        4    2.1954
                             O     core         6    2.5350       12    3.5850
                             O     shell        6    2.5350       12    3.5850
--------------------------------------------------------------------------------
       3   Zr    shell       Zr    core        12    3.5850
                             Zr    shell       12    3.5850
                             O     core         8    2.1954
                             O     shell        8    2.1954
--------------------------------------------------------------------------------
       4   O     shell       Zr    core         4    2.1954
                             Zr    shell        4    2.1954
                             O     core         6    2.5350       12    3.5850
                             O     shell        6    2.5350       12    3.5850
--------------------------------------------------------------------------------



********************************************************************************
*  General input information                                                   *
********************************************************************************

  Species output for all configurations : 

--------------------------------------------------------------------------------
  Species    Type    Atomic    Atomic    Charge       Radii (Angs)     Library
                     Number     Mass       (e)     Cova   Ionic  VDW   Symbol
--------------------------------------------------------------------------------
    Zr       Core       40      91.22   2.650000   1.560  0.000  2.330          
    Zr       Shell      40       0.00   1.350000   1.560  0.000  2.330          
    O        Core        8      16.00   0.077000   0.730  0.000  1.360          
    O        Shell       8       0.00  -2.077000   0.730  0.000  1.360          
--------------------------------------------------------------------------------


  Lattice summation method               =    Ewald          (3-D)
                                         =    Parry          (2-D)
                                         =    Saunders et al (1-D)
  Accuracy factor for lattice sums       =   12.000


  Analytic derivatives to be used

  Time limit = Infinity

  Maximum range for interatomic potentials =    100000.000000 Angstroms

  General interatomic potentials :

--------------------------------------------------------------------------------
Atom  Types   Potential      Parameter       Value         Units   Cutoffs(Ang)
  1     2                                                            Min /  Max 
--------------------------------------------------------------------------------
O    s Zr   s Buckingham    Buckingham A     985.86900    eV        0.000 12.000
                            Buckingham rho  0.37600000    Ang       
                            Buckingham C     0.0000000    eV*Ang^6  
--------------------------------------------------------------------------------
O    s O    s Buckingham    Buckingham A     22764.300    eV        0.000 12.000
                            Buckingham rho  0.14900000    Ang       
                            Buckingham C     27.890000    eV*Ang^6  
--------------------------------------------------------------------------------
Zr   c Zr   s Spring (c-s)  Spring k 2       169.61700    eV*Ang^-2 0.000  0.800
                            Spring k 4       0.0000000    eV*Ang^-4 
--------------------------------------------------------------------------------
O    c O    s Spring (c-s)  Spring k 2       27.290000    eV*Ang^-2 0.000  0.800
                            Spring k 4       0.0000000    eV*Ang^-4 
--------------------------------------------------------------------------------

********************************************************************************
*  Output for configuration   1 : ZrO2                                         *
********************************************************************************


  Components of energy : 

--------------------------------------------------------------------------------
  Interatomic potentials     =          22.43756329 eV    
  Monopole - monopole (real) =         -15.67991073 eV    
  Monopole - monopole (recip)=        -116.52038266 eV    
  Monopole - monopole (total)=        -132.20029339 eV    
--------------------------------------------------------------------------------
  Total lattice energy : 
    Primitive unit cell      =        -109.76273010 eV    
    Non-primitive unit cell  =        -439.05092039 eV    
--------------------------------------------------------------------------------
  Total lattice energy (in kJmol-1): 
    Primitive unit cell      =          -10590.4256 kJ/(mole unit cells)
    Non-primitive unit cell  =          -42361.7023 kJ/(mole unit cells)
--------------------------------------------------------------------------------


  Number of variables =        1

  Maximum number of calculations  =          1000
  Maximum Hessian update interval =            10
  Maximum step size               =   1.000000000
  Maximum parameter tolerance     =   0.000010000
  Maximum function  tolerance     =   0.000010000
  Maximum gradient  tolerance     =   0.001000000
  Maximum gradient  component     =   0.010000000

  Symmetry constrained optimisation

  Symmetry used for second derivatives

  Cell parameters to be optimised using strains

  Newton-Raphson optimiser to be used

  BFGS hessian update to be used

  Lower half triangular hessian to be used

  Start of bulk optimisation :

  Cycle:      0 Energy:      -109.762730  Gnorm:      0.588311  CPU:    0.006
  ** Hessian calculated **
  Cycle:      1 Energy:      -109.763059  Gnorm:      0.000316  CPU:    0.009


  **** Optimisation achieved ****


  Final energy =    -109.76305939 eV
  Final Gnorm  =       0.00000099

  Components of energy : 

--------------------------------------------------------------------------------
  Interatomic potentials     =          22.28919976 eV    
  Monopole - monopole (real) =         -15.66235280 eV    
  Monopole - monopole (recip)=        -116.38990634 eV    
  Monopole - monopole (total)=        -132.05225914 eV    
--------------------------------------------------------------------------------
  Total lattice energy : 
    Primitive unit cell      =        -109.76305939 eV    
    Non-primitive unit cell  =        -439.05223754 eV    
--------------------------------------------------------------------------------
  Total lattice energy (in kJmol-1): 
    Primitive unit cell      =          -10590.4573 kJ/(mole unit cells)
    Non-primitive unit cell  =          -42361.8294 kJ/(mole unit cells)
--------------------------------------------------------------------------------

  Final asymmetric unit coordinates :

--------------------------------------------------------------------------------
   No.  Atomic        x           y           z         Radius
        Label       (Frac)      (Frac)      (Frac)       (Angs) 
--------------------------------------------------------------------------------
     1  Zr    c     0.000000    0.000000    0.000000    0.000000
     2  O     c     0.250000    0.250000    0.250000    0.000000
     3  Zr    s     0.000000    0.000000    0.000000    0.000000
     4  O     s     0.250000    0.250000    0.250000    0.000000
--------------------------------------------------------------------------------

  Final Cartesian lattice vectors (Angstroms) :

        0.000000    2.537842    2.537842
        2.537842    0.000000    2.537842
        2.537842    2.537842    0.000000


  Final cell parameters and derivatives :

--------------------------------------------------------------------------------
       a            3.589050 Angstrom     dE/de1(xx)    -0.000001 eV/strain
       b            3.589050 Angstrom     dE/de2(yy)     0.000000 eV/strain
       c            3.589050 Angstrom     dE/de3(zz)     0.000000 eV/strain
       alpha       60.000000 Degrees      dE/de4(yz)     0.000000 eV/strain
       beta        60.000000 Degrees      dE/de5(xz)     0.000000 eV/strain
       gamma       60.000000 Degrees      dE/de6(xy)     0.000000 eV/strain
--------------------------------------------------------------------------------

  Primitive cell volume =            32.690656 Angs**3

  Density of cell =      6.259124 g/cm**3

  Non-primitive lattice parameters :

  a    =     5.075684  b   =     5.075684  c    =     5.075684
  alpha=    90.000000  beta=    90.000000  gamma=    90.000000

  Non-primitive cell volume =           130.762624 Angs**3


  Final internal derivatives :

--------------------------------------------------------------------------------
   No.  Atomic          a             b             c           Radius
        Label          (eV)          (eV)          (eV)        (eV/Angs)
--------------------------------------------------------------------------------
      1 Zr    c       0.000000      0.000000      0.000000      0.000000
      2 O     c       0.000000      0.000000      0.000000      0.000000
      3 Zr    s       0.000000      0.000000      0.000000      0.000000
      4 O     s       0.000000      0.000000      0.000000      0.000000
--------------------------------------------------------------------------------
  Maximum abs         0.000000      0.000000      0.000000      0.000000
--------------------------------------------------------------------------------

  Comparison of initial and final structures : 

--------------------------------------------------------------------------------
  Parameter   Initial value   Final value   Difference    Units      Percent
--------------------------------------------------------------------------------
    Volume       130.323843    130.762624     0.438781    Angs**3      0.34
    a              5.070000      5.075684     0.005684    Angstroms    0.11
    b              5.070000      5.075684     0.005684    Angstroms    0.11
    c              5.070000      5.075684     0.005684    Angstroms    0.11
    alpha         90.000000     90.000000     0.000000    Degrees      0.00
    beta          90.000000     90.000000     0.000000    Degrees      0.00
    gamma         90.000000     90.000000     0.000000    Degrees      0.00
      1 x          0.000000      0.000000     0.000000    Fractional   0.00
      1 y          0.000000      0.000000     0.000000    Fractional   0.00
      1 z          0.000000      0.000000     0.000000    Fractional   0.00
      2 x          0.250000      0.250000     0.000000    Fractional   0.00
      2 y          0.250000      0.250000     0.000000    Fractional   0.00
      2 z          0.250000      0.250000     0.000000    Fractional   0.00
      3 x          0.000000      0.000000     0.000000    Fractional   0.00
      3 y          0.000000      0.000000     0.000000    Fractional   0.00
      3 z          0.000000      0.000000     0.000000    Fractional   0.00
      4 x          0.250000      0.250000     0.000000    Fractional   0.00
      4 y          0.250000      0.250000     0.000000    Fractional   0.00
      4 z          0.250000      0.250000     0.000000    Fractional   0.00
--------------------------------------------------------------------------------


  Distance calculation :


  Cutoff for distances  =      4.000000 Angstroms

--------------------------------------------------------------------------------
  Asymmetric unit site  Full lattice sites    No.  Distance      No.  Distance
      No.   At.No.            At.No.                (Angs)             (Angs) 
--------------------------------------------------------------------------------
       1   Zr    core        Zr    core        12    3.5891
                             Zr    shell       12    3.5891
                             O     core         8    2.1978
                             O     shell        8    2.1978
--------------------------------------------------------------------------------
       2   O     core        Zr    core         4    2.1978
                             Zr    shell        4    2.1978
                             O     core         6    2.5378       12    3.5891
                             O     shell        6    2.5378       12    3.5891
--------------------------------------------------------------------------------
       3   Zr    shell       Zr    core        12    3.5891
                             Zr    shell       12    3.5891
                             O     core         8    2.1978
                             O     shell        8    2.1978
--------------------------------------------------------------------------------
       4   O     shell       Zr    core         4    2.1978
                             Zr    shell        4    2.1978
                             O     core         6    2.5378       12    3.5891
                             O     shell        6    2.5378       12    3.5891
--------------------------------------------------------------------------------



  Born effective charge tensors : 

-------------------------------------------------------------------------------
  Atom             x           y             z
-------------------------------------------------------------------------------
    1 Zr    x       3.6770      0.0000      0.0000
            y       0.0000      3.6770      0.0000
            z       0.0000      0.0000      3.6770
-------------------------------------------------------------------------------
    2 O     x      -1.8385      0.0000      0.0000
            y       0.0000     -1.8385     -0.0000
            z       0.0000     -0.0000     -1.8385
-------------------------------------------------------------------------------




  Elastic Constant Matrix: (Units=GPa)

-------------------------------------------------------------------------------
  Indices      1         2         3         4         5         6    
-------------------------------------------------------------------------------
       1    616.2933  119.6612  119.6612   -0.0000   -0.0000   -0.0000
       2    119.6612  616.2933  119.6612   -0.0000   -0.0000   -0.0000
       3    119.6612  119.6612  616.2933   -0.0000   -0.0000   -0.0000
       4     -0.0000   -0.0000   -0.0000  100.8598    0.0000   -0.0000
       5     -0.0000   -0.0000   -0.0000    0.0000  100.8598    0.0000
       6     -0.0000   -0.0000   -0.0000   -0.0000    0.0000  100.8598
-------------------------------------------------------------------------------


  Elastic Compliance Matrix: (Units=1/GPa)

-------------------------------------------------------------------------------
  Indices      1         2         3         4         5         6    
-------------------------------------------------------------------------------
       1    0.001732 -0.000282 -0.000282  0.000000  0.000000  0.000000
       2   -0.000282  0.001732 -0.000282 -0.000000  0.000000  0.000000
       3   -0.000282 -0.000282  0.001732  0.000000  0.000000  0.000000
       4    0.000000 -0.000000  0.000000  0.009915 -0.000000  0.000000
       5    0.000000  0.000000  0.000000 -0.000000  0.009915 -0.000000
       6    0.000000  0.000000  0.000000  0.000000 -0.000000  0.009915
-------------------------------------------------------------------------------

  Mechanical properties :

-------------------------------------------------------------------------------
  Convention :                    Reuss         Voigt         Hill
-------------------------------------------------------------------------------
  Bulk  Modulus (GPa)     =     285.20524     285.20524     285.20524
  Shear Modulus (GPa)     =     132.28031     159.84228     146.06129
-------------------------------------------------------------------------------
  Velocity S-wave (km/s)  =       4.59717       5.05346       4.83071
  Velocity P-wave (km/s)  =       8.58749       8.92280       8.75675
-------------------------------------------------------------------------------
  Compressibility (1/GPa) =    0.00350625
-------------------------------------------------------------------------------
  Stress axis :                     x             y             z
-------------------------------------------------------------------------------
  Youngs Moduli (GPa)     =     577.38110     577.38110     577.38110
-------------------------------------------------------------------------------
  Poissons Ratio (x)      =                     0.16259       0.16259
  Poissons Ratio (y)      =       0.16259                     0.16259
  Poissons Ratio (z)      =       0.16259       0.16259
-------------------------------------------------------------------------------


  Piezoelectric Strain Matrix: (Units=C/m**2)

-------------------------------------------------------------------------------
  Indices      1         2         3         4         5         6    
-------------------------------------------------------------------------------
       x    -0.00000   0.00000   0.00000   0.00000   0.00000   0.00000
       y    -0.00000  -0.00000  -0.00000   0.00000   0.00000   0.00000
       z    -0.00000  -0.00000  -0.00000   0.00000   0.00000   0.00000
-------------------------------------------------------------------------------


  Piezoelectric Stress Matrix: (Units=10**-11 C/N)

-------------------------------------------------------------------------------
  Indices      1         2         3         4         5         6    
-------------------------------------------------------------------------------
       x    -0.00000   0.00000   0.00000   0.00000   0.00000   0.00000
       y    -0.00000  -0.00000  -0.00000   0.00000   0.00000   0.00000
       z     0.00000   0.00000  -0.00000   0.00000   0.00000   0.00000
-------------------------------------------------------------------------------


  Static dielectric constant tensor : 

-------------------------------------------------------------------------------
              x         y         z
-------------------------------------------------------------------------------
       x    26.88485   0.00000   0.00000
       y     0.00000  26.88485   0.00000
       z     0.00000   0.00000  26.88485
--------------------------------------------------------------------------------

  High frequency dielectric constant tensor : 

-------------------------------------------------------------------------------
              x         y         z
-------------------------------------------------------------------------------
       x     2.63099   0.00000   0.00000
       y     0.00000   2.63099   0.00000
       z     0.00000   0.00000   2.63099
-------------------------------------------------------------------------------

  Static refractive indices : 

-------------------------------------------------------------------------------
    1 =    5.18506      2 =    5.18506      3 =    5.18506
-------------------------------------------------------------------------------

  High frequency refractive indices : 

-------------------------------------------------------------------------------
    1 =    1.62203      2 =    1.62203      3 =    1.62203
-------------------------------------------------------------------------------


  Time to end of optimisation =       0.0146 seconds

********************************************************************************
*  Defect calculation for configuration   1 :                                  *
********************************************************************************

  Total number of defects =      3

  Total charge on defect  =   2.00

  Defect centre is at   0.7200   0.2500   0.2500  Frac

  Region 1 radius =  12.0000      Number of ions =   1344

  Number of symmetry inequivalent region 1 ions  =    414

  Region 2 radius =  24.0000      Number of ions =   9316

  Number of symmetry inequivalent region 2a ions =   2558

  Region 2a mode = 4 : screened electrostatics due to region 1 
                       neglect correction to region 1 forces from 2a
                       region 2a displacements based on defects only

  Region 2a ions will only interact with defects in region 1

  Vacancies:

--------------------------------------------------------------------------------
    Specification type     Symbol/Number         x          y          z
--------------------------------------------------------------------------------
    Fractional                               0.250000   0.250000   0.250000
    Fractional                               0.750000   0.250000   0.250000
--------------------------------------------------------------------------------

  Interstitials:

--------------------------------------------------------------------------------
    Specification type     Symbol/Number         x          y          z
--------------------------------------------------------------------------------
    Atom/Fractional         O                0.720000   0.250000   0.250000
--------------------------------------------------------------------------------


  Symmetry reduced region 1 (Relative to defect centre) :

--------------------------------------------------------------------------------
   No.   Atomic       x            y             z       Radius  Multiplicity   
         Label      (Angs)       (Angs)        (Angs)    (Angs)     
--------------------------------------------------------------------------------
     1  O     c      0.0000       0.0000       0.0000    0.0000     1    Defect
     2  Zr    c     -1.1167 *    -1.2689 *     1.2689    0.0000     2          
     3  Zr    c      1.4212 *    -1.2689 *    -1.2689    0.0000     2          
     4  O     c      0.1523 *     2.5378 *     0.0000 *  0.0000     4          
     5  O     c      2.6901 *     0.0000       0.0000    0.0000     1          
     6  O     c     -2.3856 *    -0.0000 *     2.5378 *  0.0000     4          
     7  O     c      0.1523 *     2.5378 *     2.5378    0.0000     2          
     8  O     c      0.1523 *    -2.5378 *     2.5378    0.0000     2          
     9  O     c      2.6901 *     2.5378 *    -0.0000 *  0.0000     4          
    10  Zr    c     -3.6545 *    -1.2689 *    -1.2689    0.0000     2          
    11  Zr    c     -1.1167 *     1.2689 *     3.8068 *  0.0000     4          
    12  Zr    c      1.4212 *    -3.8068 *     1.2689 *  0.0000     4          
    13  O     c     -2.3856 *     2.5378 *     2.5378    0.0000     2          
    14  O     c     -2.3856 *    -2.5378 *     2.5378    0.0000     2          
    15  Zr    c      3.9590 *     1.2689 *    -1.2689    0.0000     2          
    16  O     c      2.6901 *     2.5378 *    -2.5378    0.0000     2          
    17  O     c      2.6901 *     2.5378 *     2.5378    0.0000     2          
    18  O     c     -4.9234 *    -0.0000      -0.0000    0.0000     1          
    19  O     c      0.1523 *    -0.0000 *     5.0757 *  0.0000     4          
    20  O     c      5.2280 *    -0.0000      -0.0000    0.0000     1          
    21  Zr    c     -3.6545 *    -3.8068 *     1.2689 *  0.0000     4          
    22  Zr    c     -1.1167 *    -3.8068 *     3.8068    0.0000     2          
    23  O     c     -4.9234 *     0.0000 *     2.5378 *  0.0000     4          
    24  Zr    c      1.4212 *     3.8068 *     3.8068    0.0000     2          
    25  O     c     -2.3856 *    -5.0757 *     0.0000 *  0.0000     4          
    26  Zr    c      3.9590 *     3.8068 *     1.2689 *  0.0000     4          
    27  O     c      0.1523 *    -5.0757 *     2.5378 *  0.0000     4          
    28  O     c      0.1523 *     5.0757 *     2.5378 *  0.0000     4          
    29  O     c      2.6901 *     5.0757 *     0.0000 *  0.0000     4          
    30  O     c      5.2280 *     2.5378 *     0.0000 *  0.0000     4          
    31  O     c     -4.9234 *     2.5378 *    -2.5378    0.0000     2          
    32  O     c     -4.9234 *     2.5378 *     2.5378    0.0000     2          
    33  O     c     -2.3856 *     5.0757 *     2.5378 *  0.0000     4          
    34  O     c     -2.3856 *    -2.5378 *     5.0757 *  0.0000     4          
    35  O     c      2.6901 *     5.0757 *     2.5378 *  0.0000     4          
    36  O     c      2.6901 *    -2.5378 *     5.0757 *  0.0000     4          
    37  O     c      5.2280 *     2.5378 *     2.5378    0.0000     2          
    38  O     c      5.2280 *     2.5378 *    -2.5378    0.0000     2          
    39  Zr    c     -6.1923 *    -1.2689 *     1.2689    0.0000     2          
    40  Zr    c     -3.6545 *     3.8068 *     3.8068    0.0000     2          
    41  Zr    c     -1.1167 *     1.2689 *    -6.3446 *  0.0000     4          
    42  Zr    c      1.4212 *     6.3446 *     1.2689 *  0.0000     4          
    43  Zr    c      3.9590 *    -3.8068 *     3.8068    0.0000     2          
    44  Zr    c      6.4969 *    -1.2689 *    -1.2689    0.0000     2          
    45  O     c     -4.9234 *     5.0757 *    -0.0000 *  0.0000     4          
    46  O     c      0.1523 *     5.0757 *     5.0757    0.0000     2          
    47  O     c      0.1523 *    -5.0757 *     5.0757    0.0000     2          
    48  O     c      5.2280 *     5.0757 *    -0.0000 *  0.0000     4          
    49  Zr    c     -6.1923 *     1.2689 *     3.8068 *  0.0000     4          
    50  Zr    c     -3.6545 *     6.3446 *     1.2689 *  0.0000     4          
    51  O     c     -7.4613 *     0.0000       0.0000    0.0000     1          
    52  Zr    c     -1.1167 *     3.8068 *     6.3446 *  0.0000     4          
    53  O     c     -4.9234 *    -5.0757 *    -2.5378 *  0.0000     4          
    54  O     c     -4.9234 *    -5.0757 *     2.5378 *  0.0000     4          
    55  Zr    c      1.4212 *    -6.3446 *     3.8068 *  0.0000     4          
    56  O     c     -2.3856 *     5.0757 *     5.0757    0.0000     2          
    57  O     c     -2.3856 *    -5.0757 *     5.0757    0.0000     2          
    58  Zr    c      3.9590 *    -1.2689 *     6.3446 *  0.0000     4          
    59  O     c      0.1523 *     0.0000 *     7.6135 *  0.0000     4          
    60  Zr    c      6.4969 *     3.8068 *    -1.2689 *  0.0000     4          
    61  O     c      2.6901 *    -5.0757 *    -5.0757    0.0000     2          
    62  O     c      2.6901 *    -5.0757 *     5.0757    0.0000     2          
    63  O     c      5.2280 *     5.0757 *    -2.5378 *  0.0000     4          
    64  O     c      5.2280 *     5.0757 *     2.5378 *  0.0000     4          
    65  O     c      7.7658 *     0.0000       0.0000    0.0000     1          
    66  O     c     -7.4613 *    -0.0000 *     2.5378 *  0.0000     4          
    67  O     c     -2.3856 *    -0.0000 *     7.6135 *  0.0000     4          
    68  O     c      0.1523 *    -2.5378 *     7.6135 *  0.0000     4          
    69  O     c      0.1523 *     2.5378 *     7.6135 *  0.0000     4          
    70  O     c      2.6901 *    -0.0000 *     7.6135 *  0.0000     4          
    71  O     c      7.7658 *     2.5378 *    -0.0000 *  0.0000     4          
    72  Zr    c     -6.1923 *    -3.8068 *     3.8068    0.0000     2          
    73  Zr    c     -3.6545 *    -6.3446 *     3.8068 *  0.0000     4          
    74  O     c     -7.4613 *     2.5378 *     2.5378    0.0000     2          
    75  O     c     -7.4613 *    -2.5378 *     2.5378    0.0000     2          
    76  O     c     -2.3856 *    -7.6135 *     2.5378 *  0.0000     4          
    77  O     c     -2.3856 *     2.5378 *     7.6135 *  0.0000     4          
    78  Zr    c      3.9590 *     6.3446 *     3.8068 *  0.0000     4          
    79  Zr    c      6.4969 *     3.8068 *     3.8068    0.0000     2          
    80  O     c      2.6901 *    -2.5378 *     7.6135 *  0.0000     4          
    81  O     c      2.6901 *     7.6135 *     2.5378 *  0.0000     4          
    82  O     c      7.7658 *     2.5378 *     2.5378    0.0000     2          
    83  O     c      7.7658 *     2.5378 *    -2.5378    0.0000     2          
    84  O     c     -4.9234 *     5.0757 *     5.0757    0.0000     2          
    85  O     c     -4.9234 *     5.0757 *    -5.0757    0.0000     2          
    86  O     c      5.2280 *     5.0757 *     5.0757    0.0000     2          
    87  O     c      5.2280 *    -5.0757 *     5.0757    0.0000     2          
    88  Zr    c     -8.7302 *    -1.2689 *    -1.2689    0.0000     2          
    89  Zr    c     -6.1923 *    -6.3446 *     1.2689 *  0.0000     4          
    90  O     c     -7.4613 *     5.0757 *     0.0000 *  0.0000     4          
    91  Zr    c     -1.1167 *    -6.3446 *     6.3446    0.0000     2          
    92  Zr    c     -1.1167 *     1.2689 *     8.8824 *  0.0000     4          
    93  O     c     -4.9234 *    -7.6135 *     0.0000 *  0.0000     4          
    94  Zr    c      1.4212 *     6.3446 *     6.3446    0.0000     2          
    95  Zr    c      1.4212 *    -1.2689 *     8.8824 *  0.0000     4          
    96  O     c      0.1523 *     5.0757 *     7.6135 *  0.0000     4          
    97  O     c      0.1523 *    -7.6135 *     5.0757 *  0.0000     4          
    98  Zr    c      6.4969 *     6.3446 *     1.2689 *  0.0000     4          
    99  Zr    c      9.0347 *     1.2689 *    -1.2689    0.0000     2          
   100  O     c      5.2280 *     7.6135 *     0.0000 *  0.0000     4          
   101  O     c      7.7658 *     5.0757 *     0.0000 *  0.0000     4          
   102  O     c     -7.4613 *    -2.5378 *     5.0757 *  0.0000     4          
   103  O     c     -7.4613 *     2.5378 *     5.0757 *  0.0000     4          
   104  O     c     -4.9234 *     7.6135 *    -2.5378 *  0.0000     4          
   105  O     c     -4.9234 *     7.6135 *     2.5378 *  0.0000     4          
   106  O     c     -2.3856 *     5.0757 *     7.6135 *  0.0000     4          
   107  O     c     -2.3856 *    -5.0757 *     7.6135 *  0.0000     4          
   108  O     c      2.6901 *     5.0757 *     7.6135 *  0.0000     4          
   109  O     c      2.6901 *    -5.0757 *     7.6135 *  0.0000     4          
   110  O     c      5.2280 *    -2.5378 *     7.6135 *  0.0000     4          
   111  O     c      5.2280 *     7.6135 *     2.5378 *  0.0000     4          
   112  Zr    c     -8.7302 *    -1.2689 *     3.8068 *  0.0000     4          
   113  O     c      7.7658 *     5.0757 *     2.5378 *  0.0000     4          
   114  O     c      7.7658 *     5.0757 *    -2.5378 *  0.0000     4          
   115  Zr    c     -6.1923 *     3.8068 *     6.3446 *  0.0000     4          
   116  Zr    c     -3.6545 *     6.3446 *     6.3446    0.0000     2          
   117  Zr    c     -3.6545 *    -8.8824 *     1.2689 *  0.0000     4          
   118  Zr    c     -1.1167 *    -8.8824 *     3.8068 *  0.0000     4          
   119  Zr    c      1.4212 *     3.8068 *     8.8824 *  0.0000     4          
   120  Zr    c      3.9590 *    -6.3446 *     6.3446    0.0000     2          
   121  Zr    c      3.9590 *     1.2689 *     8.8824 *  0.0000     4          
   122  Zr    c      6.4969 *    -6.3446 *     3.8068 *  0.0000     4          
   123  Zr    c      9.0347 *     3.8068 *     1.2689 *  0.0000     4          
   124  O     c     -9.9991 *    -0.0000      -0.0000    0.0000     1          
   125  O     c      0.1523 *    -0.0000 *    10.1514 *  0.0000     4          
   126  Zr    c     -8.7302 *    -3.8068 *    -3.8068    0.0000     2          
   127  O     c     10.3036 *    -0.0000      -0.0000    0.0000     1          
   128  O     c     -9.9991 *    -2.5378 *     0.0000 *  0.0000     4          
   129  Zr    c     -3.6545 *     3.8068 *     8.8824 *  0.0000     4          
   130  O     c     -7.4613 *     5.0757 *     5.0757    0.0000     2          
   131  O     c     -7.4613 *    -5.0757 *     5.0757    0.0000     2          
   132  O     c     -4.9234 *     7.6135 *     5.0757 *  0.0000     4          
   133  O     c     -4.9234 *    -7.6135 *     5.0757 *  0.0000     4          
   134  O     c     -2.3856 *    -0.0000 *    10.1514 *  0.0000     4          
   135  Zr    c      3.9590 *    -3.8068 *     8.8824 *  0.0000     4          
   136  O     c      0.1523 *    10.1514 *    -2.5378 *  0.0000     4          
   137  O     c      0.1523 *     2.5378 *    10.1514 *  0.0000     4          
   138  O     c      2.6901 *    10.1514 *     0.0000 *  0.0000     4          
   139  Zr    c      9.0347 *     3.8068 *    -3.8068    0.0000     2          
   140  O     c      5.2280 *    -5.0757 *     7.6135 *  0.0000     4          
   141  O     c      5.2280 *     7.6135 *     5.0757 *  0.0000     4          
   142  O     c      7.7658 *     5.0757 *     5.0757    0.0000     2          
   143  O     c      7.7658 *     5.0757 *    -5.0757    0.0000     2          
   144  O     c     10.3036 *     2.5378 *     0.0000 *  0.0000     4          
   145  O     c     -9.9991 *    -2.5378 *    -2.5378    0.0000     2          
   146  O     c     -9.9991 *    -2.5378 *     2.5378    0.0000     2          
   147  O     c     -7.4613 *    -0.0000 *     7.6135 *  0.0000     4          
   148  O     c     -2.3856 *     2.5378 *    10.1514 *  0.0000     4          
   149  O     c     -2.3856 *    -2.5378 *    10.1514 *  0.0000     4          
   150  O     c      0.1523 *     7.6135 *     7.6135    0.0000     2          
   151  O     c      0.1523 *    -7.6135 *     7.6135    0.0000     2          
   152  O     c      2.6901 *    -2.5378 *    10.1514 *  0.0000     4          
   153  O     c      2.6901 *     2.5378 *    10.1514 *  0.0000     4          
   154  Zr    c     -8.7302 *    -1.2689 *    -6.3446 *  0.0000     4          
   155  O     c      7.7658 *     7.6135 *    -0.0000 *  0.0000     4          
   156  Zr    c     -6.1923 *    -8.8824 *    -1.2689 *  0.0000     4          
   157  Zr    c     -6.1923 *    -6.3446 *     6.3446    0.0000     2          
   158  O     c     10.3036 *     2.5378 *     2.5378    0.0000     2          
   159  O     c     10.3036 *     2.5378 *    -2.5378    0.0000     2          
   160  O     c     -7.4613 *    -7.6135 *    -2.5378 *  0.0000     4          
   161  O     c     -7.4613 *    -7.6135 *     2.5378 *  0.0000     4          
   162  Zr    c     -1.1167 *     6.3446 *     8.8824 *  0.0000     4          
   163  Zr    c      1.4212 *    -8.8824 *     6.3446 *  0.0000     4          
   164  O     c     -2.3856 *    -7.6135 *     7.6135    0.0000     2          
   165  O     c     -2.3856 *     7.6135 *     7.6135    0.0000     2          
   166  Zr    c      6.4969 *    -8.8824 *     1.2689 *  0.0000     4          
   167  Zr    c      6.4969 *     6.3446 *     6.3446    0.0000     2          
   168  O     c      2.6901 *    -7.6135 *     7.6135    0.0000     2          
   169  O     c      2.6901 *     7.6135 *     7.6135    0.0000     2          
   170  Zr    c      9.0347 *    -1.2689 *     6.3446 *  0.0000     4          
   171  O     c      7.7658 *    -2.5378 *     7.6135 *  0.0000     4          
   172  O     c      7.7658 *     2.5378 *     7.6135 *  0.0000     4          
   173  O     c     -9.9991 *    -0.0000 *     5.0757 *  0.0000     4          
   174  O     c     -4.9234 *    -0.0000 *    10.1514 *  0.0000     4          
   175  O     c      0.1523 *    -5.0757 *    10.1514 *  0.0000     4          
   176  O     c      0.1523 *     5.0757 *    10.1514 *  0.0000     4          
   177  Zr    c    -11.2680 *    -1.2689 *     1.2689    0.0000     2          
   178  O     c      5.2280 *    -0.0000 *    10.1514 *  0.0000     4          
   179  Zr    c     -8.7302 *    -6.3446 *     3.8068 *  0.0000     4          
   180  Zr    c     -6.1923 *    -8.8824 *     3.8068 *  0.0000     4          
   181  O     c     10.3036 *     5.0757 *    -0.0000 *  0.0000     4          
   182  O     c     -9.9991 *    -2.5378 *    -5.0757 *  0.0000     4          
   183  O     c     -9.9991 *     2.5378 *    -5.0757 *  0.0000     4          
   184  Zr    c     -3.6545 *    -8.8824 *     6.3446 *  0.0000     4          
   185  Zr    c     -1.1167 *    -1.2689 *    11.4203 *  0.0000     4          
   186  O     c     -4.9234 *     2.5378 *   -10.1514 *  0.0000     4          
   187  O     c     -4.9234 *     2.5378 *    10.1514 *  0.0000     4          
   188  Zr    c      1.4212 *     1.2689 *    11.4203 *  0.0000     4          
   189  O     c     -2.3856 *   -10.1514 *     5.0757 *  0.0000     4          
   190  O     c     -2.3856 *     5.0757 *    10.1514 *  0.0000     4          
   191  Zr    c      3.9590 *     8.8824 *     6.3446 *  0.0000     4          
   192  Zr    c      6.4969 *     8.8824 *     3.8068 *  0.0000     4          
   193  O     c      2.6901 *    -5.0757 *    10.1514 *  0.0000     4          
   194  O     c      2.6901 *    10.1514 *     5.0757 *  0.0000     4          
   195  Zr    c      9.0347 *     3.8068 *     6.3446 *  0.0000     4          
   196  O     c      5.2280 *   -10.1514 *    -2.5378 *  0.0000     4          
   197  O     c      5.2280 *    -2.5378 *    10.1514 *  0.0000     4          
   198  Zr    c     11.5726 *     1.2689 *     1.2689    0.0000     2          
   199  O     c     10.3036 *     5.0757 *     2.5378 *  0.0000     4          
   200  O     c     10.3036 *     2.5378 *    -5.0757 *  0.0000     4          
   201  O     c     -7.4613 *     5.0757 *     7.6135 *  0.0000     4          
   202  O     c     -7.4613 *    -7.6135 *     5.0757 *  0.0000     4          
   203  O     c     -4.9234 *     7.6135 *    -7.6135    0.0000     2          
   204  O     c     -4.9234 *     7.6135 *     7.6135    0.0000     2          
   205  Zr    c    -11.2680 *     1.2689 *     3.8068 *  0.0000     4          
   206  O     c      5.2280 *     7.6135 *     7.6135    0.0000     2          
   207  O     c      5.2280 *    -7.6135 *     7.6135    0.0000     2          
   208  O     s      0.0000       0.0000       0.0000    0.0000     1    Defect
   209  Zr    s     -1.1167 *    -1.2689 *     1.2689    0.0000     2          
   210  Zr    s      1.4212 *    -1.2689 *    -1.2689    0.0000     2          
   211  O     s      0.1523 *     2.5378 *     0.0000 *  0.0000     4          
   212  O     s      2.6901 *     0.0000       0.0000    0.0000     1          
   213  O     s     -2.3856 *    -0.0000 *     2.5378 *  0.0000     4          
   214  O     s      0.1523 *     2.5378 *     2.5378    0.0000     2          
   215  O     s      0.1523 *    -2.5378 *     2.5378    0.0000     2          
   216  O     s      2.6901 *     2.5378 *    -0.0000 *  0.0000     4          
   217  Zr    s     -3.6545 *    -1.2689 *    -1.2689    0.0000     2          
   218  Zr    s     -1.1167 *     1.2689 *     3.8068 *  0.0000     4          
   219  Zr    s      1.4212 *    -3.8068 *     1.2689 *  0.0000     4          
   220  O     s     -2.3856 *     2.5378 *     2.5378    0.0000     2          
   221  O     s     -2.3856 *    -2.5378 *     2.5378    0.0000     2          
   222  Zr    s      3.9590 *     1.2689 *    -1.2689    0.0000     2          
   223  O     s      2.6901 *     2.5378 *    -2.5378    0.0000     2          
   224  O     s      2.6901 *     2.5378 *     2.5378    0.0000     2          
   225  O     s     -4.9234 *    -0.0000      -0.0000    0.0000     1          
   226  O     s      0.1523 *    -0.0000 *     5.0757 *  0.0000     4          
   227  O     s      5.2280 *    -0.0000      -0.0000    0.0000     1          
   228  Zr    s     -3.6545 *    -3.8068 *     1.2689 *  0.0000     4          
   229  Zr    s     -1.1167 *    -3.8068 *     3.8068    0.0000     2          
   230  O     s     -4.9234 *     0.0000 *     2.5378 *  0.0000     4          
   231  Zr    s      1.4212 *     3.8068 *     3.8068    0.0000     2          
   232  O     s     -2.3856 *    -5.0757 *     0.0000 *  0.0000     4          
   233  Zr    s      3.9590 *     3.8068 *     1.2689 *  0.0000     4          
   234  O     s      0.1523 *    -5.0757 *     2.5378 *  0.0000     4          
   235  O     s      0.1523 *     5.0757 *     2.5378 *  0.0000     4          
   236  O     s      2.6901 *     5.0757 *     0.0000 *  0.0000     4          
   237  O     s      5.2280 *     2.5378 *     0.0000 *  0.0000     4          
   238  O     s     -4.9234 *     2.5378 *    -2.5378    0.0000     2          
   239  O     s     -4.9234 *     2.5378 *     2.5378    0.0000     2          
   240  O     s     -2.3856 *     5.0757 *     2.5378 *  0.0000     4          
   241  O     s     -2.3856 *    -2.5378 *     5.0757 *  0.0000     4          
   242  O     s      2.6901 *     5.0757 *     2.5378 *  0.0000     4          
   243  O     s      2.6901 *    -2.5378 *     5.0757 *  0.0000     4          
   244  O     s      5.2280 *     2.5378 *     2.5378    0.0000     2          
   245  O     s      5.2280 *     2.5378 *    -2.5378    0.0000     2          
   246  Zr    s     -6.1923 *    -1.2689 *     1.2689    0.0000     2          
   247  Zr    s     -3.6545 *     3.8068 *     3.8068    0.0000     2          
   248  Zr    s     -1.1167 *     1.2689 *    -6.3446 *  0.0000     4          
   249  Zr    s      1.4212 *     6.3446 *     1.2689 *  0.0000     4          
   250  Zr    s      3.9590 *    -3.8068 *     3.8068    0.0000     2          
   251  Zr    s      6.4969 *    -1.2689 *    -1.2689    0.0000     2          
   252  O     s     -4.9234 *     5.0757 *    -0.0000 *  0.0000     4          
   253  O     s      0.1523 *     5.0757 *     5.0757    0.0000     2          
   254  O     s      0.1523 *    -5.0757 *     5.0757    0.0000     2          
   255  O     s      5.2280 *     5.0757 *    -0.0000 *  0.0000     4          
   256  Zr    s     -6.1923 *     1.2689 *     3.8068 *  0.0000     4          
   257  Zr    s     -3.6545 *     6.3446 *     1.2689 *  0.0000     4          
   258  O     s     -7.4613 *     0.0000       0.0000    0.0000     1          
   259  Zr    s     -1.1167 *     3.8068 *     6.3446 *  0.0000     4          
   260  O     s     -4.9234 *    -5.0757 *    -2.5378 *  0.0000     4          
   261  O     s     -4.9234 *    -5.0757 *     2.5378 *  0.0000     4          
   262  Zr    s      1.4212 *    -6.3446 *     3.8068 *  0.0000     4          
   263  O     s     -2.3856 *     5.0757 *     5.0757    0.0000     2          
   264  O     s     -2.3856 *    -5.0757 *     5.0757    0.0000     2          
   265  Zr    s      3.9590 *    -1.2689 *     6.3446 *  0.0000     4          
   266  O     s      0.1523 *     0.0000 *     7.6135 *  0.0000     4          
   267  Zr    s      6.4969 *     3.8068 *    -1.2689 *  0.0000     4          
   268  O     s      2.6901 *    -5.0757 *    -5.0757    0.0000     2          
   269  O     s      2.6901 *    -5.0757 *     5.0757    0.0000     2          
   270  O     s      5.2280 *     5.0757 *    -2.5378 *  0.0000     4          
   271  O     s      5.2280 *     5.0757 *     2.5378 *  0.0000     4          
   272  O     s      7.7658 *     0.0000       0.0000    0.0000     1          
   273  O     s     -7.4613 *    -0.0000 *     2.5378 *  0.0000     4          
   274  O     s     -2.3856 *    -0.0000 *     7.6135 *  0.0000     4          
   275  O     s      0.1523 *    -2.5378 *     7.6135 *  0.0000     4          
   276  O     s      0.1523 *     2.5378 *     7.6135 *  0.0000     4          
   277  O     s      2.6901 *    -0.0000 *     7.6135 *  0.0000     4          
   278  O     s      7.7658 *     2.5378 *    -0.0000 *  0.0000     4          
   279  Zr    s     -6.1923 *    -3.8068 *     3.8068    0.0000     2          
   280  Zr    s     -3.6545 *    -6.3446 *     3.8068 *  0.0000     4          
   281  O     s     -7.4613 *     2.5378 *     2.5378    0.0000     2          
   282  O     s     -7.4613 *    -2.5378 *     2.5378    0.0000     2          
   283  O     s     -2.3856 *    -7.6135 *     2.5378 *  0.0000     4          
   284  O     s     -2.3856 *     2.5378 *     7.6135 *  0.0000     4          
   285  Zr    s      3.9590 *     6.3446 *     3.8068 *  0.0000     4          
   286  Zr    s      6.4969 *     3.8068 *     3.8068    0.0000     2          
   287  O     s      2.6901 *    -2.5378 *     7.6135 *  0.0000     4          
   288  O     s      2.6901 *     7.6135 *     2.5378 *  0.0000     4          
   289  O     s      7.7658 *     2.5378 *     2.5378    0.0000     2          
   290  O     s      7.7658 *     2.5378 *    -2.5378    0.0000     2          
   291  O     s     -4.9234 *     5.0757 *     5.0757    0.0000     2          
   292  O     s     -4.9234 *     5.0757 *    -5.0757    0.0000     2          
   293  O     s      5.2280 *     5.0757 *     5.0757    0.0000     2          
   294  O     s      5.2280 *    -5.0757 *     5.0757    0.0000     2          
   295  Zr    s     -8.7302 *    -1.2689 *    -1.2689    0.0000     2          
   296  Zr    s     -6.1923 *    -6.3446 *     1.2689 *  0.0000     4          
   297  O     s     -7.4613 *     5.0757 *     0.0000 *  0.0000     4          
   298  Zr    s     -1.1167 *    -6.3446 *     6.3446    0.0000     2          
   299  Zr    s     -1.1167 *     1.2689 *     8.8824 *  0.0000     4          
   300  O     s     -4.9234 *    -7.6135 *     0.0000 *  0.0000     4          
   301  Zr    s      1.4212 *     6.3446 *     6.3446    0.0000     2          
   302  Zr    s      1.4212 *    -1.2689 *     8.8824 *  0.0000     4          
   303  O     s      0.1523 *     5.0757 *     7.6135 *  0.0000     4          
   304  O     s      0.1523 *    -7.6135 *     5.0757 *  0.0000     4          
   305  Zr    s      6.4969 *     6.3446 *     1.2689 *  0.0000     4          
   306  Zr    s      9.0347 *     1.2689 *    -1.2689    0.0000     2          
   307  O     s      5.2280 *     7.6135 *     0.0000 *  0.0000     4          
   308  O     s      7.7658 *     5.0757 *     0.0000 *  0.0000     4          
   309  O     s     -7.4613 *    -2.5378 *     5.0757 *  0.0000     4          
   310  O     s     -7.4613 *     2.5378 *     5.0757 *  0.0000     4          
   311  O     s     -4.9234 *     7.6135 *    -2.5378 *  0.0000     4          
   312  O     s     -4.9234 *     7.6135 *     2.5378 *  0.0000     4          
   313  O     s     -2.3856 *     5.0757 *     7.6135 *  0.0000     4          
   314  O     s     -2.3856 *    -5.0757 *     7.6135 *  0.0000     4          
   315  O     s      2.6901 *     5.0757 *     7.6135 *  0.0000     4          
   316  O     s      2.6901 *    -5.0757 *     7.6135 *  0.0000     4          
   317  O     s      5.2280 *    -2.5378 *     7.6135 *  0.0000     4          
   318  O     s      5.2280 *     7.6135 *     2.5378 *  0.0000     4          
   319  Zr    s     -8.7302 *    -1.2689 *     3.8068 *  0.0000     4          
   320  O     s      7.7658 *     5.0757 *     2.5378 *  0.0000     4          
   321  O     s      7.7658 *     5.0757 *    -2.5378 *  0.0000     4          
   322  Zr    s     -6.1923 *     3.8068 *     6.3446 *  0.0000     4          
   323  Zr    s     -3.6545 *     6.3446 *     6.3446    0.0000     2          
   324  Zr    s     -3.6545 *    -8.8824 *     1.2689 *  0.0000     4          
   325  Zr    s     -1.1167 *    -8.8824 *     3.8068 *  0.0000     4          
   326  Zr    s      1.4212 *     3.8068 *     8.8824 *  0.0000     4          
   327  Zr    s      3.9590 *    -6.3446 *     6.3446    0.0000     2          
   328  Zr    s      3.9590 *     1.2689 *     8.8824 *  0.0000     4          
   329  Zr    s      6.4969 *    -6.3446 *     3.8068 *  0.0000     4          
   330  Zr    s      9.0347 *     3.8068 *     1.2689 *  0.0000     4          
   331  O     s     -9.9991 *    -0.0000      -0.0000    0.0000     1          
   332  O     s      0.1523 *    -0.0000 *    10.1514 *  0.0000     4          
   333  Zr    s     -8.7302 *    -3.8068 *    -3.8068    0.0000     2          
   334  O     s     10.3036 *    -0.0000      -0.0000    0.0000     1          
   335  O     s     -9.9991 *    -2.5378 *     0.0000 *  0.0000     4          
   336  Zr    s     -3.6545 *     3.8068 *     8.8824 *  0.0000     4          
   337  O     s     -7.4613 *     5.0757 *     5.0757    0.0000     2          
   338  O     s     -7.4613 *    -5.0757 *     5.0757    0.0000     2          
   339  O     s     -4.9234 *     7.6135 *     5.0757 *  0.0000     4          
   340  O     s     -4.9234 *    -7.6135 *     5.0757 *  0.0000     4          
   341  O     s     -2.3856 *    -0.0000 *    10.1514 *  0.0000     4          
   342  Zr    s      3.9590 *    -3.8068 *     8.8824 *  0.0000     4          
   343  O     s      0.1523 *    10.1514 *    -2.5378 *  0.0000     4          
   344  O     s      0.1523 *     2.5378 *    10.1514 *  0.0000     4          
   345  O     s      2.6901 *    10.1514 *     0.0000 *  0.0000     4          
   346  Zr    s      9.0347 *     3.8068 *    -3.8068    0.0000     2          
   347  O     s      5.2280 *    -5.0757 *     7.6135 *  0.0000     4          
   348  O     s      5.2280 *     7.6135 *     5.0757 *  0.0000     4          
   349  O     s      7.7658 *     5.0757 *     5.0757    0.0000     2          
   350  O     s      7.7658 *     5.0757 *    -5.0757    0.0000     2          
   351  O     s     10.3036 *     2.5378 *     0.0000 *  0.0000     4          
   352  O     s     -9.9991 *    -2.5378 *    -2.5378    0.0000     2          
   353  O     s     -9.9991 *    -2.5378 *     2.5378    0.0000     2          
   354  O     s     -7.4613 *    -0.0000 *     7.6135 *  0.0000     4          
   355  O     s     -2.3856 *     2.5378 *    10.1514 *  0.0000     4          
   356  O     s     -2.3856 *    -2.5378 *    10.1514 *  0.0000     4          
   357  O     s      0.1523 *     7.6135 *     7.6135    0.0000     2          
   358  O     s      0.1523 *    -7.6135 *     7.6135    0.0000     2          
   359  O     s      2.6901 *    -2.5378 *    10.1514 *  0.0000     4          
   360  O     s      2.6901 *     2.5378 *    10.1514 *  0.0000     4          
   361  Zr    s     -8.7302 *    -1.2689 *    -6.3446 *  0.0000     4          
   362  O     s      7.7658 *     7.6135 *    -0.0000 *  0.0000     4          
   363  Zr    s     -6.1923 *    -8.8824 *    -1.2689 *  0.0000     4          
   364  Zr    s     -6.1923 *    -6.3446 *     6.3446    0.0000     2          
   365  O     s     10.3036 *     2.5378 *     2.5378    0.0000     2          
   366  O     s     10.3036 *     2.5378 *    -2.5378    0.0000     2          
   367  O     s     -7.4613 *    -7.6135 *    -2.5378 *  0.0000     4          
   368  O     s     -7.4613 *    -7.6135 *     2.5378 *  0.0000     4          
   369  Zr    s     -1.1167 *     6.3446 *     8.8824 *  0.0000     4          
   370  Zr    s      1.4212 *    -8.8824 *     6.3446 *  0.0000     4          
   371  O     s     -2.3856 *    -7.6135 *     7.6135    0.0000     2          
   372  O     s     -2.3856 *     7.6135 *     7.6135    0.0000     2          
   373  Zr    s      6.4969 *    -8.8824 *     1.2689 *  0.0000     4          
   374  Zr    s      6.4969 *     6.3446 *     6.3446    0.0000     2          
   375  O     s      2.6901 *    -7.6135 *     7.6135    0.0000     2          
   376  O     s      2.6901 *     7.6135 *     7.6135    0.0000     2          
   377  Zr    s      9.0347 *    -1.2689 *     6.3446 *  0.0000     4          
   378  O     s      7.7658 *    -2.5378 *     7.6135 *  0.0000     4          
   379  O     s      7.7658 *     2.5378 *     7.6135 *  0.0000     4          
   380  O     s     -9.9991 *    -0.0000 *     5.0757 *  0.0000     4          
   381  O     s     -4.9234 *    -0.0000 *    10.1514 *  0.0000     4          
   382  O     s      0.1523 *    -5.0757 *    10.1514 *  0.0000     4          
   383  O     s      0.1523 *     5.0757 *    10.1514 *  0.0000     4          
   384  Zr    s    -11.2680 *    -1.2689 *     1.2689    0.0000     2          
   385  O     s      5.2280 *    -0.0000 *    10.1514 *  0.0000     4          
   386  Zr    s     -8.7302 *    -6.3446 *     3.8068 *  0.0000     4          
   387  Zr    s     -6.1923 *    -8.8824 *     3.8068 *  0.0000     4          
   388  O     s     10.3036 *     5.0757 *    -0.0000 *  0.0000     4          
   389  O     s     -9.9991 *    -2.5378 *    -5.0757 *  0.0000     4          
   390  O     s     -9.9991 *     2.5378 *    -5.0757 *  0.0000     4          
   391  Zr    s     -3.6545 *    -8.8824 *     6.3446 *  0.0000     4          
   392  Zr    s     -1.1167 *    -1.2689 *    11.4203 *  0.0000     4          
   393  O     s     -4.9234 *     2.5378 *   -10.1514 *  0.0000     4          
   394  O     s     -4.9234 *     2.5378 *    10.1514 *  0.0000     4          
   395  Zr    s      1.4212 *     1.2689 *    11.4203 *  0.0000     4          
   396  O     s     -2.3856 *   -10.1514 *     5.0757 *  0.0000     4          
   397  O     s     -2.3856 *     5.0757 *    10.1514 *  0.0000     4          
   398  Zr    s      3.9590 *     8.8824 *     6.3446 *  0.0000     4          
   399  Zr    s      6.4969 *     8.8824 *     3.8068 *  0.0000     4          
   400  O     s      2.6901 *    -5.0757 *    10.1514 *  0.0000     4          
   401  O     s      2.6901 *    10.1514 *     5.0757 *  0.0000     4          
   402  Zr    s      9.0347 *     3.8068 *     6.3446 *  0.0000     4          
   403  O     s      5.2280 *   -10.1514 *    -2.5378 *  0.0000     4          
   404  O     s      5.2280 *    -2.5378 *    10.1514 *  0.0000     4          
   405  Zr    s     11.5726 *     1.2689 *     1.2689    0.0000     2          
   406  O     s     10.3036 *     5.0757 *     2.5378 *  0.0000     4          
   407  O     s     10.3036 *     2.5378 *    -5.0757 *  0.0000     4          
   408  O     s     -7.4613 *     5.0757 *     7.6135 *  0.0000     4          
   409  O     s     -7.4613 *    -7.6135 *     5.0757 *  0.0000     4          
   410  O     s     -4.9234 *     7.6135 *    -7.6135    0.0000     2          
   411  O     s     -4.9234 *     7.6135 *     7.6135    0.0000     2          
   412  Zr    s    -11.2680 *     1.2689 *     3.8068 *  0.0000     4          
   413  O     s      5.2280 *     7.6135 *     7.6135    0.0000     2          
   414  O     s      5.2280 *    -7.6135 *     7.6135    0.0000     2          
--------------------------------------------------------------------------------


  Constraints on symmetry reduced coordinates :

--------------------------------------------------------------------------------
  Constraint no.      Unconstrained     Constrained    Coefficient    
                         Variable         Variable
--------------------------------------------------------------------------------
           1                 2 y             2 z        -1.00000
           2                 3 y             3 z         1.00000
           3                 7 y             7 z         1.00000
           4                 8 y             8 z        -1.00000
           5                10 y            10 z         1.00000
           6                13 y            13 z         1.00000
           7                14 y            14 z        -1.00000
           8                15 y            15 z        -1.00000
           9                16 y            16 z        -1.00000
          10                17 y            17 z         1.00000
          11                22 y            22 z        -1.00000
          12                24 y            24 z         1.00000
          13                31 y            31 z        -1.00000
          14                32 y            32 z         1.00000
          15                37 y            37 z         1.00000
          16                38 y            38 z        -1.00000
          17                39 y            39 z        -1.00000
          18                40 y            40 z         1.00000
          19                43 y            43 z        -1.00000
          20                44 y            44 z         1.00000
          21                46 y            46 z         1.00000
          22                47 y            47 z        -1.00000
          23                56 y            56 z         1.00000
          24                57 y            57 z        -1.00000
          25                61 y            61 z         1.00000
          26                62 y            62 z        -1.00000
          27                72 y            72 z        -1.00000
          28                74 y            74 z         1.00000
          29                75 y            75 z        -1.00000
          30                79 y            79 z         1.00000
          31                82 y            82 z         1.00000
          32                83 y            83 z        -1.00000
          33                84 y            84 z         1.00000
          34                85 y            85 z        -1.00000
          35                86 y            86 z         1.00000
          36                87 y            87 z        -1.00000
          37                88 y            88 z         1.00000
          38                91 y            91 z        -1.00000
          39                94 y            94 z         1.00000
          40                99 y            99 z        -1.00000
          41               116 y           116 z         1.00000
          42               120 y           120 z        -1.00000
          43               126 y           126 z         1.00000
          44               130 y           130 z         1.00000
          45               131 y           131 z        -1.00000
          46               139 y           139 z        -1.00000
          47               142 y           142 z         1.00000
          48               143 y           143 z        -1.00000
          49               145 y           145 z         1.00000
          50               146 y           146 z        -1.00000
          51               150 y           150 z         1.00000
          52               151 y           151 z        -1.00000
          53               157 y           157 z        -1.00000
          54               158 y           158 z         1.00000
          55               159 y           159 z        -1.00000
          56               164 y           164 z        -1.00000
          57               165 y           165 z         1.00000
          58               167 y           167 z         1.00000
          59               168 y           168 z        -1.00000
          60               169 y           169 z         1.00000
          61               177 y           177 z        -1.00000
          62               198 y           198 z         1.00000
          63               203 y           203 z        -1.00000
          64               204 y           204 z         1.00000
          65               206 y           206 z         1.00000
          66               207 y           207 z        -1.00000
          67               209 y           209 z        -1.00000
          68               210 y           210 z         1.00000
          69               214 y           214 z         1.00000
          70               215 y           215 z        -1.00000
          71               217 y           217 z         1.00000
          72               220 y           220 z         1.00000
          73               221 y           221 z        -1.00000
          74               222 y           222 z        -1.00000
          75               223 y           223 z        -1.00000
          76               224 y           224 z         1.00000
          77               229 y           229 z        -1.00000
          78               231 y           231 z         1.00000
          79               238 y           238 z        -1.00000
          80               239 y           239 z         1.00000
          81               244 y           244 z         1.00000
          82               245 y           245 z        -1.00000
          83               246 y           246 z        -1.00000
          84               247 y           247 z         1.00000
          85               250 y           250 z        -1.00000
          86               251 y           251 z         1.00000
          87               253 y           253 z         1.00000
          88               254 y           254 z        -1.00000
          89               263 y           263 z         1.00000
          90               264 y           264 z        -1.00000
          91               268 y           268 z         1.00000
          92               269 y           269 z        -1.00000
          93               279 y           279 z        -1.00000
          94               281 y           281 z         1.00000
          95               282 y           282 z        -1.00000
          96               286 y           286 z         1.00000
          97               289 y           289 z         1.00000
          98               290 y           290 z        -1.00000
          99               291 y           291 z         1.00000
         100               292 y           292 z        -1.00000
         101               293 y           293 z         1.00000
         102               294 y           294 z        -1.00000
         103               295 y           295 z         1.00000
         104               298 y           298 z        -1.00000
         105               301 y           301 z         1.00000
         106               306 y           306 z        -1.00000
         107               323 y           323 z         1.00000
         108               327 y           327 z        -1.00000
         109               333 y           333 z         1.00000
         110               337 y           337 z         1.00000
         111               338 y           338 z        -1.00000
         112               346 y           346 z        -1.00000
         113               349 y           349 z         1.00000
         114               350 y           350 z        -1.00000
         115               352 y           352 z         1.00000
         116               353 y           353 z        -1.00000
         117               357 y           357 z         1.00000
         118               358 y           358 z        -1.00000
         119               364 y           364 z        -1.00000
         120               365 y           365 z         1.00000
         121               366 y           366 z        -1.00000
         122               371 y           371 z        -1.00000
         123               372 y           372 z         1.00000
         124               374 y           374 z         1.00000
         125               375 y           375 z        -1.00000
         126               376 y           376 z         1.00000
         127               384 y           384 z        -1.00000
         128               405 y           405 z         1.00000
         129               410 y           410 z        -1.00000
         130               411 y           411 z         1.00000
         131               413 y           413 z         1.00000
         132               414 y           414 z        -1.00000
--------------------------------------------------------------------------------


  Components of defect energy : 

--------------------------------------------------------------------------------
  Region 1 - region 1                   =    -26.64855243 eV
  Region 1 - region 2a (unrelaxed)      =     60.92633108 eV
  Region 1 - 2a (relaxed - correction)  =     -2.38660904 eV
  Region 1 (Total)                      =     31.89116961 eV
  Region 2a                             =      1.19329379 eV
  Region 2b                             =     -1.16099449 eV
--------------------------------------------------------------------------------
  Total defect energy                   =     31.92346890 eV
--------------------------------------------------------------------------------

  Largest displacement in region 2 =   0.0064 Angstroms


  Number of variables =     1076

  Maximum number of calculations  =        1000
  Maximum Hessian update interval =          10
  Maximum step size               =   1.0000000
  Maximum parameter tolerance     =   0.0000100
  Maximum function  tolerance     =   0.0000100
  Maximum gradient  tolerance     =   0.0010000

  Symmetry adapted optimisation

  Symmetry to be used for second derivatives

  Newton-Raphson optimiser to be used

  BFGS hessian update to be used

  Lower half triangular hessian to be used

  Start of defect optimisation :

  Cycle:      0 Defect Energy:  31.923469  Gnorm:     0.087708  CPU:    4.883
  ** Hessian calculated **
  Cycle:      1 Defect Energy:  22.702472  Gnorm:     0.035313  CPU:   14.926
  Cycle:      2 Defect Energy:  17.508693  Gnorm:     0.018973  CPU:   23.613
  Cycle:      3 Defect Energy:  16.787836  Gnorm:     0.014782  CPU:   29.440
  Cycle:      4 Defect Energy:  16.069460  Gnorm:     0.008425  CPU:   36.700
  Cycle:      5 Defect Energy:  15.605172  Gnorm:     0.007988  CPU:   43.966
  Cycle:      6 Defect Energy:  15.463467  Gnorm:     0.006245  CPU:   49.782
  Cycle:      7 Defect Energy:  15.320038  Gnorm:     0.004487  CPU:   57.034
  Cycle:      8 Defect Energy:  15.197253  Gnorm:     0.003792  CPU:   64.314
  Cycle:      9 Defect Energy:  15.105515  Gnorm:     0.004064  CPU:   71.552
  Cycle:     10 Defect Energy:  15.022083  Gnorm:     0.004150  CPU:   78.806
  ** Hessian calculated **
  Cycle:     11 Defect Energy:  14.825060  Gnorm:     0.002413  CPU:   93.244
  Cycle:     12 Defect Energy:  14.783009  Gnorm:     0.001806  CPU:   94.780
  Cycle:     13 Defect Energy:  14.757692  Gnorm:     0.001266  CPU:   96.315
  Cycle:     14 Defect Energy:  14.745783  Gnorm:     0.000889  CPU:   97.855
  Cycle:     15 Defect Energy:  14.740038  Gnorm:     0.000623  CPU:   99.395
  Cycle:     16 Defect Energy:  14.737330  Gnorm:     0.000437  CPU:  100.935
  Cycle:     17 Defect Energy:  14.736071  Gnorm:     0.000306  CPU:  102.480
  Cycle:     18 Defect Energy:  14.735499  Gnorm:     0.000215  CPU:  104.023
  Cycle:     19 Defect Energy:  14.735249  Gnorm:     0.000150  CPU:  105.559
  Cycle:     20 Defect Energy:  14.735148  Gnorm:     0.000105  CPU:  107.094
  ** Hessian calculated **
  Cycle:     21 Defect Energy:  14.735114  Gnorm:     0.000074  CPU:  114.416


  **** Optimisation achieved ****


  Final defect energy  =       14.73510736
  Final defect Gnorm   =        0.00005158

  Components of defect energy : 

--------------------------------------------------------------------------------
  Region 1 - region 1                   =    -35.31573435 eV
  Region 1 - region 2a (unrelaxed)      =     52.24367423 eV
  Region 1 - 2a (relaxed - correction)  =     -2.07581209 eV
  Region 1 (Total)                      =     14.85212779 eV
  Region 2a                             =      1.03782180 eV
  Region 2b                             =     -1.15484222 eV
--------------------------------------------------------------------------------
  Total defect energy                   =     14.73510736 eV
--------------------------------------------------------------------------------

  Largest displacement in region 2 =   0.0064 Angstroms

  Final coordinates of region 1 :

--------------------------------------------------------------------------------
   No.  Atomic        x           y           z          Radius      Charge
        Label       (Angs)      (Angs)      (Angs)       (Angs)       (e) 
--------------------------------------------------------------------------------
     1  O     c     3.654492    1.268921    1.268921    0.000000    0.077000
     2  Zr    c     2.595320   -0.065502    2.603344    0.000000    2.650000
     3  Zr    c     2.595320    2.603344   -0.065502    0.000000    2.650000
     4  Zr    c     5.101527   -0.013374   -0.013374    0.000000    2.650000
     5  Zr    c     5.101527    2.551216    2.551216    0.000000    2.650000
     6  O     c     3.824444    3.869318    1.232074    0.000000    0.077000
     7  O     c     3.824444    1.232074    3.869318    0.000000    0.077000
     8  O     c     3.824444    1.305768   -1.331476    0.000000    0.077000
     9  O     c     3.824444   -1.331476    1.305768    0.000000    0.077000
    10  O     c     6.227699    1.268921    1.268921    0.000000    0.077000
    11  O     c     1.287696    1.274091    3.332611    0.000000    0.077000
    12  O     c     1.287696    3.332611    1.274091    0.000000    0.077000
    13  O     c     1.287696   -0.794769    1.263751    0.000000    0.077000
    14  O     c     1.287696    1.263751   -0.794769    0.000000    0.077000
    15  O     c     3.783452    3.773616    3.773616    0.000000    0.077000
    16  O     c     3.783452   -1.235774   -1.235774    0.000000    0.077000
    17  O     c     3.825029   -1.286547    3.824389    0.000000    0.077000
    18  O     c     3.825029    3.824389   -1.286547    0.000000    0.077000
    19  O     c     6.357760    3.794254    1.279249    0.000000    0.077000
    20  O     c     6.357760    1.279249    3.794254    0.000000    0.077000
    21  O     c     6.357760    1.258593   -1.256413    0.000000    0.077000
    22  O     c     6.357760   -1.256413    1.258593    0.000000    0.077000
    23  Zr    c    -0.037224   -0.048791   -0.048791    0.000000    2.650000
    24  Zr    c    -0.037224    2.586632    2.586632    0.000000    2.650000
    25  Zr    c     2.577054    2.561385    5.096912    0.000000    2.650000
    26  Zr    c     2.577054    5.096912    2.561385    0.000000    2.650000
    27  Zr    c     2.577054   -2.559070   -0.023543    0.000000    2.650000
    28  Zr    c     2.577054   -0.023543   -2.559070    0.000000    2.650000
    29  Zr    c     5.103760   -2.558815    2.546654    0.000000    2.650000
    30  Zr    c     5.103760    2.546654   -2.558815    0.000000    2.650000
    31  Zr    c     5.103760   -0.008812    5.096657    0.000000    2.650000
    32  Zr    c     5.103760    5.096657   -0.008812    0.000000    2.650000
    33  O     c     1.225935    3.845737    3.845737    0.000000    0.077000
    34  O     c     1.225935   -1.307895   -1.307895    0.000000    0.077000
    35  O     c     1.306151   -1.300365    3.838207    0.000000    0.077000
    36  O     c     1.306151    3.838207   -1.300365    0.000000    0.077000
    37  Zr    c     7.620381    2.544523   -0.006681    0.000000    2.650000
    38  Zr    c     7.620381   -0.006681    2.544523    0.000000    2.650000
    39  O     c     6.351982    3.801919   -1.264077    0.000000    0.077000
    40  O     c     6.351982   -1.264077    3.801919    0.000000    0.077000
    41  O     c     6.316085    3.807570    3.807570    0.000000    0.077000
    42  O     c     6.316085   -1.269728   -1.269728    0.000000    0.077000
    43  O     c    -0.979117    1.268921    1.268921    0.000000    0.077000
    44  O     c     3.784986    1.291430    6.402503    0.000000    0.077000
    45  O     c     3.784986    6.402503    1.291430    0.000000    0.077000
    46  O     c     3.784986   -3.864662    1.246412    0.000000    0.077000
    47  O     c     3.784986    1.246412   -3.864662    0.000000    0.077000
    48  O     c     8.809404    1.268921    1.268921    0.000000    0.077000
    49  Zr    c    -0.034108   -2.566090    2.568196    0.000000    2.650000
    50  Zr    c    -0.034108    5.103931   -0.030354    0.000000    2.650000
    51  Zr    c    -0.034108    2.568196   -2.566090    0.000000    2.650000
    52  Zr    c    -0.034108   -0.030354    5.103931    0.000000    2.650000
    53  Zr    c     2.551855   -2.560951    5.098793    0.000000    2.650000
    54  Zr    c     2.551855    5.098793   -2.560951    0.000000    2.650000
    55  O     c    -1.281941    1.291517    3.860314    0.000000    0.077000
    56  O     c    -1.281941    3.860314    1.291517    0.000000    0.077000
    57  O     c    -1.281941   -1.322473    1.246325    0.000000    0.077000
    58  O     c    -1.281941    1.246325   -1.322473    0.000000    0.077000
    59  Zr    c     5.099074    5.090807    5.090807    0.000000    2.650000
    60  Zr    c     5.099074   -2.552965   -2.552965    0.000000    2.650000
    61  O     c     1.264009   -3.492831    1.268933    0.000000    0.077000
    62  O     c     1.264009    1.268933   -3.492831    0.000000    0.077000
    63  O     c     1.264009    1.268909    6.030673    0.000000    0.077000
    64  O     c     1.264009    6.030673    1.268909    0.000000    0.077000
    65  Zr    c     7.626089    5.081803    2.539764    0.000000    2.650000
    66  Zr    c     7.626089    2.539764    5.081803    0.000000    2.650000
    67  Zr    c     7.626089   -0.001922   -2.543961    0.000000    2.650000
    68  Zr    c     7.626089   -2.543961   -0.001922    0.000000    2.650000
    69  O     c     3.795660   -3.813980    3.797792    0.000000    0.077000
    70  O     c     3.795660    3.797792   -3.813980    0.000000    0.077000
    71  O     c     3.795660   -1.259950    6.351822    0.000000    0.077000
    72  O     c     3.795660    6.351822   -1.259950    0.000000    0.077000
    73  O     c     3.814633    6.301098    3.811476    0.000000    0.077000
    74  O     c     3.814633    3.811476    6.301098    0.000000    0.077000
    75  O     c     3.814633   -1.273635   -3.763256    0.000000    0.077000
    76  O     c     3.814633   -3.763256   -1.273635    0.000000    0.077000
    77  O     c     6.327815    6.334075    1.262003    0.000000    0.077000
    78  O     c     6.327815    1.262003    6.334075    0.000000    0.077000
    79  O     c     6.327815    1.275838   -3.796233    0.000000    0.077000
    80  O     c     6.327815   -3.796233    1.275838    0.000000    0.077000
    81  O     c     8.894569    3.807924    1.265544    0.000000    0.077000
    82  O     c     8.894569    1.265544    3.807924    0.000000    0.077000
    83  O     c     8.894569    1.272298   -1.270082    0.000000    0.077000
    84  O     c     8.894569   -1.270082    1.272298    0.000000    0.077000
    85  O     c    -1.255196    3.786057   -1.248215    0.000000    0.077000
    86  O     c    -1.255196   -1.248215    3.786057    0.000000    0.077000
    87  O     c    -1.300575    3.815651    3.815651    0.000000    0.077000
    88  O     c    -1.300575   -1.277809   -1.277809    0.000000    0.077000
[...]
    334 y          1.268921      1.268921     0.000000    Cartesian    0.00
    334 z          1.268921      1.268921     0.000000    Cartesian    0.00
    335 x         -6.344605     -6.353662    -0.009057    Cartesian    0.14
    335 y         -1.268921     -1.267190     0.001731    Cartesian   -0.14
    335 z          1.268921      1.268164    -0.000757    Cartesian   -0.06
    336 x          0.000000      0.003396     0.003396    Cartesian    0.00
    336 y          5.075684      5.074622    -0.001062    Cartesian   -0.02
    336 z         10.151367     10.155540     0.004173    Cartesian    0.04
    337 x         -3.806763     -3.812129    -0.005367    Cartesian    0.14
    337 y          6.344605      6.343411    -0.001194    Cartesian   -0.02
    337 z          6.344605      6.343411    -0.001194    Cartesian   -0.02
    338 x         -3.806763     -3.804935     0.001828    Cartesian   -0.05
    338 y         -3.806763     -3.801384     0.005379    Cartesian   -0.14
    338 z          6.344605      6.339226    -0.005379    Cartesian   -0.08
    339 x         -1.268921     -1.268837     0.000084    Cartesian   -0.01
    339 y          8.882446      8.878803    -0.003643    Cartesian   -0.04
    339 z          6.344605      6.341285    -0.003320    Cartesian   -0.05
    340 x         -1.268921     -1.269948    -0.001027    Cartesian    0.08
    340 y         -6.344605     -6.349657    -0.005052    Cartesian    0.08
    340 z          6.344605      6.340872    -0.003732    Cartesian   -0.06
    341 x          1.268921      1.264320    -0.004601    Cartesian   -0.36
    341 y          1.268921      1.272583     0.003662    Cartesian    0.29
    341 z         11.420288     11.342539    -0.077750    Cartesian   -0.68
    342 x          7.613525      7.617500     0.003974    Cartesian    0.05
    342 y         -2.537842     -2.538194    -0.000352    Cartesian    0.01
    342 z         10.151367     10.155490     0.004122    Cartesian    0.04
    343 x          3.806763      3.801688    -0.005075    Cartesian   -0.13
    343 y         11.420288     11.422085     0.001797    Cartesian    0.02
    343 z         -1.268921     -1.266609     0.002312    Cartesian   -0.18
    344 x          3.806763      3.801209    -0.005554    Cartesian   -0.15
    344 y          3.806763      3.805152    -0.001611    Cartesian   -0.04
    344 z         11.420288     11.398894    -0.021395    Cartesian   -0.19
    345 x          6.344605      6.341845    -0.002759    Cartesian   -0.04
    345 y         11.420288     11.416102    -0.004186    Cartesian   -0.04
    345 z          1.268921      1.267469    -0.001452    Cartesian   -0.11
    346 x         12.689209     12.692129     0.002920    Cartesian    0.02
    346 y          5.075684      5.076611     0.000928    Cartesian    0.02
    346 z         -2.537842     -2.538769    -0.000928    Cartesian    0.04
    347 x          8.882446      8.880908    -0.001539    Cartesian   -0.02
    347 y         -3.806763     -3.803342     0.003421    Cartesian   -0.09
    347 z          8.882446      8.882109    -0.000337    Cartesian   -0.00
    348 x          8.882446      8.883767     0.001321    Cartesian    0.01
    348 y          8.882446      8.883223     0.000776    Cartesian    0.01
    348 z          6.344605      6.342686    -0.001918    Cartesian   -0.03
    349 x         11.420288     11.417086    -0.003202    Cartesian   -0.03
    349 y          6.344605      6.344441    -0.000164    Cartesian   -0.00
    349 z          6.344605      6.344441    -0.000164    Cartesian   -0.00
    350 x         11.420288     11.417189    -0.003100    Cartesian   -0.03
    350 y          6.344605      6.344352    -0.000252    Cartesian   -0.00
    350 z         -3.806763     -3.806510     0.000252    Cartesian   -0.01
    351 x         13.958130     13.961508     0.003378    Cartesian    0.02
    351 y          3.806763      3.807074     0.000311    Cartesian    0.01
    351 z          1.268921      1.267826    -0.001095    Cartesian   -0.09
    352 x         -6.344605     -6.345843    -0.001238    Cartesian    0.02
    352 y         -1.268921     -1.265562     0.003358    Cartesian   -0.26
    352 z         -1.268921     -1.265562     0.003358    Cartesian   -0.26
    353 x         -6.344605     -6.342257     0.002348    Cartesian   -0.04
    353 y         -1.268921     -1.266343     0.002577    Cartesian   -0.20
    353 z          3.806763      3.804185    -0.002577    Cartesian   -0.07
    354 x         -3.806763     -3.807774    -0.001012    Cartesian    0.03
    354 y          1.268921      1.265318    -0.003603    Cartesian   -0.28
    354 z          8.882446      8.873285    -0.009161    Cartesian   -0.10
    355 x          1.268921      1.271613     0.002692    Cartesian    0.21
    355 y          3.806763      3.802773    -0.003990    Cartesian   -0.10
    355 z         11.420288     11.436518     0.016230    Cartesian    0.14
    356 x          1.268921      1.264401    -0.004520    Cartesian   -0.36
    356 y         -1.268921     -1.265124     0.003797    Cartesian   -0.30
    356 z         11.420288     11.435533     0.015245    Cartesian    0.13
    357 x          3.806763      3.804690    -0.002073    Cartesian   -0.05
    357 y          8.882446      8.880381    -0.002066    Cartesian   -0.02
    357 z          8.882446      8.880381    -0.002066    Cartesian   -0.02
    358 x          3.806763      3.798755    -0.008008    Cartesian   -0.21
    358 y         -6.344605     -6.342249     0.002356    Cartesian   -0.04
    358 z          8.882446      8.880091    -0.002356    Cartesian   -0.03
    359 x          6.344605      6.339406    -0.005198    Cartesian   -0.08
    359 y         -1.268921     -1.267402     0.001519    Cartesian   -0.12
    359 z         11.420288     11.419335    -0.000954    Cartesian   -0.01
    360 x          6.344605      6.343496    -0.001109    Cartesian   -0.02
    360 y          3.806763      3.809413     0.002650    Cartesian    0.07
    360 z         11.420288     11.422032     0.001744    Cartesian    0.02
    361 x         -5.075684     -5.082309    -0.006625    Cartesian    0.13
    361 y          0.000000     -0.002123    -0.002123    Cartesian    0.00
    361 z         -5.075684     -5.083500    -0.007817    Cartesian    0.15
    362 x         11.420288     11.418554    -0.001734    Cartesian   -0.02
    362 y          8.882446      8.881770    -0.000676    Cartesian   -0.01
    362 z          1.268921      1.270431     0.001510    Cartesian    0.12
    363 x         -2.537842     -2.536747     0.001095    Cartesian   -0.04
    363 y         -7.613525     -7.621440    -0.007914    Cartesian    0.10
    363 z          0.000000      0.001354     0.001354    Cartesian    0.00
    364 x         -2.537842     -2.537782     0.000060    Cartesian   -0.00
    364 y         -5.075684     -5.081578    -0.005894    Cartesian    0.12
    364 z          7.613525      7.619420     0.005894    Cartesian    0.08
    365 x         13.958130     13.951282    -0.006848    Cartesian   -0.05
    365 y          3.806763      3.806416    -0.000347    Cartesian   -0.01
    365 z          3.806763      3.806416    -0.000347    Cartesian   -0.01
    366 x         13.958130     13.951912    -0.006218    Cartesian   -0.04
    366 y          3.806763      3.805319    -0.001444    Cartesian   -0.04
    366 z         -1.268921     -1.267477     0.001444    Cartesian   -0.11
    367 x         -3.806763     -3.809969    -0.003206    Cartesian    0.08
    367 y         -6.344605     -6.339714     0.004891    Cartesian   -0.08
    367 z         -1.268921     -1.268905     0.000016    Cartesian   -0.00
    368 x         -3.806763     -3.804620     0.002143    Cartesian   -0.06
    368 y         -6.344605     -6.345273    -0.000669    Cartesian    0.01
    368 z          3.806763      3.805013    -0.001749    Cartesian   -0.05
    369 x          2.537842      2.540406     0.002564    Cartesian    0.10
    369 y          7.613525      7.616885     0.003360    Cartesian    0.04
    369 z         10.151367     10.156461     0.005094    Cartesian    0.05
    370 x          5.075684      5.078191     0.002508    Cartesian    0.05
    370 y         -7.613525     -7.619741    -0.006215    Cartesian    0.08
    370 z          7.613525      7.617765     0.004240    Cartesian    0.06
    371 x          1.268921      1.269444     0.000523    Cartesian    0.04
    371 y         -6.344605     -6.343852     0.000752    Cartesian   -0.01
    371 z          8.882446      8.881694    -0.000752    Cartesian   -0.01
    372 x          1.268921      1.265746    -0.003175    Cartesian   -0.25
    372 y          8.882446      8.879481    -0.002966    Cartesian   -0.03
    372 z          8.882446      8.879481    -0.002966    Cartesian   -0.03
    373 x         10.151367     10.156981     0.005614    Cartesian    0.06
    373 y         -7.613525     -7.617943    -0.004418    Cartesian    0.06
    373 z          2.537842      2.537389    -0.000452    Cartesian   -0.02
    374 x         10.151367     10.157253     0.005886    Cartesian    0.06
    374 y          7.613525      7.615856     0.002330    Cartesian    0.03
    374 z          7.613525      7.615856     0.002330    Cartesian    0.03
    375 x          6.344605      6.338687    -0.005918    Cartesian   -0.09
    375 y         -6.344605     -6.344339     0.000265    Cartesian   -0.00
    375 z          8.882446      8.882181    -0.000265    Cartesian   -0.00
    376 x          6.344605      6.339143    -0.005462    Cartesian   -0.09
    376 y          8.882446      8.880713    -0.001733    Cartesian   -0.02
    376 z          8.882446      8.880713    -0.001733    Cartesian   -0.02
    377 x         12.689209     12.694216     0.005007    Cartesian    0.04
    377 y          0.000000     -0.000521    -0.000521    Cartesian    0.00
    377 z          7.613525      7.616412     0.002886    Cartesian    0.04
    378 x         11.420288     11.416763    -0.003525    Cartesian   -0.03
    378 y         -1.268921     -1.268545     0.000376    Cartesian   -0.03
    378 z          8.882446      8.880491    -0.001955    Cartesian   -0.02
    379 x         11.420288     11.416236    -0.004052    Cartesian   -0.04
    379 y          3.806763      3.804947    -0.001816    Cartesian   -0.05
    379 z          8.882446      8.881519    -0.000927    Cartesian   -0.01
    380 x         -6.344605     -6.338021     0.006583    Cartesian   -0.10
    380 y          1.268921      1.266923    -0.001998    Cartesian   -0.16
    380 z          6.344605      6.344608     0.000004    Cartesian    0.00
    381 x         -1.268921     -1.264592     0.004328    Cartesian   -0.34
    381 y          1.268921      1.263979    -0.004942    Cartesian   -0.39
    381 z         11.420288     11.434054     0.013766    Cartesian    0.12
    382 x          3.806763      3.804208    -0.002555    Cartesian   -0.07
    382 y         -3.806763     -3.803223     0.003540    Cartesian   -0.09
    382 z         11.420288     11.415971    -0.004318    Cartesian   -0.04
    383 x          3.806763      3.807250     0.000487    Cartesian    0.01
    383 y          6.344605      6.343632    -0.000973    Cartesian   -0.02
    383 z         11.420288     11.419217    -0.001072    Cartesian   -0.01
    384 x         -7.613525     -7.616368    -0.002843    Cartesian    0.04
    384 y         -0.000000     -0.006144    -0.006144    Cartesian *******
    384 z          2.537842      2.543986     0.006144    Cartesian    0.24
    385 x          8.882446      8.879275    -0.003171    Cartesian   -0.04
    385 y          1.268921      1.270664     0.001743    Cartesian    0.14
    385 z         11.420288     11.416007    -0.004281    Cartesian   -0.04
    386 x         -5.075684     -5.083322    -0.007638    Cartesian    0.15
    386 y         -5.075684     -5.082589    -0.006906    Cartesian    0.14
    386 z          5.075684      5.078456     0.002772    Cartesian    0.05
    387 x         -2.537842     -2.543734    -0.005892    Cartesian    0.23
    387 y         -7.613525     -7.619402    -0.005877    Cartesian    0.08
    387 z          5.075684      5.081848     0.006164    Cartesian    0.12
    388 x         13.958130     13.948858    -0.009272    Cartesian   -0.07
    388 y          6.344605      6.343846    -0.000759    Cartesian   -0.01
    388 z          1.268921      1.269519     0.000598    Cartesian    0.05
    389 x         -6.344605     -6.337825     0.006780    Cartesian   -0.11
    389 y         -1.268921     -1.271157    -0.002236    Cartesian    0.18
    389 z         -3.806763     -3.806681     0.000082    Cartesian   -0.00
    390 x         -6.344605     -6.341250     0.003355    Cartesian   -0.05
    390 y          3.806763      3.803671    -0.003092    Cartesian   -0.08
    390 z         -3.806763     -3.801652     0.005110    Cartesian   -0.13
    391 x          0.000000     -0.001474    -0.001474    Cartesian    0.00
    391 y         -7.613525     -7.620686    -0.007160    Cartesian    0.09
    391 z          7.613525      7.618241     0.004716    Cartesian    0.06
    392 x          2.537842      2.544459     0.006617    Cartesian    0.26
    392 y         -0.000000     -0.007590    -0.007590    Cartesian *******
    392 z         12.689209     12.696314     0.007105    Cartesian    0.06
    393 x         -1.268921     -1.267277     0.001644    Cartesian   -0.13
    393 y          3.806763      3.806610    -0.000153    Cartesian   -0.00
    393 z         -8.882446     -8.860366     0.022080    Cartesian   -0.25
    394 x         -1.268921     -1.267612     0.001309    Cartesian   -0.10
    394 y          3.806763      3.802997    -0.003766    Cartesian   -0.10
    394 z         11.420288     11.405764    -0.014524    Cartesian   -0.13
    395 x          5.075684      5.077207     0.001523    Cartesian    0.03
    395 y          2.537842      2.536492    -0.001350    Cartesian   -0.05
    395 z         12.689209     12.699977     0.010768    Cartesian    0.08
    396 x          1.268921      1.268641    -0.000280    Cartesian   -0.02
    396 y         -8.882446     -8.871078     0.011369    Cartesian   -0.13
    396 z          6.344605      6.342956    -0.001648    Cartesian   -0.03
    397 x          1.268921      1.270086     0.001165    Cartesian    0.09
    397 y          6.344605      6.341043    -0.003562    Cartesian   -0.06
    397 z         11.420288     11.406328    -0.013961    Cartesian   -0.12
    398 x          7.613525      7.618573     0.005048    Cartesian    0.07
    398 y         10.151367     10.156680     0.005313    Cartesian    0.05
    398 z          7.613525      7.618728     0.005203    Cartesian    0.07
    399 x         10.151367     10.158021     0.006654    Cartesian    0.07
    399 y         10.151367     10.157178     0.005811    Cartesian    0.06
    399 z          5.075684      5.079168     0.003484    Cartesian    0.07
    400 x          6.344605      6.341736    -0.002869    Cartesian   -0.05
    400 y         -3.806763     -3.805827     0.000935    Cartesian   -0.02
    400 z         11.420288     11.412606    -0.007683    Cartesian   -0.07
    401 x          6.344605      6.341394    -0.003211    Cartesian   -0.05
    401 y         11.420288     11.410517    -0.009771    Cartesian   -0.09
    401 z          6.344605      6.341118    -0.003487    Cartesian   -0.05
    402 x         12.689209     12.696857     0.007648    Cartesian    0.06
    402 y          5.075684      5.077599     0.001915    Cartesian    0.04
    402 z          7.613525      7.617200     0.003675    Cartesian    0.05
    403 x          8.882446      8.878818    -0.003628    Cartesian   -0.04
    403 y         -8.882446     -8.874398     0.008049    Cartesian   -0.09
    403 z         -1.268921     -1.266098     0.002823    Cartesian   -0.22
    404 x          8.882446      8.877335    -0.005111    Cartesian   -0.06
    404 y         -1.268921     -1.268269     0.000652    Cartesian   -0.05
    404 z         11.420288     11.412583    -0.007705    Cartesian   -0.07
    405 x         15.227051     15.235977     0.008926    Cartesian    0.06
    405 y          2.537842      2.539713     0.001871    Cartesian    0.07
    405 z          2.537842      2.539713     0.001871    Cartesian    0.07
    406 x         13.958130     13.953630    -0.004499    Cartesian   -0.03
    406 y          6.344605      6.342068    -0.002536    Cartesian   -0.04
    406 z          3.806763      3.805527    -0.001236    Cartesian   -0.03
    407 x         13.958130     13.949839    -0.008291    Cartesian   -0.06
    407 y          3.806763      3.804414    -0.002349    Cartesian   -0.06
    407 z         -3.806763     -3.804084     0.002679    Cartesian   -0.07
    408 x         -3.806763     -3.797839     0.008923    Cartesian   -0.23
    408 y          6.344605      6.338231    -0.006373    Cartesian   -0.10
    408 z          8.882446      8.874008    -0.008438    Cartesian   -0.10
    409 x         -3.806763     -3.806667     0.000096    Cartesian   -0.00
    409 y         -6.344605     -6.342466     0.002139    Cartesian   -0.03
    409 z          6.344605      6.342667    -0.001938    Cartesian   -0.03
    410 x         -1.268921     -1.270231    -0.001310    Cartesian    0.10
    410 y          8.882446      8.878514    -0.003932    Cartesian   -0.04
    410 z         -6.344605     -6.340672     0.003932    Cartesian   -0.06
    411 x         -1.268921     -1.263886     0.005035    Cartesian   -0.40
    411 y          8.882446      8.873483    -0.008963    Cartesian   -0.10
    411 z          8.882446      8.873483    -0.008963    Cartesian   -0.10
    412 x         -7.613525     -7.624392    -0.010867    Cartesian    0.14
    412 y          2.537842      2.538175     0.000333    Cartesian    0.01
    412 z          5.075684      5.077035     0.001351    Cartesian    0.03
    413 x          8.882446      8.878223    -0.004223    Cartesian   -0.05
    413 y          8.882446      8.881400    -0.001046    Cartesian   -0.01
    413 z          8.882446      8.881400    -0.001046    Cartesian   -0.01
    414 x          8.882446      8.873198    -0.009248    Cartesian   -0.10
    414 y         -6.344605     -6.335751     0.008854    Cartesian   -0.14
    414 z          8.882446      8.873593    -0.008854    Cartesian   -0.10
--------------------------------------------------------------------------------


  Time to end of optimisation  =      115.9618 seconds


  Peak dynamic memory used =     412.15 MB 


  Timing analysis for GULP :

--------------------------------------------------------------------------------
  Task / Subroutine                                          Time (Seconds)
--------------------------------------------------------------------------------
  Calculation of reciprocal space energy and derivatives          0.0002
  Calculation of reciprocal space energy using symmetry           0.0002
  Calculation of real space energy and derivatives                0.0021
  Calculation of real space energy using symmetry                 0.0071
  Calculation for region 1 energy and derivatives (2-b)          29.3585
  Calculation for region 2a energy                               73.7361
  Calculation for region 2b energy                                0.0103
  Calculation and manipulation of Hessian matrix                 11.5499
  Calculation of matrix inversion                                 0.8707
  Symmetry generation of equivalent positions                     0.0015
--------------------------------------------------------------------------------
  Total CPU time                                                115.9619
--------------------------------------------------------------------------------


  Dump file written as ZrO2.grs


  Job Finished at 13:15.47 14th October    2020                               

