********************************************************************************
*                       GENERAL UTILITY LATTICE PROGRAM                        *
*                                 Julian Gale                                  *
*                       Curtin Institute for Computation                       *
*                    School of Molecular and Life Sciences                     *
*                    Curtin University, Western Australia                      *
********************************************************************************
* Version = 5.2.0 * Last modified =  10th September 2020                       *
********************************************************************************
* Zirconia doped with calcium                                                  *
*  optimise     - perform optimisation run                                     *
*  conp         - constant pressure calculation                                *
*  property     - calculate properties for final geometry                      *
*  defect       - perform defect calculation after bulk run                    *
*  distance     - calculate distances                                          *
*  compare      - compare initial and final structures                         *
********************************************************************************
* Zirconia doped with calcium                                                  *
********************************************************************************


  Job Started  at 11:58.14 14th October    2020                               

  Number of CPUs =     1


  Total number of configurations input =      1

********************************************************************************
*  Input for Configuration =   1 : ZrO2                                        *
********************************************************************************

  Formula = ZrO2                                                        

  Number of irreducible atoms/shells =       4


  Total number atoms/shells =       6

  Dimensionality = 3               :  Bulk   


  Symmetry :

  Crystal family                   :  Cubic       
  Crystal class  (Groth - 1921)    :  Cubic Hexakisoctahedral              

  Space group (centrosymmetric)    :  F M 3 M         

  Patterson group                  :  F m -3 m 

  Cartesian lattice vectors (Angstroms) :

        0.000000    2.535000    2.535000
        2.535000    0.000000    2.535000
        2.535000    2.535000    0.000000

  Primitive cell parameters :            Full cell parameters :

  a =   3.5850    alpha =  60.0000       a =   5.0700    alpha =  90.0000
  b =   3.5850    beta  =  60.0000       b =   5.0700    beta  =  90.0000
  c =   3.5850    gamma =  60.0000       c =   5.0700    gamma =  90.0000

  Initial volumes (Angstroms**3):

  Primitive cell =          32.580961    Full cell =         130.323843

  Temperature of configuration =   0.00     K 

  Pressure of configuration =         0.000 GPa 

  Fractional coordinates of asymmetric unit :

--------------------------------------------------------------------------------
   No.  Atomic       x           y          z         Charge      Occupancy
        Label      (Frac)      (Frac)     (Frac)        (e)         (Frac)  
--------------------------------------------------------------------------------
      1 Zr    c    0.000000    0.000000    0.000000     2.65000    1.000000    
      2 O     c    0.250000    0.250000    0.250000     0.07700    1.000000    
      3 Zr    s    0.000000    0.000000    0.000000     1.35000    1.000000    
      4 O     s    0.250000    0.250000    0.250000    -2.07700    1.000000    
--------------------------------------------------------------------------------


  Constraints : 

--------------------------------------------------------------------------------
  Constraint no.      Unconstrained     Constrained    Coefficient    Offset
                         Variable         Variable
--------------------------------------------------------------------------------
           1              Strain 1        Strain 2       1.00000      0.0000
           2              Strain 1        Strain 3       1.00000      0.0000
--------------------------------------------------------------------------------


  Distance calculation :


  Cutoff for distances  =      4.000000 Angstroms

--------------------------------------------------------------------------------
  Asymmetric unit site  Full lattice sites    No.  Distance      No.  Distance
      No.   At.No.            At.No.                (Angs)             (Angs) 
--------------------------------------------------------------------------------
       1   Zr    core        Zr    core        12    3.5850
                             Zr    shell       12    3.5850
                             O     core         8    2.1954
                             O     shell        8    2.1954
--------------------------------------------------------------------------------
       2   O     core        Zr    core         4    2.1954
                             Zr    shell        4    2.1954
                             O     core         6    2.5350       12    3.5850
                             O     shell        6    2.5350       12    3.5850
--------------------------------------------------------------------------------
       3   Zr    shell       Zr    core        12    3.5850
                             Zr    shell       12    3.5850
                             O     core         8    2.1954
                             O     shell        8    2.1954
--------------------------------------------------------------------------------
       4   O     shell       Zr    core         4    2.1954
                             Zr    shell        4    2.1954
                             O     core         6    2.5350       12    3.5850
                             O     shell        6    2.5350       12    3.5850
--------------------------------------------------------------------------------



********************************************************************************
*  General input information                                                   *
********************************************************************************

  Species output for all configurations : 

--------------------------------------------------------------------------------
  Species    Type    Atomic    Atomic    Charge       Radii (Angs)     Library
                     Number     Mass       (e)     Cova   Ionic  VDW   Symbol
--------------------------------------------------------------------------------
    Zr       Core       40      91.22   2.650000   1.560  0.000  2.330          
    Zr       Shell      40       0.00   1.350000   1.560  0.000  2.330          
    O        Core        8      16.00   0.077000   0.730  0.000  1.360          
    O        Shell       8       0.00  -2.077000   0.730  0.000  1.360          
--------------------------------------------------------------------------------


  Lattice summation method               =    Ewald          (3-D)
                                         =    Parry          (2-D)
                                         =    Saunders et al (1-D)
  Accuracy factor for lattice sums       =   12.000


  Analytic derivatives to be used

  Time limit = Infinity

  Maximum range for interatomic potentials =    100000.000000 Angstroms

  General interatomic potentials :

--------------------------------------------------------------------------------
Atom  Types   Potential      Parameter       Value         Units   Cutoffs(Ang)
  1     2                                                            Min /  Max 
--------------------------------------------------------------------------------
O    s Zr   s Buckingham    Buckingham A     985.86900    eV        0.000 12.000
                            Buckingham rho  0.37600000    Ang       
                            Buckingham C     0.0000000    eV*Ang^6  
--------------------------------------------------------------------------------
O    s O    s Buckingham    Buckingham A     22764.300    eV        0.000 12.000
                            Buckingham rho  0.14900000    Ang       
                            Buckingham C     27.890000    eV*Ang^6  
--------------------------------------------------------------------------------
Zr   c Zr   s Spring (c-s)  Spring k 2       169.61700    eV*Ang^-2 0.000  0.800
                            Spring k 4       0.0000000    eV*Ang^-4 
--------------------------------------------------------------------------------
O    c O    s Spring (c-s)  Spring k 2       27.290000    eV*Ang^-2 0.000  0.800
                            Spring k 4       0.0000000    eV*Ang^-4 
--------------------------------------------------------------------------------

********************************************************************************
*  Output for configuration   1 : ZrO2                                         *
********************************************************************************


  Components of energy : 

--------------------------------------------------------------------------------
  Interatomic potentials     =          22.43756329 eV    
  Monopole - monopole (real) =         -15.67991073 eV    
  Monopole - monopole (recip)=        -116.52038266 eV    
  Monopole - monopole (total)=        -132.20029339 eV    
--------------------------------------------------------------------------------
  Total lattice energy : 
    Primitive unit cell      =        -109.76273010 eV    
    Non-primitive unit cell  =        -439.05092039 eV    
--------------------------------------------------------------------------------
  Total lattice energy (in kJmol-1): 
    Primitive unit cell      =          -10590.4256 kJ/(mole unit cells)
    Non-primitive unit cell  =          -42361.7023 kJ/(mole unit cells)
--------------------------------------------------------------------------------


  Number of variables =        1

  Maximum number of calculations  =          1000
  Maximum Hessian update interval =            10
  Maximum step size               =   1.000000000
  Maximum parameter tolerance     =   0.000010000
  Maximum function  tolerance     =   0.000010000
  Maximum gradient  tolerance     =   0.001000000
  Maximum gradient  component     =   0.010000000

  Symmetry constrained optimisation

  Symmetry used for second derivatives

  Cell parameters to be optimised using strains

  Newton-Raphson optimiser to be used

  BFGS hessian update to be used

  Lower half triangular hessian to be used

  Start of bulk optimisation :

  Cycle:      0 Energy:      -109.762730  Gnorm:      0.588311  CPU:    0.006
  ** Hessian calculated **
  Cycle:      1 Energy:      -109.763059  Gnorm:      0.000316  CPU:    0.009


  **** Optimisation achieved ****


  Final energy =    -109.76305939 eV
  Final Gnorm  =       0.00000099

  Components of energy : 

--------------------------------------------------------------------------------
  Interatomic potentials     =          22.28919976 eV    
  Monopole - monopole (real) =         -15.66235280 eV    
  Monopole - monopole (recip)=        -116.38990634 eV    
  Monopole - monopole (total)=        -132.05225914 eV    
--------------------------------------------------------------------------------
  Total lattice energy : 
    Primitive unit cell      =        -109.76305939 eV    
    Non-primitive unit cell  =        -439.05223754 eV    
--------------------------------------------------------------------------------
  Total lattice energy (in kJmol-1): 
    Primitive unit cell      =          -10590.4573 kJ/(mole unit cells)
    Non-primitive unit cell  =          -42361.8294 kJ/(mole unit cells)
--------------------------------------------------------------------------------

  Final asymmetric unit coordinates :

--------------------------------------------------------------------------------
   No.  Atomic        x           y           z         Radius
        Label       (Frac)      (Frac)      (Frac)       (Angs) 
--------------------------------------------------------------------------------
     1  Zr    c     0.000000    0.000000    0.000000    0.000000
     2  O     c     0.250000    0.250000    0.250000    0.000000
     3  Zr    s     0.000000    0.000000    0.000000    0.000000
     4  O     s     0.250000    0.250000    0.250000    0.000000
--------------------------------------------------------------------------------

  Final Cartesian lattice vectors (Angstroms) :

        0.000000    2.537842    2.537842
        2.537842    0.000000    2.537842
        2.537842    2.537842    0.000000


  Final cell parameters and derivatives :

--------------------------------------------------------------------------------
       a            3.589050 Angstrom     dE/de1(xx)    -0.000001 eV/strain
       b            3.589050 Angstrom     dE/de2(yy)     0.000000 eV/strain
       c            3.589050 Angstrom     dE/de3(zz)     0.000000 eV/strain
       alpha       60.000000 Degrees      dE/de4(yz)     0.000000 eV/strain
       beta        60.000000 Degrees      dE/de5(xz)     0.000000 eV/strain
       gamma       60.000000 Degrees      dE/de6(xy)     0.000000 eV/strain
--------------------------------------------------------------------------------

  Primitive cell volume =            32.690656 Angs**3

  Density of cell =      6.259124 g/cm**3

  Non-primitive lattice parameters :

  a    =     5.075684  b   =     5.075684  c    =     5.075684
  alpha=    90.000000  beta=    90.000000  gamma=    90.000000

  Non-primitive cell volume =           130.762624 Angs**3


  Final internal derivatives :

--------------------------------------------------------------------------------
   No.  Atomic          a             b             c           Radius
        Label          (eV)          (eV)          (eV)        (eV/Angs)
--------------------------------------------------------------------------------
      1 Zr    c       0.000000      0.000000      0.000000      0.000000
      2 O     c       0.000000      0.000000      0.000000      0.000000
      3 Zr    s       0.000000      0.000000      0.000000      0.000000
      4 O     s       0.000000      0.000000      0.000000      0.000000
--------------------------------------------------------------------------------
  Maximum abs         0.000000      0.000000      0.000000      0.000000
--------------------------------------------------------------------------------

  Comparison of initial and final structures : 

--------------------------------------------------------------------------------
  Parameter   Initial value   Final value   Difference    Units      Percent
--------------------------------------------------------------------------------
    Volume       130.323843    130.762624     0.438781    Angs**3      0.34
    a              5.070000      5.075684     0.005684    Angstroms    0.11
    b              5.070000      5.075684     0.005684    Angstroms    0.11
    c              5.070000      5.075684     0.005684    Angstroms    0.11
    alpha         90.000000     90.000000     0.000000    Degrees      0.00
    beta          90.000000     90.000000     0.000000    Degrees      0.00
    gamma         90.000000     90.000000     0.000000    Degrees      0.00
      1 x          0.000000      0.000000     0.000000    Fractional   0.00
      1 y          0.000000      0.000000     0.000000    Fractional   0.00
      1 z          0.000000      0.000000     0.000000    Fractional   0.00
      2 x          0.250000      0.250000     0.000000    Fractional   0.00
      2 y          0.250000      0.250000     0.000000    Fractional   0.00
      2 z          0.250000      0.250000     0.000000    Fractional   0.00
      3 x          0.000000      0.000000     0.000000    Fractional   0.00
      3 y          0.000000      0.000000     0.000000    Fractional   0.00
      3 z          0.000000      0.000000     0.000000    Fractional   0.00
      4 x          0.250000      0.250000     0.000000    Fractional   0.00
      4 y          0.250000      0.250000     0.000000    Fractional   0.00
      4 z          0.250000      0.250000     0.000000    Fractional   0.00
--------------------------------------------------------------------------------


  Distance calculation :


  Cutoff for distances  =      4.000000 Angstroms

--------------------------------------------------------------------------------
  Asymmetric unit site  Full lattice sites    No.  Distance      No.  Distance
      No.   At.No.            At.No.                (Angs)             (Angs) 
--------------------------------------------------------------------------------
       1   Zr    core        Zr    core        12    3.5891
                             Zr    shell       12    3.5891
                             O     core         8    2.1978
                             O     shell        8    2.1978
--------------------------------------------------------------------------------
       2   O     core        Zr    core         4    2.1978
                             Zr    shell        4    2.1978
                             O     core         6    2.5378       12    3.5891
                             O     shell        6    2.5378       12    3.5891
--------------------------------------------------------------------------------
       3   Zr    shell       Zr    core        12    3.5891
                             Zr    shell       12    3.5891
                             O     core         8    2.1978
                             O     shell        8    2.1978
--------------------------------------------------------------------------------
       4   O     shell       Zr    core         4    2.1978
                             Zr    shell        4    2.1978
                             O     core         6    2.5378       12    3.5891
                             O     shell        6    2.5378       12    3.5891
--------------------------------------------------------------------------------



  Born effective charge tensors : 

-------------------------------------------------------------------------------
  Atom             x           y             z
-------------------------------------------------------------------------------
    1 Zr    x       3.6770      0.0000      0.0000
            y       0.0000      3.6770      0.0000
            z       0.0000      0.0000      3.6770
-------------------------------------------------------------------------------
    2 O     x      -1.8385      0.0000      0.0000
            y       0.0000     -1.8385     -0.0000
            z       0.0000     -0.0000     -1.8385
-------------------------------------------------------------------------------




  Elastic Constant Matrix: (Units=GPa)

-------------------------------------------------------------------------------
  Indices      1         2         3         4         5         6    
-------------------------------------------------------------------------------
       1    616.2933  119.6612  119.6612   -0.0000   -0.0000   -0.0000
       2    119.6612  616.2933  119.6612   -0.0000   -0.0000   -0.0000
       3    119.6612  119.6612  616.2933   -0.0000   -0.0000   -0.0000
       4     -0.0000   -0.0000   -0.0000  100.8598    0.0000   -0.0000
       5     -0.0000   -0.0000   -0.0000    0.0000  100.8598    0.0000
       6     -0.0000   -0.0000   -0.0000   -0.0000    0.0000  100.8598
-------------------------------------------------------------------------------


  Elastic Compliance Matrix: (Units=1/GPa)

-------------------------------------------------------------------------------
  Indices      1         2         3         4         5         6    
-------------------------------------------------------------------------------
       1    0.001732 -0.000282 -0.000282  0.000000  0.000000  0.000000
       2   -0.000282  0.001732 -0.000282 -0.000000  0.000000  0.000000
       3   -0.000282 -0.000282  0.001732  0.000000  0.000000  0.000000
       4    0.000000 -0.000000  0.000000  0.009915 -0.000000  0.000000
       5    0.000000  0.000000  0.000000 -0.000000  0.009915 -0.000000
       6    0.000000  0.000000  0.000000  0.000000 -0.000000  0.009915
-------------------------------------------------------------------------------

  Mechanical properties :

-------------------------------------------------------------------------------
  Convention :                    Reuss         Voigt         Hill
-------------------------------------------------------------------------------
  Bulk  Modulus (GPa)     =     285.20524     285.20524     285.20524
  Shear Modulus (GPa)     =     132.28031     159.84228     146.06129
-------------------------------------------------------------------------------
  Velocity S-wave (km/s)  =       4.59717       5.05346       4.83071
  Velocity P-wave (km/s)  =       8.58749       8.92280       8.75675
-------------------------------------------------------------------------------
  Compressibility (1/GPa) =    0.00350625
-------------------------------------------------------------------------------
  Stress axis :                     x             y             z
-------------------------------------------------------------------------------
  Youngs Moduli (GPa)     =     577.38110     577.38110     577.38110
-------------------------------------------------------------------------------
  Poissons Ratio (x)      =                     0.16259       0.16259
  Poissons Ratio (y)      =       0.16259                     0.16259
  Poissons Ratio (z)      =       0.16259       0.16259
-------------------------------------------------------------------------------


  Piezoelectric Strain Matrix: (Units=C/m**2)

-------------------------------------------------------------------------------
  Indices      1         2         3         4         5         6    
-------------------------------------------------------------------------------
       x    -0.00000   0.00000   0.00000   0.00000   0.00000   0.00000
       y    -0.00000  -0.00000  -0.00000   0.00000   0.00000   0.00000
       z    -0.00000  -0.00000  -0.00000   0.00000   0.00000   0.00000
-------------------------------------------------------------------------------


  Piezoelectric Stress Matrix: (Units=10**-11 C/N)

-------------------------------------------------------------------------------
  Indices      1         2         3         4         5         6    
-------------------------------------------------------------------------------
       x    -0.00000   0.00000   0.00000   0.00000   0.00000   0.00000
       y    -0.00000  -0.00000  -0.00000   0.00000   0.00000   0.00000
       z     0.00000   0.00000  -0.00000   0.00000   0.00000   0.00000
-------------------------------------------------------------------------------


  Static dielectric constant tensor : 

-------------------------------------------------------------------------------
              x         y         z
-------------------------------------------------------------------------------
       x    26.88485   0.00000   0.00000
       y     0.00000  26.88485   0.00000
       z     0.00000   0.00000  26.88485
--------------------------------------------------------------------------------

  High frequency dielectric constant tensor : 

-------------------------------------------------------------------------------
              x         y         z
-------------------------------------------------------------------------------
       x     2.63099   0.00000   0.00000
       y     0.00000   2.63099   0.00000
       z     0.00000   0.00000   2.63099
-------------------------------------------------------------------------------

  Static refractive indices : 

-------------------------------------------------------------------------------
    1 =    5.18506      2 =    5.18506      3 =    5.18506
-------------------------------------------------------------------------------

  High frequency refractive indices : 

-------------------------------------------------------------------------------
    1 =    1.62203      2 =    1.62203      3 =    1.62203
-------------------------------------------------------------------------------


  Time to end of optimisation =       0.0143 seconds

********************************************************************************
*  Defect calculation for configuration   1 :                                  *
********************************************************************************

  Total number of defects =      3

  Total charge on defect  =   2.00

  Defect centre is at   0.3000   0.2500   0.2500  Frac

  Region 1 radius =  12.0000      Number of ions =   1336

  Number of symmetry inequivalent region 1 ions  =    410

  Region 2 radius =  24.0000      Number of ions =   9336

  Number of symmetry inequivalent region 2a ions =   2566

  Region 2a mode = 4 : screened electrostatics due to region 1 
                       neglect correction to region 1 forces from 2a
                       region 2a displacements based on defects only

  Region 2a ions will only interact with defects in region 1

  Vacancies:

--------------------------------------------------------------------------------
    Specification type     Symbol/Number         x          y          z
--------------------------------------------------------------------------------
    Fractional                               0.250000   0.250000   0.250000
    Fractional                               0.750000   0.250000   0.250000
--------------------------------------------------------------------------------

  Interstitials:

--------------------------------------------------------------------------------
    Specification type     Symbol/Number         x          y          z
--------------------------------------------------------------------------------
    Atom/Fractional         O                0.300000   0.250000   0.250000
--------------------------------------------------------------------------------


  Symmetry reduced region 1 (Relative to defect centre) :

--------------------------------------------------------------------------------
   No.   Atomic       x            y             z       Radius  Multiplicity   
         Label      (Angs)       (Angs)        (Angs)    (Angs)     
--------------------------------------------------------------------------------
     1  O     c      0.0000       0.0000       0.0000    0.0000     1    Defect
     2  Zr    c      1.0151 *     1.2689 *    -1.2689    0.0000     2          
     3  Zr    c     -1.5227 *    -1.2689 *    -1.2689    0.0000     2          
     4  O     c     -0.2538 *     2.5378 *    -0.0000 *  0.0000     4          
     5  O     c     -2.7916 *    -0.0000      -0.0000    0.0000     1          
     6  O     c      2.2841 *     2.5378 *     0.0000 *  0.0000     4          
     7  O     c     -0.2538 *     2.5378 *     2.5378    0.0000     2          
     8  O     c     -0.2538 *    -2.5378 *     2.5378    0.0000     2          
     9  O     c     -2.7916 *     0.0000 *     2.5378 *  0.0000     4          
    10  Zr    c      3.5530 *     1.2689 *     1.2689    0.0000     2          
    11  Zr    c      1.0151 *     1.2689 *     3.8068 *  0.0000     4          
    12  O     c      2.2841 *     2.5378 *     2.5378    0.0000     2          
    13  O     c      2.2841 *     2.5378 *    -2.5378    0.0000     2          
    14  Zr    c     -1.5227 *    -3.8068 *     1.2689 *  0.0000     4          
    15  Zr    c     -4.0605 *    -1.2689 *     1.2689    0.0000     2          
    16  O     c     -2.7916 *     2.5378 *    -2.5378    0.0000     2          
    17  O     c     -2.7916 *     2.5378 *     2.5378    0.0000     2          
    18  O     c      4.8219 *     0.0000       0.0000    0.0000     1          
    19  O     c     -0.2538 *    -5.0757 *     0.0000 *  0.0000     4          
    20  O     c     -5.3295 *     0.0000       0.0000    0.0000     1          
    21  Zr    c      3.5530 *    -1.2689 *     3.8068 *  0.0000     4          
    22  O     c      4.8219 *     2.5378 *    -0.0000 *  0.0000     4          
    23  Zr    c      1.0151 *    -3.8068 *     3.8068    0.0000     2          
    24  O     c      2.2841 *     5.0757 *    -0.0000 *  0.0000     4          
    25  Zr    c     -1.5227 *     3.8068 *     3.8068    0.0000     2          
    26  O     c     -0.2538 *     5.0757 *     2.5378 *  0.0000     4          
    27  O     c     -0.2538 *    -2.5378 *     5.0757 *  0.0000     4          
    28  Zr    c     -4.0605 *     3.8068 *     1.2689 *  0.0000     4          
    29  O     c     -2.7916 *    -0.0000 *     5.0757 *  0.0000     4          
    30  O     c     -5.3295 *    -0.0000 *     2.5378 *  0.0000     4          
    31  O     c      4.8219 *     2.5378 *    -2.5378    0.0000     2          
    32  O     c      4.8219 *     2.5378 *     2.5378    0.0000     2          
    33  O     c      2.2841 *    -5.0757 *     2.5378 *  0.0000     4          
    34  O     c      2.2841 *     5.0757 *     2.5378 *  0.0000     4          
    35  O     c     -2.7916 *     5.0757 *     2.5378 *  0.0000     4          
    36  O     c     -2.7916 *    -5.0757 *     2.5378 *  0.0000     4          
    37  Zr    c      6.0908 *     1.2689 *    -1.2689    0.0000     2          
    38  O     c     -5.3295 *     2.5378 *     2.5378    0.0000     2          
    39  O     c     -5.3295 *    -2.5378 *     2.5378    0.0000     2          
    40  Zr    c      3.5530 *     3.8068 *     3.8068    0.0000     2          
    41  Zr    c      1.0151 *    -1.2689 *     6.3446 *  0.0000     4          
    42  Zr    c     -1.5227 *     6.3446 *     1.2689 *  0.0000     4          
    43  Zr    c     -4.0605 *     3.8068 *    -3.8068    0.0000     2          
    44  Zr    c     -6.5984 *     1.2689 *     1.2689    0.0000     2          
    45  O     c      4.8219 *     5.0757 *     0.0000 *  0.0000     4          
    46  O     c     -0.2538 *    -5.0757 *     5.0757    0.0000     2          
    47  O     c     -0.2538 *     5.0757 *     5.0757    0.0000     2          
    48  Zr    c      6.0908 *    -1.2689 *    -3.8068 *  0.0000     4          
    49  O     c      7.3597 *    -0.0000      -0.0000    0.0000     1          
    50  O     c     -5.3295 *     5.0757 *     0.0000 *  0.0000     4          
    51  Zr    c      3.5530 *    -6.3446 *    -1.2689 *  0.0000     4          
    52  O     c      4.8219 *     5.0757 *     2.5378 *  0.0000     4          
    53  O     c      4.8219 *     5.0757 *    -2.5378 *  0.0000     4          
    54  Zr    c      1.0151 *     3.8068 *     6.3446 *  0.0000     4          
    55  O     c      2.2841 *     5.0757 *     5.0757    0.0000     2          
    56  O     c      2.2841 *     5.0757 *    -5.0757    0.0000     2          
    57  Zr    c     -1.5227 *    -6.3446 *     3.8068 *  0.0000     4          
    58  O     c     -0.2538 *    -0.0000 *     7.6135 *  0.0000     4          
    59  Zr    c     -4.0605 *     1.2689 *    -6.3446 *  0.0000     4          
    60  O     c     -2.7916 *     5.0757 *     5.0757    0.0000     2          
    61  O     c     -2.7916 *    -5.0757 *     5.0757    0.0000     2          
    62  Zr    c     -6.5984 *     1.2689 *    -3.8068 *  0.0000     4          
    63  O     c      7.3597 *     2.5378 *     0.0000 *  0.0000     4          
    64  O     c     -5.3295 *     2.5378 *     5.0757 *  0.0000     4          
    65  O     c     -5.3295 *    -2.5378 *     5.0757 *  0.0000     4          
    66  O     c     -7.8673 *    -0.0000      -0.0000    0.0000     1          
    67  O     c      2.2841 *     0.0000 *     7.6135 *  0.0000     4          
    68  O     c     -0.2538 *     2.5378 *     7.6135 *  0.0000     4          
    69  O     c     -0.2538 *    -7.6135 *     2.5378 *  0.0000     4          
    70  O     c     -2.7916 *    -7.6135 *     0.0000 *  0.0000     4          
    71  Zr    c      6.0908 *     3.8068 *    -3.8068    0.0000     2          
    72  O     c      7.3597 *     2.5378 *    -2.5378    0.0000     2          
    73  O     c      7.3597 *     2.5378 *     2.5378    0.0000     2          
    74  Zr    c      3.5530 *    -3.8068 *     6.3446 *  0.0000     4          
    75  O     c     -7.8673 *    -0.0000 *     2.5378 *  0.0000     4          
    76  O     c      2.2841 *    -2.5378 *     7.6135 *  0.0000     4          
    77  O     c      2.2841 *     7.6135 *     2.5378 *  0.0000     4          
    78  Zr    c     -4.0605 *     3.8068 *     6.3446 *  0.0000     4          
    79  O     c     -2.7916 *    -2.5378 *     7.6135 *  0.0000     4          
    80  O     c     -2.7916 *     2.5378 *     7.6135 *  0.0000     4          
    81  Zr    c     -6.5984 *     3.8068 *     3.8068    0.0000     2          
    82  O     c      4.8219 *    -5.0757 *     5.0757    0.0000     2          
    83  O     c      4.8219 *     5.0757 *     5.0757    0.0000     2          
    84  O     c     -7.8673 *     2.5378 *    -2.5378    0.0000     2          
    85  O     c     -7.8673 *     2.5378 *     2.5378    0.0000     2          
    86  Zr    c      8.6287 *     1.2689 *     1.2689    0.0000     2          
    87  Zr    c      6.0908 *     6.3446 *    -1.2689 *  0.0000     4          
    88  O     c     -5.3295 *     5.0757 *     5.0757    0.0000     2          
    89  O     c      7.3597 *     5.0757 *    -0.0000 *  0.0000     4          
    90  O     c     -5.3295 *    -5.0757 *     5.0757    0.0000     2          
    91  O     c      4.8219 *     7.6135 *    -0.0000 *  0.0000     4          
    92  Zr    c      1.0151 *    -6.3446 *     6.3446    0.0000     2          
    93  Zr    c      1.0151 *     1.2689 *     8.8824 *  0.0000     4          
    94  Zr    c     -1.5227 *     6.3446 *     6.3446    0.0000     2          
    95  Zr    c     -1.5227 *    -1.2689 *     8.8824 *  0.0000     4          
    96  O     c     -0.2538 *     7.6135 *     5.0757 *  0.0000     4          
    97  O     c     -0.2538 *    -5.0757 *     7.6135 *  0.0000     4          
    98  Zr    c     -6.5984 *    -6.3446 *    -1.2689 *  0.0000     4          
    99  O     c      7.3597 *    -2.5378 *    -5.0757 *  0.0000     4          
   100  O     c      7.3597 *     5.0757 *    -2.5378 *  0.0000     4          
   101  O     c     -5.3295 *    -0.0000 *     7.6135 *  0.0000     4          
   102  Zr    c     -9.1362 *    -1.2689 *     1.2689    0.0000     2          
   103  O     c      4.8219 *    -2.5378 *     7.6135 *  0.0000     4          
   104  O     c      4.8219 *     7.6135 *     2.5378 *  0.0000     4          
   105  O     c     -7.8673 *    -0.0000 *     5.0757 *  0.0000     4          
   106  O     c      2.2841 *     5.0757 *     7.6135 *  0.0000     4          
   107  O     c      2.2841 *    -7.6135 *     5.0757 *  0.0000     4          
   108  Zr    c      8.6287 *     3.8068 *    -1.2689 *  0.0000     4          
   109  O     c     -2.7916 *     5.0757 *     7.6135 *  0.0000     4          
   110  O     c     -2.7916 *    -7.6135 *     5.0757 *  0.0000     4          
   111  Zr    c      6.0908 *     6.3446 *     3.8068 *  0.0000     4          
   112  O     c     -5.3295 *    -2.5378 *    -7.6135 *  0.0000     4          
   113  O     c     -5.3295 *     2.5378 *    -7.6135 *  0.0000     4          
   114  Zr    c      3.5530 *     6.3446 *     6.3446    0.0000     2          
   115  Zr    c      3.5530 *    -1.2689 *     8.8824 *  0.0000     4          
   116  O     c     -7.8673 *     2.5378 *    -5.0757 *  0.0000     4          
   117  O     c     -7.8673 *     2.5378 *     5.0757 *  0.0000     4          
   118  Zr    c      1.0151 *     8.8824 *    -3.8068 *  0.0000     4          
   119  Zr    c     -1.5227 *     3.8068 *     8.8824 *  0.0000     4          
   120  Zr    c     -4.0605 *    -6.3446 *     6.3446    0.0000     2          
   121  Zr    c     -4.0605 *     1.2689 *     8.8824 *  0.0000     4          
   122  O     c      9.8976 *     0.0000       0.0000    0.0000     1          
   123  Zr    c     -6.5984 *    -6.3446 *     3.8068 *  0.0000     4          
   124  Zr    c     -9.1362 *    -1.2689 *    -3.8068 *  0.0000     4          
   125  O     c     -0.2538 *    -0.0000 *    10.1514 *  0.0000     4          
   126  Zr    c      8.6287 *     3.8068 *     3.8068    0.0000     2          
   127  O     c      9.8976 *     2.5378 *    -0.0000 *  0.0000     4          
   128  O     c      7.3597 *     5.0757 *     5.0757    0.0000     2          
   129  O     c      7.3597 *     5.0757 *    -5.0757    0.0000     2          
   130  Zr    c      3.5530 *     8.8824 *     3.8068 *  0.0000     4          
   131  O     c      4.8219 *     7.6135 *     5.0757 *  0.0000     4          
   132  O     c      4.8219 *    -5.0757 *     7.6135 *  0.0000     4          
   133  O     c      2.2841 *    -0.0000 *    10.1514 *  0.0000     4          
   134  O     c    -10.4052 *    -0.0000       0.0000    0.0000     1          
   135  O     c     -0.2538 *    10.1514 *    -2.5378 *  0.0000     4          
   136  O     c     -0.2538 *     2.5378 *    10.1514 *  0.0000     4          
   137  Zr    c     -4.0605 *    -8.8824 *     3.8068 *  0.0000     4          
   138  O     c      9.8976 *     2.5378 *     2.5378    0.0000     2          
   139  O     c      9.8976 *     2.5378 *    -2.5378    0.0000     2          
   140  O     c     -2.7916 *    -0.0000 *    10.1514 *  0.0000     4          
   141  O     c      7.3597 *     7.6135 *     0.0000 *  0.0000     4          
   142  O     c     -5.3295 *    -5.0757 *     7.6135 *  0.0000     4          
   143  O     c     -5.3295 *     5.0757 *     7.6135 *  0.0000     4          
   144  Zr    c     -9.1362 *    -3.8068 *     3.8068    0.0000     2          
   145  O     c     -7.8673 *     5.0757 *     5.0757    0.0000     2          
   146  O     c     -7.8673 *    -5.0757 *     5.0757    0.0000     2          
   147  O     c      2.2841 *    -2.5378 *    10.1514 *  0.0000     4          
   148  O     c      2.2841 *     2.5378 *    10.1514 *  0.0000     4          
   149  O     c    -10.4052 *    -2.5378 *    -0.0000 *  0.0000     4          
   150  O     c     -0.2538 *    -7.6135 *     7.6135    0.0000     2          
   151  O     c     -0.2538 *     7.6135 *     7.6135    0.0000     2          
   152  Zr    c      8.6287 *     6.3446 *     1.2689 *  0.0000     4          
   153  O     c     -2.7916 *     2.5378 *   -10.1514 *  0.0000     4          
   154  O     c     -2.7916 *     2.5378 *    10.1514 *  0.0000     4          
   155  Zr    c      6.0908 *    -6.3446 *     6.3446    0.0000     2          
   156  Zr    c      6.0908 *     8.8824 *     1.2689 *  0.0000     4          
   157  O     c      7.3597 *     7.6135 *     2.5378 *  0.0000     4          
   158  O     c      7.3597 *     7.6135 *    -2.5378 *  0.0000     4          
   159  O     c     -7.8673 *    -7.6135 *     0.0000 *  0.0000     4          
   160  Zr    c      1.0151 *     8.8824 *     6.3446 *  0.0000     4          
   161  O     c      2.2841 *     7.6135 *     7.6135    0.0000     2          
   162  O     c      2.2841 *    -7.6135 *     7.6135    0.0000     2          
   163  O     c    -10.4052 *    -2.5378 *    -2.5378    0.0000     2          
   164  O     c    -10.4052 *    -2.5378 *     2.5378    0.0000     2          
   165  Zr    c     -1.5227 *    -8.8824 *     6.3446 *  0.0000     4          
   166  O     c     -2.7916 *     7.6135 *     7.6135    0.0000     2          
   167  O     c      9.8976 *     5.0757 *     0.0000 *  0.0000     4          
   168  O     c     -2.7916 *    -7.6135 *     7.6135    0.0000     2          
   169  Zr    c     -6.5984 *     6.3446 *     6.3446    0.0000     2          
   170  Zr    c     -6.5984 *    -8.8824 *     1.2689 *  0.0000     4          
   171  Zr    c     -9.1362 *     6.3446 *    -1.2689 *  0.0000     4          
   172  O     c      4.8219 *     0.0000 *    10.1514 *  0.0000     4          
   173  O     c     -7.8673 *    -2.5378 *     7.6135 *  0.0000     4          
   174  O     c     -7.8673 *     2.5378 *     7.6135 *  0.0000     4          
   175  Zr    c     11.1665 *     1.2689 *    -1.2689    0.0000     2          
   176  O     c     -0.2538 *   -10.1514 *     5.0757 *  0.0000     4          
   177  O     c     -0.2538 *     5.0757 *    10.1514 *  0.0000     4          
   178  Zr    c      8.6287 *     6.3446 *    -3.8068 *  0.0000     4          
   179  O     c      9.8976 *     5.0757 *     2.5378 *  0.0000     4          
   180  O     c      9.8976 *    -2.5378 *     5.0757 *  0.0000     4          
   181  Zr    c      6.0908 *    -3.8068 *     8.8824 *  0.0000     4          
   182  O     c     -5.3295 *   -10.1514 *     0.0000 *  0.0000     4          
   183  Zr    c      3.5530 *    -6.3446 *     8.8824 *  0.0000     4          
   184  O     c      4.8219 *    -2.5378 *    10.1514 *  0.0000     4          
   185  O     c      4.8219 *     2.5378 *    10.1514 *  0.0000     4          
   186  Zr    c      1.0151 *    -1.2689 *    11.4203 *  0.0000     4          
   187  O     c    -10.4052 *    -0.0000 *     5.0757 *  0.0000     4          
   188  O     c      2.2841 *    -5.0757 *    10.1514 *  0.0000     4          
   189  O     c      2.2841 *    10.1514 *     5.0757 *  0.0000     4          
   190  Zr    c     -1.5227 *     1.2689 *    11.4203 *  0.0000     4          
   191  Zr    c     -4.0605 *     8.8824 *     6.3446 *  0.0000     4          
   192  O     c     -2.7916 *     5.0757 *    10.1514 *  0.0000     4          
   193  O     c     -2.7916 *    -5.0757 *    10.1514 *  0.0000     4          
   194  Zr    c     -6.5984 *     3.8068 *     8.8824 *  0.0000     4          
   195  O     c      7.3597 *    -7.6135 *    -5.0757 *  0.0000     4          
   196  O     c      7.3597 *    -5.0757 *     7.6135 *  0.0000     4          
   197  O     c     -5.3295 *     2.5378 *    10.1514 *  0.0000     4          
   198  O     c     -5.3295 *    -2.5378 *    10.1514 *  0.0000     4          
   199  Zr    c     -9.1362 *     6.3446 *     3.8068 *  0.0000     4          
   200  O     c      4.8219 *    -7.6135 *     7.6135    0.0000     2          
   201  O     c      4.8219 *     7.6135 *     7.6135    0.0000     2          
   202  Zr    c    -11.6741 *    -1.2689 *    -1.2689    0.0000     2          
   203  O     c    -10.4052 *     5.0757 *     2.5378 *  0.0000     4          
   204  O     c    -10.4052 *    -2.5378 *     5.0757 *  0.0000     4          
   205  Zr    c     11.1665 *     1.2689 *     3.8068 *  0.0000     4          
   206  O     s      0.0000       0.0000       0.0000    0.0000     1    Defect
   207  Zr    s      1.0151 *     1.2689 *    -1.2689    0.0000     2          
   208  Zr    s     -1.5227 *    -1.2689 *    -1.2689    0.0000     2          
   209  O     s     -0.2538 *     2.5378 *    -0.0000 *  0.0000     4          
   210  O     s     -2.7916 *    -0.0000      -0.0000    0.0000     1          
   211  O     s      2.2841 *     2.5378 *     0.0000 *  0.0000     4          
   212  O     s     -0.2538 *     2.5378 *     2.5378    0.0000     2          
   213  O     s     -0.2538 *    -2.5378 *     2.5378    0.0000     2          
   214  O     s     -2.7916 *     0.0000 *     2.5378 *  0.0000     4          
   215  Zr    s      3.5530 *     1.2689 *     1.2689    0.0000     2          
   216  Zr    s      1.0151 *     1.2689 *     3.8068 *  0.0000     4          
   217  O     s      2.2841 *     2.5378 *     2.5378    0.0000     2          
   218  O     s      2.2841 *     2.5378 *    -2.5378    0.0000     2          
   219  Zr    s     -1.5227 *    -3.8068 *     1.2689 *  0.0000     4          
   220  Zr    s     -4.0605 *    -1.2689 *     1.2689    0.0000     2          
   221  O     s     -2.7916 *     2.5378 *    -2.5378    0.0000     2          
   222  O     s     -2.7916 *     2.5378 *     2.5378    0.0000     2          
   223  O     s      4.8219 *     0.0000       0.0000    0.0000     1          
   224  O     s     -0.2538 *    -5.0757 *     0.0000 *  0.0000     4          
   225  O     s     -5.3295 *     0.0000       0.0000    0.0000     1          
   226  Zr    s      3.5530 *    -1.2689 *     3.8068 *  0.0000     4          
   227  O     s      4.8219 *     2.5378 *    -0.0000 *  0.0000     4          
   228  Zr    s      1.0151 *    -3.8068 *     3.8068    0.0000     2          
   229  O     s      2.2841 *     5.0757 *    -0.0000 *  0.0000     4          
   230  Zr    s     -1.5227 *     3.8068 *     3.8068    0.0000     2          
   231  O     s     -0.2538 *     5.0757 *     2.5378 *  0.0000     4          
   232  O     s     -0.2538 *    -2.5378 *     5.0757 *  0.0000     4          
   233  Zr    s     -4.0605 *     3.8068 *     1.2689 *  0.0000     4          
   234  O     s     -2.7916 *    -0.0000 *     5.0757 *  0.0000     4          
   235  O     s     -5.3295 *    -0.0000 *     2.5378 *  0.0000     4          
   236  O     s      4.8219 *     2.5378 *    -2.5378    0.0000     2          
   237  O     s      4.8219 *     2.5378 *     2.5378    0.0000     2          
   238  O     s      2.2841 *    -5.0757 *     2.5378 *  0.0000     4          
   239  O     s      2.2841 *     5.0757 *     2.5378 *  0.0000     4          
   240  O     s     -2.7916 *     5.0757 *     2.5378 *  0.0000     4          
   241  O     s     -2.7916 *    -5.0757 *     2.5378 *  0.0000     4          
   242  Zr    s      6.0908 *     1.2689 *    -1.2689    0.0000     2          
   243  O     s     -5.3295 *     2.5378 *     2.5378    0.0000     2          
   244  O     s     -5.3295 *    -2.5378 *     2.5378    0.0000     2          
   245  Zr    s      3.5530 *     3.8068 *     3.8068    0.0000     2          
   246  Zr    s      1.0151 *    -1.2689 *     6.3446 *  0.0000     4          
   247  Zr    s     -1.5227 *     6.3446 *     1.2689 *  0.0000     4          
   248  Zr    s     -4.0605 *     3.8068 *    -3.8068    0.0000     2          
   249  Zr    s     -6.5984 *     1.2689 *     1.2689    0.0000     2          
   250  O     s      4.8219 *     5.0757 *     0.0000 *  0.0000     4          
   251  O     s     -0.2538 *    -5.0757 *     5.0757    0.0000     2          
   252  O     s     -0.2538 *     5.0757 *     5.0757    0.0000     2          
   253  Zr    s      6.0908 *    -1.2689 *    -3.8068 *  0.0000     4          
   254  O     s      7.3597 *    -0.0000      -0.0000    0.0000     1          
   255  O     s     -5.3295 *     5.0757 *     0.0000 *  0.0000     4          
   256  Zr    s      3.5530 *    -6.3446 *    -1.2689 *  0.0000     4          
   257  O     s      4.8219 *     5.0757 *     2.5378 *  0.0000     4          
   258  O     s      4.8219 *     5.0757 *    -2.5378 *  0.0000     4          
   259  Zr    s      1.0151 *     3.8068 *     6.3446 *  0.0000     4          
   260  O     s      2.2841 *     5.0757 *     5.0757    0.0000     2          
   261  O     s      2.2841 *     5.0757 *    -5.0757    0.0000     2          
   262  Zr    s     -1.5227 *    -6.3446 *     3.8068 *  0.0000     4          
   263  O     s     -0.2538 *    -0.0000 *     7.6135 *  0.0000     4          
   264  Zr    s     -4.0605 *     1.2689 *    -6.3446 *  0.0000     4          
   265  O     s     -2.7916 *     5.0757 *     5.0757    0.0000     2          
   266  O     s     -2.7916 *    -5.0757 *     5.0757    0.0000     2          
   267  Zr    s     -6.5984 *     1.2689 *    -3.8068 *  0.0000     4          
   268  O     s      7.3597 *     2.5378 *     0.0000 *  0.0000     4          
   269  O     s     -5.3295 *     2.5378 *     5.0757 *  0.0000     4          
   270  O     s     -5.3295 *    -2.5378 *     5.0757 *  0.0000     4          
   271  O     s     -7.8673 *    -0.0000      -0.0000    0.0000     1          
   272  O     s      2.2841 *     0.0000 *     7.6135 *  0.0000     4          
   273  O     s     -0.2538 *     2.5378 *     7.6135 *  0.0000     4          
   274  O     s     -0.2538 *    -7.6135 *     2.5378 *  0.0000     4          
   275  O     s     -2.7916 *    -7.6135 *     0.0000 *  0.0000     4          
   276  Zr    s      6.0908 *     3.8068 *    -3.8068    0.0000     2          
   277  O     s      7.3597 *     2.5378 *    -2.5378    0.0000     2          
   278  O     s      7.3597 *     2.5378 *     2.5378    0.0000     2          
   279  Zr    s      3.5530 *    -3.8068 *     6.3446 *  0.0000     4          
   280  O     s     -7.8673 *    -0.0000 *     2.5378 *  0.0000     4          
   281  O     s      2.2841 *    -2.5378 *     7.6135 *  0.0000     4          
   282  O     s      2.2841 *     7.6135 *     2.5378 *  0.0000     4          
   283  Zr    s     -4.0605 *     3.8068 *     6.3446 *  0.0000     4          
   284  O     s     -2.7916 *    -2.5378 *     7.6135 *  0.0000     4          
   285  O     s     -2.7916 *     2.5378 *     7.6135 *  0.0000     4          
   286  Zr    s     -6.5984 *     3.8068 *     3.8068    0.0000     2          
   287  O     s      4.8219 *    -5.0757 *     5.0757    0.0000     2          
   288  O     s      4.8219 *     5.0757 *     5.0757    0.0000     2          
   289  O     s     -7.8673 *     2.5378 *    -2.5378    0.0000     2          
   290  O     s     -7.8673 *     2.5378 *     2.5378    0.0000     2          
   291  Zr    s      8.6287 *     1.2689 *     1.2689    0.0000     2          
   292  Zr    s      6.0908 *     6.3446 *    -1.2689 *  0.0000     4          
   293  O     s     -5.3295 *     5.0757 *     5.0757    0.0000     2          
   294  O     s      7.3597 *     5.0757 *    -0.0000 *  0.0000     4          
   295  O     s     -5.3295 *    -5.0757 *     5.0757    0.0000     2          
   296  O     s      4.8219 *     7.6135 *    -0.0000 *  0.0000     4          
   297  Zr    s      1.0151 *    -6.3446 *     6.3446    0.0000     2          
   298  Zr    s      1.0151 *     1.2689 *     8.8824 *  0.0000     4          
   299  Zr    s     -1.5227 *     6.3446 *     6.3446    0.0000     2          
   300  Zr    s     -1.5227 *    -1.2689 *     8.8824 *  0.0000     4          
   301  O     s     -0.2538 *     7.6135 *     5.0757 *  0.0000     4          
   302  O     s     -0.2538 *    -5.0757 *     7.6135 *  0.0000     4          
   303  Zr    s     -6.5984 *    -6.3446 *    -1.2689 *  0.0000     4          
   304  O     s      7.3597 *    -2.5378 *    -5.0757 *  0.0000     4          
   305  O     s      7.3597 *     5.0757 *    -2.5378 *  0.0000     4          
   306  O     s     -5.3295 *    -0.0000 *     7.6135 *  0.0000     4          
   307  Zr    s     -9.1362 *    -1.2689 *     1.2689    0.0000     2          
   308  O     s      4.8219 *    -2.5378 *     7.6135 *  0.0000     4          
   309  O     s      4.8219 *     7.6135 *     2.5378 *  0.0000     4          
   310  O     s     -7.8673 *    -0.0000 *     5.0757 *  0.0000     4          
   311  O     s      2.2841 *     5.0757 *     7.6135 *  0.0000     4          
   312  O     s      2.2841 *    -7.6135 *     5.0757 *  0.0000     4          
   313  Zr    s      8.6287 *     3.8068 *    -1.2689 *  0.0000     4          
   314  O     s     -2.7916 *     5.0757 *     7.6135 *  0.0000     4          
   315  O     s     -2.7916 *    -7.6135 *     5.0757 *  0.0000     4          
   316  Zr    s      6.0908 *     6.3446 *     3.8068 *  0.0000     4          
   317  O     s     -5.3295 *    -2.5378 *    -7.6135 *  0.0000     4          
   318  O     s     -5.3295 *     2.5378 *    -7.6135 *  0.0000     4          
   319  Zr    s      3.5530 *     6.3446 *     6.3446    0.0000     2          
   320  Zr    s      3.5530 *    -1.2689 *     8.8824 *  0.0000     4          
   321  O     s     -7.8673 *     2.5378 *    -5.0757 *  0.0000     4          
   322  O     s     -7.8673 *     2.5378 *     5.0757 *  0.0000     4          
   323  Zr    s      1.0151 *     8.8824 *    -3.8068 *  0.0000     4          
   324  Zr    s     -1.5227 *     3.8068 *     8.8824 *  0.0000     4          
   325  Zr    s     -4.0605 *    -6.3446 *     6.3446    0.0000     2          
   326  Zr    s     -4.0605 *     1.2689 *     8.8824 *  0.0000     4          
   327  O     s      9.8976 *     0.0000       0.0000    0.0000     1          
   328  Zr    s     -6.5984 *    -6.3446 *     3.8068 *  0.0000     4          
   329  Zr    s     -9.1362 *    -1.2689 *    -3.8068 *  0.0000     4          
   330  O     s     -0.2538 *    -0.0000 *    10.1514 *  0.0000     4          
   331  Zr    s      8.6287 *     3.8068 *     3.8068    0.0000     2          
   332  O     s      9.8976 *     2.5378 *    -0.0000 *  0.0000     4          
   333  O     s      7.3597 *     5.0757 *     5.0757    0.0000     2          
   334  O     s      7.3597 *     5.0757 *    -5.0757    0.0000     2          
   335  Zr    s      3.5530 *     8.8824 *     3.8068 *  0.0000     4          
   336  O     s      4.8219 *     7.6135 *     5.0757 *  0.0000     4          
   337  O     s      4.8219 *    -5.0757 *     7.6135 *  0.0000     4          
   338  O     s      2.2841 *    -0.0000 *    10.1514 *  0.0000     4          
   339  O     s    -10.4052 *    -0.0000       0.0000    0.0000     1          
   340  O     s     -0.2538 *    10.1514 *    -2.5378 *  0.0000     4          
   341  O     s     -0.2538 *     2.5378 *    10.1514 *  0.0000     4          
   342  Zr    s     -4.0605 *    -8.8824 *     3.8068 *  0.0000     4          
   343  O     s      9.8976 *     2.5378 *     2.5378    0.0000     2          
   344  O     s      9.8976 *     2.5378 *    -2.5378    0.0000     2          
   345  O     s     -2.7916 *    -0.0000 *    10.1514 *  0.0000     4          
   346  O     s      7.3597 *     7.6135 *     0.0000 *  0.0000     4          
   347  O     s     -5.3295 *    -5.0757 *     7.6135 *  0.0000     4          
   348  O     s     -5.3295 *     5.0757 *     7.6135 *  0.0000     4          
   349  Zr    s     -9.1362 *    -3.8068 *     3.8068    0.0000     2          
   350  O     s     -7.8673 *     5.0757 *     5.0757    0.0000     2          
   351  O     s     -7.8673 *    -5.0757 *     5.0757    0.0000     2          
   352  O     s      2.2841 *    -2.5378 *    10.1514 *  0.0000     4          
   353  O     s      2.2841 *     2.5378 *    10.1514 *  0.0000     4          
   354  O     s    -10.4052 *    -2.5378 *    -0.0000 *  0.0000     4          
   355  O     s     -0.2538 *    -7.6135 *     7.6135    0.0000     2          
   356  O     s     -0.2538 *     7.6135 *     7.6135    0.0000     2          
   357  Zr    s      8.6287 *     6.3446 *     1.2689 *  0.0000     4          
   358  O     s     -2.7916 *     2.5378 *   -10.1514 *  0.0000     4          
   359  O     s     -2.7916 *     2.5378 *    10.1514 *  0.0000     4          
   360  Zr    s      6.0908 *    -6.3446 *     6.3446    0.0000     2          
   361  Zr    s      6.0908 *     8.8824 *     1.2689 *  0.0000     4          
   362  O     s      7.3597 *     7.6135 *     2.5378 *  0.0000     4          
   363  O     s      7.3597 *     7.6135 *    -2.5378 *  0.0000     4          
   364  O     s     -7.8673 *    -7.6135 *     0.0000 *  0.0000     4          
   365  Zr    s      1.0151 *     8.8824 *     6.3446 *  0.0000     4          
   366  O     s      2.2841 *     7.6135 *     7.6135    0.0000     2          
   367  O     s      2.2841 *    -7.6135 *     7.6135    0.0000     2          
   368  O     s    -10.4052 *    -2.5378 *    -2.5378    0.0000     2          
   369  O     s    -10.4052 *    -2.5378 *     2.5378    0.0000     2          
   370  Zr    s     -1.5227 *    -8.8824 *     6.3446 *  0.0000     4          
   371  O     s     -2.7916 *     7.6135 *     7.6135    0.0000     2          
   372  O     s      9.8976 *     5.0757 *     0.0000 *  0.0000     4          
   373  O     s     -2.7916 *    -7.6135 *     7.6135    0.0000     2          
   374  Zr    s     -6.5984 *     6.3446 *     6.3446    0.0000     2          
   375  Zr    s     -6.5984 *    -8.8824 *     1.2689 *  0.0000     4          
   376  Zr    s     -9.1362 *     6.3446 *    -1.2689 *  0.0000     4          
   377  O     s      4.8219 *     0.0000 *    10.1514 *  0.0000     4          
   378  O     s     -7.8673 *    -2.5378 *     7.6135 *  0.0000     4          
   379  O     s     -7.8673 *     2.5378 *     7.6135 *  0.0000     4          
   380  Zr    s     11.1665 *     1.2689 *    -1.2689    0.0000     2          
   381  O     s     -0.2538 *   -10.1514 *     5.0757 *  0.0000     4          
   382  O     s     -0.2538 *     5.0757 *    10.1514 *  0.0000     4          
   383  Zr    s      8.6287 *     6.3446 *    -3.8068 *  0.0000     4          
   384  O     s      9.8976 *     5.0757 *     2.5378 *  0.0000     4          
   385  O     s      9.8976 *    -2.5378 *     5.0757 *  0.0000     4          
   386  Zr    s      6.0908 *    -3.8068 *     8.8824 *  0.0000     4          
   387  O     s     -5.3295 *   -10.1514 *     0.0000 *  0.0000     4          
   388  Zr    s      3.5530 *    -6.3446 *     8.8824 *  0.0000     4          
   389  O     s      4.8219 *    -2.5378 *    10.1514 *  0.0000     4          
   390  O     s      4.8219 *     2.5378 *    10.1514 *  0.0000     4          
   391  Zr    s      1.0151 *    -1.2689 *    11.4203 *  0.0000     4          
   392  O     s    -10.4052 *    -0.0000 *     5.0757 *  0.0000     4          
   393  O     s      2.2841 *    -5.0757 *    10.1514 *  0.0000     4          
   394  O     s      2.2841 *    10.1514 *     5.0757 *  0.0000     4          
   395  Zr    s     -1.5227 *     1.2689 *    11.4203 *  0.0000     4          
   396  Zr    s     -4.0605 *     8.8824 *     6.3446 *  0.0000     4          
   397  O     s     -2.7916 *     5.0757 *    10.1514 *  0.0000     4          
   398  O     s     -2.7916 *    -5.0757 *    10.1514 *  0.0000     4          
   399  Zr    s     -6.5984 *     3.8068 *     8.8824 *  0.0000     4          
   400  O     s      7.3597 *    -7.6135 *    -5.0757 *  0.0000     4          
   401  O     s      7.3597 *    -5.0757 *     7.6135 *  0.0000     4          
   402  O     s     -5.3295 *     2.5378 *    10.1514 *  0.0000     4          
   403  O     s     -5.3295 *    -2.5378 *    10.1514 *  0.0000     4          
   404  Zr    s     -9.1362 *     6.3446 *     3.8068 *  0.0000     4          
   405  O     s      4.8219 *    -7.6135 *     7.6135    0.0000     2          
   406  O     s      4.8219 *     7.6135 *     7.6135    0.0000     2          
   407  Zr    s    -11.6741 *    -1.2689 *    -1.2689    0.0000     2          
   408  O     s    -10.4052 *     5.0757 *     2.5378 *  0.0000     4          
   409  O     s    -10.4052 *    -2.5378 *     5.0757 *  0.0000     4          
   410  Zr    s     11.1665 *     1.2689 *     3.8068 *  0.0000     4          
--------------------------------------------------------------------------------


  Constraints on symmetry reduced coordinates :

--------------------------------------------------------------------------------
  Constraint no.      Unconstrained     Constrained    Coefficient    
                         Variable         Variable
--------------------------------------------------------------------------------
           1                 2 y             2 z        -1.00000
           2                 3 y             3 z         1.00000
           3                 7 y             7 z         1.00000
           4                 8 y             8 z        -1.00000
           5                10 y            10 z         1.00000
           6                12 y            12 z         1.00000
           7                13 y            13 z        -1.00000
           8                15 y            15 z        -1.00000
           9                16 y            16 z        -1.00000
          10                17 y            17 z         1.00000
          11                23 y            23 z        -1.00000
          12                25 y            25 z         1.00000
          13                31 y            31 z        -1.00000
          14                32 y            32 z         1.00000
          15                37 y            37 z        -1.00000
          16                38 y            38 z         1.00000
          17                39 y            39 z        -1.00000
          18                40 y            40 z         1.00000
          19                43 y            43 z        -1.00000
          20                44 y            44 z         1.00000
          21                46 y            46 z        -1.00000
          22                47 y            47 z         1.00000
          23                55 y            55 z         1.00000
          24                56 y            56 z        -1.00000
          25                60 y            60 z         1.00000
          26                61 y            61 z        -1.00000
          27                71 y            71 z        -1.00000
          28                72 y            72 z        -1.00000
          29                73 y            73 z         1.00000
          30                81 y            81 z         1.00000
          31                82 y            82 z        -1.00000
          32                83 y            83 z         1.00000
          33                84 y            84 z        -1.00000
          34                85 y            85 z         1.00000
          35                86 y            86 z         1.00000
          36                88 y            88 z         1.00000
          37                90 y            90 z        -1.00000
          38                92 y            92 z        -1.00000
          39                94 y            94 z         1.00000
          40               102 y           102 z        -1.00000
          41               114 y           114 z         1.00000
          42               120 y           120 z        -1.00000
          43               126 y           126 z         1.00000
          44               128 y           128 z         1.00000
          45               129 y           129 z        -1.00000
          46               138 y           138 z         1.00000
          47               139 y           139 z        -1.00000
          48               144 y           144 z        -1.00000
          49               145 y           145 z         1.00000
          50               146 y           146 z        -1.00000
          51               150 y           150 z        -1.00000
          52               151 y           151 z         1.00000
          53               155 y           155 z        -1.00000
          54               161 y           161 z         1.00000
          55               162 y           162 z        -1.00000
          56               163 y           163 z         1.00000
          57               164 y           164 z        -1.00000
          58               166 y           166 z         1.00000
          59               168 y           168 z        -1.00000
          60               169 y           169 z         1.00000
          61               175 y           175 z        -1.00000
          62               200 y           200 z        -1.00000
          63               201 y           201 z         1.00000
          64               202 y           202 z         1.00000
          65               207 y           207 z        -1.00000
          66               208 y           208 z         1.00000
          67               212 y           212 z         1.00000
          68               213 y           213 z        -1.00000
          69               215 y           215 z         1.00000
          70               217 y           217 z         1.00000
          71               218 y           218 z        -1.00000
          72               220 y           220 z        -1.00000
          73               221 y           221 z        -1.00000
          74               222 y           222 z         1.00000
          75               228 y           228 z        -1.00000
          76               230 y           230 z         1.00000
          77               236 y           236 z        -1.00000
          78               237 y           237 z         1.00000
          79               242 y           242 z        -1.00000
          80               243 y           243 z         1.00000
          81               244 y           244 z        -1.00000
          82               245 y           245 z         1.00000
          83               248 y           248 z        -1.00000
          84               249 y           249 z         1.00000
          85               251 y           251 z        -1.00000
          86               252 y           252 z         1.00000
          87               260 y           260 z         1.00000
          88               261 y           261 z        -1.00000
          89               265 y           265 z         1.00000
          90               266 y           266 z        -1.00000
          91               276 y           276 z        -1.00000
          92               277 y           277 z        -1.00000
          93               278 y           278 z         1.00000
          94               286 y           286 z         1.00000
          95               287 y           287 z        -1.00000
          96               288 y           288 z         1.00000
          97               289 y           289 z        -1.00000
          98               290 y           290 z         1.00000
          99               291 y           291 z         1.00000
         100               293 y           293 z         1.00000
         101               295 y           295 z        -1.00000
         102               297 y           297 z        -1.00000
         103               299 y           299 z         1.00000
         104               307 y           307 z        -1.00000
         105               319 y           319 z         1.00000
         106               325 y           325 z        -1.00000
         107               331 y           331 z         1.00000
         108               333 y           333 z         1.00000
         109               334 y           334 z        -1.00000
         110               343 y           343 z         1.00000
         111               344 y           344 z        -1.00000
         112               349 y           349 z        -1.00000
         113               350 y           350 z         1.00000
         114               351 y           351 z        -1.00000
         115               355 y           355 z        -1.00000
         116               356 y           356 z         1.00000
         117               360 y           360 z        -1.00000
         118               366 y           366 z         1.00000
         119               367 y           367 z        -1.00000
         120               368 y           368 z         1.00000
         121               369 y           369 z        -1.00000
         122               371 y           371 z         1.00000
         123               373 y           373 z        -1.00000
         124               374 y           374 z         1.00000
         125               380 y           380 z        -1.00000
         126               405 y           405 z        -1.00000
         127               406 y           406 z         1.00000
         128               407 y           407 z         1.00000
--------------------------------------------------------------------------------


  Components of defect energy : 

--------------------------------------------------------------------------------
  Region 1 - region 1                   =     -9.77784059 eV
  Region 1 - region 2a (unrelaxed)      =     43.37759561 eV
  Region 1 - 2a (relaxed - correction)  =     -2.38548559 eV
  Region 1 (Total)                      =     31.21426943 eV
  Region 2a                             =      1.19276982 eV
  Region 2b                             =     -1.15956022 eV
--------------------------------------------------------------------------------
  Total defect energy                   =     31.24747903 eV
--------------------------------------------------------------------------------

  Largest displacement in region 2 =   0.0063 Angstroms


  Number of variables =     1068

  Maximum number of calculations  =        1000
  Maximum Hessian update interval =          10
  Maximum step size               =   1.0000000
  Maximum parameter tolerance     =   0.0000100
  Maximum function  tolerance     =   0.0000100
  Maximum gradient  tolerance     =   0.0010000

  Symmetry adapted optimisation

  Symmetry to be used for second derivatives

  Newton-Raphson optimiser to be used

  BFGS hessian update to be used

  Lower half triangular hessian to be used

  Start of defect optimisation :

  Cycle:      0 Defect Energy:  31.247479  Gnorm:     0.086857  CPU:    4.826
  ** Hessian calculated **
  Cycle:      1 Defect Energy:  22.326699  Gnorm:     0.034842  CPU:   14.680
  Cycle:      2 Defect Energy:  17.343302  Gnorm:     0.018412  CPU:   23.296
  Cycle:      3 Defect Energy:  16.663839  Gnorm:     0.014443  CPU:   29.087
  Cycle:      4 Defect Energy:  15.979889  Gnorm:     0.008329  CPU:   36.288
  Cycle:      5 Defect Energy:  15.526489  Gnorm:     0.007711  CPU:   43.478
  Cycle:      6 Defect Energy:  15.391004  Gnorm:     0.006173  CPU:   49.260
  Cycle:      7 Defect Energy:  15.253553  Gnorm:     0.004431  CPU:   56.463
  Cycle:      8 Defect Energy:  15.135509  Gnorm:     0.003723  CPU:   63.668
  Cycle:      9 Defect Energy:  15.101538  Gnorm:     0.003346  CPU:   65.214
  Cycle:     10 Defect Energy:  15.051204  Gnorm:     0.003067  CPU:   66.752
  ** Hessian calculated **
  Cycle:     11 Defect Energy:  14.969332  Gnorm:     0.002707  CPU:   73.923
  Cycle:     12 Defect Energy:  14.865356  Gnorm:     0.002157  CPU:   75.469
  Cycle:     13 Defect Energy:  14.775241  Gnorm:     0.001515  CPU:   77.014
  Cycle:     14 Defect Energy:  14.733237  Gnorm:     0.001069  CPU:   78.557
  Cycle:     15 Defect Energy:  14.713546  Gnorm:     0.000754  CPU:   80.094
  Cycle:     16 Defect Energy:  14.704372  Gnorm:     0.000531  CPU:   81.629
  Cycle:     17 Defect Energy:  14.700062  Gnorm:     0.000374  CPU:   83.173
  Cycle:     18 Defect Energy:  14.697991  Gnorm:     0.000262  CPU:   84.722
  Cycle:     19 Defect Energy:  14.697037  Gnorm:     0.000184  CPU:   86.266
  Cycle:     20 Defect Energy:  14.696610  Gnorm:     0.000129  CPU:   87.808
  ** Hessian calculated **
  Cycle:     21 Defect Energy:  14.696428  Gnorm:     0.000090  CPU:   95.018
  Cycle:     22 Defect Energy:  14.696358  Gnorm:     0.000063  CPU:   96.554
  Cycle:     23 Defect Energy:  14.696337  Gnorm:     0.000044  CPU:   98.100
  Cycle:     24 Defect Energy:  14.696336  Gnorm:     0.000031  CPU:   99.640


  **** Optimisation achieved ****


  Final defect energy  =       14.69634192
  Final defect Gnorm   =        0.00002179

  Components of defect energy : 

--------------------------------------------------------------------------------
  Region 1 - region 1                   =    -17.30797433 eV
  Region 1 - region 2a (unrelaxed)      =     34.20002749 eV
  Region 1 - 2a (relaxed - correction)  =     -2.08199181 eV
  Region 1 (Total)                      =     14.81006135 eV
  Region 2a                             =      1.04094455 eV
  Region 2b                             =     -1.15466397 eV
--------------------------------------------------------------------------------
  Total defect energy                   =     14.69634192 eV
--------------------------------------------------------------------------------

  Largest displacement in region 2 =   0.0063 Angstroms

  Final coordinates of region 1 :

--------------------------------------------------------------------------------
   No.  Atomic        x           y           z          Radius      Charge
        Label       (Angs)      (Angs)      (Angs)       (Angs)       (e) 
--------------------------------------------------------------------------------
     1  O     c     1.522705    1.268921    1.268921    0.000000    0.077000
     2  Zr    c     2.483142    2.595494   -0.057652    0.000000    2.650000
     3  Zr    c     2.483142   -0.057652    2.595494    0.000000    2.650000
     4  Zr    c    -0.022885   -0.019024   -0.019024    0.000000    2.650000
     5  Zr    c    -0.022885    2.556865    2.556865    0.000000    2.650000
     6  O     c     1.241438    3.861919    1.234349    0.000000    0.077000
     7  O     c     1.241438    1.234349    3.861919    0.000000    0.077000
     8  O     c     1.241438    1.303492   -1.324077    0.000000    0.077000
     9  O     c     1.241438   -1.324077    1.303492    0.000000    0.077000
    10  O     c    -1.083328    1.268921    1.268921    0.000000    0.077000
    11  O     c     3.795914    3.354071    1.272128    0.000000    0.077000
    12  O     c     3.795914    1.272128    3.354071    0.000000    0.077000
    13  O     c     3.795914    1.265714   -0.816229    0.000000    0.077000
    14  O     c     3.795914   -0.816229    1.265714    0.000000    0.077000
    15  O     c     1.298729    3.776543    3.776543    0.000000    0.077000
    16  O     c     1.298729   -1.238701   -1.238701    0.000000    0.077000
    17  O     c     1.256924   -1.286867    3.824708    0.000000    0.077000
    18  O     c     1.256924    3.824708   -1.286867    0.000000    0.077000
    19  O     c    -1.294860    1.282761    3.793086    0.000000    0.077000
    20  O     c    -1.294860    3.793086    1.282761    0.000000    0.077000
    21  O     c    -1.294860   -1.255244    1.255080    0.000000    0.077000
    22  O     c    -1.294860    1.255080   -1.255244    0.000000    0.077000
    23  Zr    c     5.118913    2.588851    2.588851    0.000000    2.650000
    24  Zr    c     5.118913   -0.051009   -0.051009    0.000000    2.650000
    25  Zr    c     2.502689    2.563654    5.098990    0.000000    2.650000
    26  Zr    c     2.502689   -0.025812   -2.561148    0.000000    2.650000
    27  Zr    c     2.502689   -2.561148   -0.025812    0.000000    2.650000
    28  Zr    c     2.502689    5.098990    2.563654    0.000000    2.650000
    29  O     c     3.851850    3.845781    3.845781    0.000000    0.077000
    30  O     c     3.851850   -1.307939   -1.307939    0.000000    0.077000
    31  O     c     3.778214    3.841520   -1.303679    0.000000    0.077000
    32  O     c     3.778214   -1.303679    3.841520    0.000000    0.077000
    33  Zr    c    -0.025093   -2.558854    2.547452    0.000000    2.650000
    34  Zr    c    -0.025093    2.547452   -2.558854    0.000000    2.650000
    35  Zr    c    -0.025093    5.096695   -0.009610    0.000000    2.650000
    36  Zr    c    -0.025093   -0.009610    5.096695    0.000000    2.650000
    37  Zr    c    -2.542169   -0.009710    2.547552    0.000000    2.650000
    38  Zr    c    -2.542169    2.547552   -0.009710    0.000000    2.650000
    39  O     c    -1.269044    3.799371   -1.261529    0.000000    0.077000
    40  O     c    -1.269044   -1.261529    3.799371    0.000000    0.077000
    41  O     c    -1.230873    3.808746    3.808746    0.000000    0.077000
    42  O     c    -1.230873   -1.270905   -1.270905    0.000000    0.077000
    43  O     c     6.034890    1.268921    1.268921    0.000000    0.077000
    44  O     c     1.293488   -3.859035    1.247013    0.000000    0.077000
    45  O     c     1.293488    1.247013   -3.859035    0.000000    0.077000
    46  O     c     1.293488    1.290829    6.396877    0.000000    0.077000
    47  O     c     1.293488    6.396877    1.290829    0.000000    0.077000
    48  O     c    -3.689744    1.268921    1.268921    0.000000    0.077000
    49  Zr    c     5.108359   -0.029348    5.101206    0.000000    2.650000
    50  Zr    c     5.108359    2.567190   -2.563365    0.000000    2.650000
    51  Zr    c     5.108359    5.101206   -0.029348    0.000000    2.650000
    52  Zr    c     5.108359   -2.563365    2.567190    0.000000    2.650000
    53  O     c     6.364796    3.856860    1.294098    0.000000    0.077000
    54  O     c     6.364796    1.294098    3.856860    0.000000    0.077000
    55  O     c     6.364796    1.243744   -1.319018    0.000000    0.077000
    56  O     c     6.364796   -1.319018    1.243744    0.000000    0.077000
    57  Zr    c     2.525918   -2.559064    5.096906    0.000000    2.650000
    58  Zr    c     2.525918    5.096906   -2.559064    0.000000    2.650000
    59  O     c     3.813942    6.042831    1.270331    0.000000    0.077000
    60  O     c     3.813942    1.270331    6.042831    0.000000    0.077000
    61  O     c     3.813942    1.267511   -3.504989    0.000000    0.077000
    62  O     c     3.813942   -3.504989    1.267511    0.000000    0.077000
    63  Zr    c    -0.022153    5.091967    5.091967    0.000000    2.650000
    64  Zr    c    -0.022153   -2.554125   -2.554125    0.000000    2.650000
    65  O     c     1.260294    6.303313    3.810891    0.000000    0.077000
    66  O     c     1.260294    3.810891    6.303313    0.000000    0.077000
    67  O     c     1.260294   -1.273049   -3.765472    0.000000    0.077000
    68  O     c     1.260294   -3.765472   -1.273049    0.000000    0.077000
    69  O     c     1.277172   -1.258602    6.351543    0.000000    0.077000
    70  O     c     1.277172    6.351543   -1.258602    0.000000    0.077000
    71  O     c     1.277172   -3.813701    3.796444    0.000000    0.077000
    72  O     c     1.277172    3.796444   -3.813701    0.000000    0.077000
    73  Zr    c    -2.549398    5.082141    2.539424    0.000000    2.650000
    74  Zr    c    -2.549398   -2.544300   -0.001583    0.000000    2.650000
    75  Zr    c    -2.549398   -0.001583   -2.544300    0.000000    2.650000
    76  Zr    c    -2.549398    2.539424    5.082141    0.000000    2.650000
    77  O     c    -1.248662    1.261724    6.333637    0.000000    0.077000
    78  O     c    -1.248662    6.333637    1.261724    0.000000    0.077000
    79  O     c    -1.248662   -3.795795    1.276118    0.000000    0.077000
    80  O     c    -1.248662    1.276118   -3.795795    0.000000    0.077000
    81  O     c    -3.830247    1.263854    3.807268    0.000000    0.077000
    82  O     c    -3.830247    3.807268    1.263854    0.000000    0.077000
    83  O     c    -3.830247   -1.269426    1.273988    0.000000    0.077000
    84  O     c    -3.830247    1.273988   -1.269426    0.000000    0.077000
    85  O     c     6.334288    3.784315   -1.246474    0.000000    0.077000
    86  O     c     6.334288   -1.246474    3.784315    0.000000    0.077000
    87  O     c     6.376361    3.816584    3.816584    0.000000    0.077000
    88  O     c     6.376361   -1.278742   -1.278742    0.000000    0.077000
    89  O     c     3.823563   -3.846522    3.789290    0.000000    0.077000
    90  O     c     3.823563    3.789290   -3.846522    0.000000    0.077000
    91  O     c     3.823563    6.384364   -1.251448    0.000000    0.077000
    92  O     c     3.823563   -1.251448    6.384364    0.000000    0.077000
[...]
    330 y          1.268921      1.271182     0.002261    Cartesian    0.18
    330 z         11.420288     11.440375     0.020087    Cartesian    0.18
    331 x         10.151367     10.160058     0.008691    Cartesian    0.09
    331 y          5.075684      5.080382     0.004699    Cartesian    0.09
    331 z          5.075684      5.080382     0.004699    Cartesian    0.09
    332 x         11.420288     11.432166     0.011878    Cartesian    0.10
    332 y          3.806763      3.805152    -0.001610    Cartesian   -0.04
    332 z          1.268921      1.270011     0.001090    Cartesian    0.09
    333 x          8.882446      8.888377     0.005930    Cartesian    0.07
    333 y          6.344605      6.343523    -0.001081    Cartesian   -0.02
    333 z          6.344605      6.343523    -0.001081    Cartesian   -0.02
    334 x          8.882446      8.881087    -0.001359    Cartesian   -0.02
    334 y          6.344605      6.339091    -0.005513    Cartesian   -0.09
    334 z         -3.806763     -3.801249     0.005513    Cartesian   -0.14
    335 x          5.075684      5.072622    -0.003062    Cartesian   -0.06
    335 y         10.151367     10.155553     0.004186    Cartesian    0.04
    335 z          5.075684      5.074540    -0.001144    Cartesian   -0.02
    336 x          6.344605      6.344362    -0.000242    Cartesian   -0.00
    336 y          8.882446      8.879049    -0.003397    Cartesian   -0.04
    336 z          6.344605      6.341351    -0.003253    Cartesian   -0.05
    337 x          6.344605      6.345485     0.000881    Cartesian    0.01
    337 y         -3.806763     -3.803125     0.003638    Cartesian   -0.10
    337 z          8.882446      8.887420     0.004973    Cartesian    0.06
    338 x          3.806763      3.811416     0.004654    Cartesian    0.12
    338 y          1.268921      1.272571     0.003650    Cartesian    0.29
    338 z         11.420288     11.345102    -0.075186    Cartesian   -0.66
    339 x         -8.882446     -8.848574     0.033873    Cartesian   -0.38
    339 y          1.268921      1.268921     0.000000    Cartesian    0.00
    339 z          1.268921      1.268921     0.000000    Cartesian    0.00
    340 x          1.268921      1.273602     0.004681    Cartesian    0.37
    340 y         11.420288     11.422035     0.001747    Cartesian    0.02
    340 z         -1.268921     -1.266640     0.002281    Cartesian   -0.18
    341 x          1.268921      1.274237     0.005316    Cartesian    0.42
    341 y          3.806763      3.805141    -0.001622    Cartesian   -0.04
    341 z         11.420288     11.399781    -0.020507    Cartesian   -0.18
    342 x         -2.537842     -2.541381    -0.003540    Cartesian    0.14
    342 y         -7.613525     -7.617656    -0.004131    Cartesian    0.05
    342 z          5.075684      5.076298     0.000614    Cartesian    0.01
    343 x         11.420288     11.421122     0.000834    Cartesian    0.01
    343 y          3.806763      3.803390    -0.003373    Cartesian   -0.09
    343 z          3.806763      3.803390    -0.003373    Cartesian   -0.09
    344 x         11.420288     11.418951    -0.001337    Cartesian   -0.01
    344 y          3.806763      3.804002    -0.002760    Cartesian   -0.07
    344 z         -1.268921     -1.266160     0.002760    Cartesian   -0.22
    345 x         -1.268921     -1.266059     0.002862    Cartesian   -0.23
    345 y          1.268921      1.267471    -0.001449    Cartesian   -0.11
    345 z         11.420288     11.415966    -0.004322    Cartesian   -0.04
    346 x          8.882446      8.883220     0.000773    Cartesian    0.01
    346 y          8.882446      8.873480    -0.008966    Cartesian   -0.10
    346 z          1.268921      1.265513    -0.003408    Cartesian   -0.27
    347 x         -3.806763     -3.803747     0.003015    Cartesian   -0.08
    347 y         -3.806763     -3.806763    -0.000001    Cartesian    0.00
    347 z          8.882446      8.880451    -0.001995    Cartesian   -0.02
    348 x         -3.806763     -3.807756    -0.000993    Cartesian    0.03
    348 y          6.344605      6.342943    -0.001662    Cartesian   -0.03
    348 z          8.882446      8.883412     0.000965    Cartesian    0.01
    349 x         -7.613525     -7.616238    -0.002713    Cartesian    0.04
    349 y         -2.537842     -2.539296    -0.001454    Cartesian    0.06
    349 z          5.075684      5.077137     0.001454    Cartesian    0.03
    350 x         -6.344605     -6.340958     0.003646    Cartesian   -0.06
    350 y          6.344605      6.344070    -0.000535    Cartesian   -0.01
    350 z          6.344605      6.344070    -0.000535    Cartesian   -0.01
    351 x         -6.344605     -6.341320     0.003284    Cartesian   -0.05
    351 y         -3.806763     -3.806161     0.000602    Cartesian   -0.02
    351 z          6.344605      6.344003    -0.000602    Cartesian   -0.01
    352 x          3.806763      3.810953     0.004190    Cartesian    0.11
    352 y         -1.268921     -1.265159     0.003762    Cartesian   -0.30
    352 z         11.420288     11.435451     0.015163    Cartesian    0.13
    353 x          3.806763      3.804000    -0.002763    Cartesian   -0.07
    353 y          3.806763      3.802809    -0.003954    Cartesian   -0.10
    353 z         11.420288     11.435676     0.015387    Cartesian    0.13
    354 x         -8.882446     -8.889885    -0.007439    Cartesian    0.08
    354 y         -1.268921     -1.268906     0.000014    Cartesian   -0.00
    354 z          1.268921      1.270119     0.001198    Cartesian    0.09
    355 x          1.268921      1.274580     0.005660    Cartesian    0.45
    355 y         -6.344605     -6.342428     0.002176    Cartesian   -0.03
    355 z          8.882446      8.880270    -0.002176    Cartesian   -0.02
    356 x          1.268921      1.269212     0.000291    Cartesian    0.02
    356 y          8.882446      8.880552    -0.001894    Cartesian   -0.02
    356 z          8.882446      8.880552    -0.001894    Cartesian   -0.02
    357 x         10.151367     10.158350     0.006983    Cartesian    0.07
    357 y          7.613525      7.621466     0.007941    Cartesian    0.10
    357 z          2.537842      2.539921     0.002080    Cartesian    0.08
    358 x         -1.268921     -1.263960     0.004961    Cartesian   -0.39
    358 y          3.806763      3.805230    -0.001533    Cartesian   -0.04
    358 z         -8.882446     -8.880838     0.001608    Cartesian   -0.02
    359 x         -1.268921     -1.267950     0.000971    Cartesian   -0.08
    359 y          3.806763      3.809252     0.002489    Cartesian    0.07
    359 z         11.420288     11.422101     0.001813    Cartesian    0.02
    360 x          7.613525      7.613354    -0.000171    Cartesian   -0.00
    360 y         -5.075684     -5.081348    -0.005665    Cartesian    0.11
    360 z          7.613525      7.619190     0.005665    Cartesian    0.07
    361 x          7.613525      7.612588    -0.000937    Cartesian   -0.01
    361 y         10.151367     10.159148     0.007781    Cartesian    0.08
    361 z          2.537842      2.536528    -0.001313    Cartesian   -0.05
    362 x          8.882446      8.885880     0.003434    Cartesian    0.04
    362 y          8.882446      8.877702    -0.004745    Cartesian   -0.05
    362 z          3.806763      3.806906     0.000143    Cartesian    0.00
    363 x          8.882446      8.880577    -0.001870    Cartesian   -0.02
    363 y          8.882446      8.883175     0.000728    Cartesian    0.01
    363 z         -1.268921     -1.267104     0.001817    Cartesian   -0.14
    364 x         -6.344605     -6.343281     0.001323    Cartesian   -0.02
    364 y         -6.344605     -6.343609     0.000996    Cartesian   -0.02
    364 z          1.268921      1.267283    -0.001638    Cartesian   -0.13
    365 x          2.537842      2.535329    -0.002513    Cartesian   -0.10
    365 y         10.151367     10.156754     0.005387    Cartesian    0.05
    365 z          7.613525      7.616900     0.003374    Cartesian    0.04
    366 x          3.806763      3.809186     0.002423    Cartesian    0.06
    366 y          8.882446      8.879720    -0.002726    Cartesian   -0.03
    366 z          8.882446      8.879720    -0.002726    Cartesian   -0.03
    367 x          3.806763      3.804941    -0.001822    Cartesian   -0.05
    367 y         -6.344605     -6.343717     0.000888    Cartesian   -0.01
    367 z          8.882446      8.881559    -0.000888    Cartesian   -0.01
    368 x         -8.882446     -8.873597     0.008849    Cartesian   -0.10
    368 y         -1.268921     -1.268121     0.000800    Cartesian   -0.06
    368 z         -1.268921     -1.268121     0.000800    Cartesian   -0.06
    369 x         -8.882446     -8.872824     0.009622    Cartesian   -0.11
    369 y         -1.268921     -1.267247     0.001674    Cartesian   -0.13
    369 z          3.806763      3.805089    -0.001674    Cartesian   -0.04
    370 x          0.000000     -0.002468    -0.002468    Cartesian *******
    370 y         -7.613525     -7.619881    -0.006355    Cartesian    0.08
    370 z          7.613525      7.617509     0.003984    Cartesian    0.05
    371 x         -1.268921     -1.265871     0.003050    Cartesian   -0.24
    371 y          8.882446      8.880758    -0.001688    Cartesian   -0.02
    371 z          8.882446      8.880758    -0.001688    Cartesian   -0.02
    372 x         11.420288     11.414338    -0.005950    Cartesian   -0.05
    372 y          6.344605      6.344814     0.000210    Cartesian    0.00
    372 z          1.268921      1.266919    -0.002002    Cartesian   -0.16
    373 x         -1.268921     -1.266886     0.002035    Cartesian   -0.16
    373 y         -6.344605     -6.342671     0.001934    Cartesian   -0.03
    373 z          8.882446      8.880513    -0.001934    Cartesian   -0.02
    374 x         -5.075684     -5.081819    -0.006136    Cartesian    0.12
    374 y          7.613525      7.616738     0.003212    Cartesian    0.04
    374 z          7.613525      7.616738     0.003212    Cartesian    0.04
    375 x         -5.075684     -5.081140    -0.005456    Cartesian    0.11
    375 y         -7.613525     -7.618005    -0.004480    Cartesian    0.06
    375 z          2.537842      2.537511    -0.000331    Cartesian   -0.01
    376 x         -7.613525     -7.618386    -0.004861    Cartesian    0.06
    376 y          7.613525      7.616550     0.003024    Cartesian    0.04
    376 z         -0.000000     -0.000737    -0.000737    Cartesian *******
    377 x          6.344605      6.340541    -0.004063    Cartesian   -0.06
    377 y          1.268921      1.264093    -0.004828    Cartesian   -0.38
    377 z         11.420288     11.433145     0.012857    Cartesian    0.11
    378 x         -6.344605     -6.340785     0.003819    Cartesian   -0.06
    378 y         -1.268921     -1.268343     0.000578    Cartesian   -0.05
    378 z          8.882446      8.880268    -0.002179    Cartesian   -0.02
    379 x         -6.344605     -6.340163     0.004442    Cartesian   -0.07
    379 y          3.806763      3.804927    -0.001836    Cartesian   -0.05
    379 z          8.882446      8.881593    -0.000853    Cartesian   -0.01
    380 x         12.689209     12.692283     0.003074    Cartesian    0.02
    380 y          2.537842      2.544370     0.006528    Cartesian    0.26
    380 z          0.000000     -0.006528    -0.006528    Cartesian *******
    381 x          1.268921      1.271450     0.002529    Cartesian    0.20
    381 y         -8.882446     -8.877830     0.004616    Cartesian   -0.05
    381 z          6.344605      6.341292    -0.003312    Cartesian   -0.05
    382 x          1.268921      1.268354    -0.000567    Cartesian   -0.04
    382 y          6.344605      6.343714    -0.000890    Cartesian   -0.01
    382 z         11.420288     11.419106    -0.001182    Cartesian   -0.01
    383 x         10.151367     10.158886     0.007519    Cartesian    0.07
    383 y          7.613525      7.620406     0.006881    Cartesian    0.09
    383 z         -2.537842     -2.540657    -0.002815    Cartesian    0.11
    384 x         11.420288     11.413188    -0.007100    Cartesian   -0.06
    384 y          6.344605      6.344727     0.000123    Cartesian    0.00
    384 z          3.806763      3.809327     0.002565    Cartesian    0.07
    385 x         11.420288     11.416670    -0.003618    Cartesian   -0.03
    385 y         -1.268921     -1.265923     0.002998    Cartesian   -0.24
    385 z          6.344605      6.339435    -0.005170    Cartesian   -0.08
    386 x          7.613525      7.619422     0.005897    Cartesian    0.08
    386 y         -2.537842     -2.543855    -0.006013    Cartesian    0.24
    386 z         10.151367     10.157089     0.005721    Cartesian    0.06
    387 x         -3.806763     -3.803525     0.003238    Cartesian   -0.09
    387 y         -8.882446     -8.877946     0.004500    Cartesian   -0.05
    387 z          1.268921      1.267067    -0.001853    Cartesian   -0.15
    388 x          5.075684      5.077180     0.001496    Cartesian    0.03
    388 y         -5.075684     -5.080236    -0.004552    Cartesian    0.09
    388 z         10.151367     10.158464     0.007096    Cartesian    0.07
    389 x          6.344605      6.342826    -0.001779    Cartesian   -0.03
    389 y         -1.268921     -1.268691     0.000230    Cartesian   -0.02
    389 z         11.420288     11.398286    -0.022002    Cartesian   -0.19
    390 x          6.344605      6.343149    -0.001455    Cartesian   -0.02
    390 y          3.806763      3.803074    -0.003689    Cartesian   -0.10
    390 z         11.420288     11.406194    -0.014095    Cartesian   -0.12
    391 x          2.537842      2.531582    -0.006260    Cartesian   -0.25
    391 y         -0.000000     -0.007499    -0.007499    Cartesian *******
    391 z         12.689209     12.696366     0.007157    Cartesian    0.06
    392 x         -8.882446     -8.871663     0.010783    Cartesian   -0.12
    392 y          1.268921      1.269377     0.000456    Cartesian    0.04
    392 z          6.344605      6.343889    -0.000716    Cartesian   -0.01
    393 x          3.806763      3.807120     0.000358    Cartesian    0.01
    393 y         -3.806763     -3.805037     0.001725    Cartesian   -0.05
    393 z         11.420288     11.408837    -0.011451    Cartesian   -0.10
    394 x          3.806763      3.805428    -0.001334    Cartesian   -0.04
    394 y         11.420288     11.406629    -0.013659    Cartesian   -0.12
    394 z          6.344605      6.341167    -0.003438    Cartesian   -0.05
    395 x          0.000000     -0.001475    -0.001475    Cartesian *******
    395 y          2.537842      2.536682    -0.001160    Cartesian   -0.05
    395 z         12.689209     12.699896     0.010687    Cartesian    0.08
    396 x         -2.537842     -2.543281    -0.005439    Cartesian    0.21
    396 y         10.151367     10.157121     0.005754    Cartesian    0.06
    396 z          7.613525      7.618821     0.005296    Cartesian    0.07
    397 x         -1.268921     -1.266001     0.002919    Cartesian   -0.23
    397 y          6.344605      6.341226    -0.003378    Cartesian   -0.05
    397 z         11.420288     11.410582    -0.009707    Cartesian   -0.08
    398 x         -1.268921     -1.265753     0.003168    Cartesian   -0.25
    398 y         -3.806763     -3.805376     0.001387    Cartesian   -0.04
    398 z         11.420288     11.412570    -0.007718    Cartesian   -0.07
    399 x         -5.075684     -5.082399    -0.006715    Cartesian    0.13
    399 y          5.075684      5.079136     0.003452    Cartesian    0.07
    399 z         10.151367     10.157302     0.005935    Cartesian    0.06
    400 x          8.882446      8.873377    -0.009069    Cartesian   -0.10
    400 y         -6.344605     -6.336265     0.008340    Cartesian   -0.13
    400 z         -3.806763     -3.800473     0.006289    Cartesian   -0.17
    401 x          8.882446      8.882250    -0.000196    Cartesian   -0.00
    401 y         -3.806763     -3.804730     0.002032    Cartesian   -0.05
    401 z          8.882446      8.880183    -0.002263    Cartesian   -0.03
    402 x         -3.806763     -3.803306     0.003457    Cartesian   -0.09
    402 y          3.806763      3.804103    -0.002659    Cartesian   -0.07
    402 z         11.420288     11.412021    -0.008268    Cartesian   -0.07
    403 x         -3.806763     -3.801676     0.005087    Cartesian   -0.13
    403 y         -1.268921     -1.267990     0.000930    Cartesian   -0.07
    403 z         11.420288     11.412484    -0.007804    Cartesian   -0.07
    404 x         -7.613525     -7.621291    -0.007766    Cartesian    0.10
    404 y          7.613525      7.617072     0.003546    Cartesian    0.05
    404 z          5.075684      5.077447     0.001764    Cartesian    0.03
    405 x          6.344605      6.345276     0.000672    Cartesian    0.01
    405 y         -6.344605     -6.340701     0.003904    Cartesian   -0.06
    405 z          8.882446      8.878543    -0.003904    Cartesian   -0.04
    406 x          6.344605      6.339264    -0.005341    Cartesian   -0.08
    406 y          8.882446      8.873545    -0.008901    Cartesian   -0.10
    406 z          8.882446      8.873545    -0.008901    Cartesian   -0.10
    407 x        -10.151367    -10.159840    -0.008473    Cartesian    0.08
    407 y         -0.000000     -0.002527    -0.002527    Cartesian *******
    407 z         -0.000000     -0.002527    -0.002527    Cartesian *******
    408 x         -8.882446     -8.878892     0.003555    Cartesian   -0.04
    408 y          6.344605      6.341784    -0.002820    Cartesian   -0.04
    408 z          3.806763      3.805490    -0.001273    Cartesian   -0.03
    409 x         -8.882446     -8.874979     0.007467    Cartesian   -0.08
    409 y         -1.268921     -1.266678     0.002243    Cartesian   -0.18
    409 z          6.344605      6.341654    -0.002950    Cartesian   -0.05
    410 x         12.689209     12.700432     0.011223    Cartesian    0.09
    410 y          2.537842      2.537884     0.000042    Cartesian    0.00
    410 z          5.075684      5.076905     0.001222    Cartesian    0.02
--------------------------------------------------------------------------------


  Time to end of optimisation  =      101.1848 seconds


  Peak dynamic memory used =     407.04 MB 


  Timing analysis for GULP :

--------------------------------------------------------------------------------
  Task / Subroutine                                          Time (Seconds)
--------------------------------------------------------------------------------
  Calculation of reciprocal space energy and derivatives          0.0002
  Calculation of reciprocal space energy using symmetry           0.0002
  Calculation of real space energy and derivatives                0.0020
  Calculation of real space energy using symmetry                 0.0070
  Calculation for region 1 energy and derivatives (2-b)          25.7315
  Calculation for region 2a energy                               62.9909
  Calculation for region 2b energy                                0.0093
  Calculation and manipulation of Hessian matrix                 11.1810
  Calculation of matrix inversion                                 0.8390
  Symmetry generation of equivalent positions                     0.0016
--------------------------------------------------------------------------------
  Total CPU time                                                101.1848
--------------------------------------------------------------------------------


  Dump file written as ZrO2.grs


  Job Finished at 11:59.55 14th October    2020                               

