********************************************************************************
*                       GENERAL UTILITY LATTICE PROGRAM                        *
*                                 Julian Gale                                  *
*                       Curtin Institute for Computation                       *
*                    School of Molecular and Life Sciences                     *
*                    Curtin University, Western Australia                      *
********************************************************************************
* Version = 5.2.0 * Last modified =  10th September 2020                       *
********************************************************************************
* Zirconia doped with calcium                                                  *
*  optimise     - perform optimisation run                                     *
*  conp         - constant pressure calculation                                *
*  property     - calculate properties for final geometry                      *
*  defect       - perform defect calculation after bulk run                    *
*  distance     - calculate distances                                          *
*  compare      - compare initial and final structures                         *
********************************************************************************
* Zirconia doped with calcium                                                  *
********************************************************************************


  Job Started  at 12:01.43 14th October    2020                               

  Number of CPUs =     1


  Total number of configurations input =      1

********************************************************************************
*  Input for Configuration =   1 : ZrO2                                        *
********************************************************************************

  Formula = ZrO2                                                        

  Number of irreducible atoms/shells =       4


  Total number atoms/shells =       6

  Dimensionality = 3               :  Bulk   


  Symmetry :

  Crystal family                   :  Cubic       
  Crystal class  (Groth - 1921)    :  Cubic Hexakisoctahedral              

  Space group (centrosymmetric)    :  F M 3 M         

  Patterson group                  :  F m -3 m 

  Cartesian lattice vectors (Angstroms) :

        0.000000    2.535000    2.535000
        2.535000    0.000000    2.535000
        2.535000    2.535000    0.000000

  Primitive cell parameters :            Full cell parameters :

  a =   3.5850    alpha =  60.0000       a =   5.0700    alpha =  90.0000
  b =   3.5850    beta  =  60.0000       b =   5.0700    beta  =  90.0000
  c =   3.5850    gamma =  60.0000       c =   5.0700    gamma =  90.0000

  Initial volumes (Angstroms**3):

  Primitive cell =          32.580961    Full cell =         130.323843

  Temperature of configuration =   0.00     K 

  Pressure of configuration =         0.000 GPa 

  Fractional coordinates of asymmetric unit :

--------------------------------------------------------------------------------
   No.  Atomic       x           y          z         Charge      Occupancy
        Label      (Frac)      (Frac)     (Frac)        (e)         (Frac)  
--------------------------------------------------------------------------------
      1 Zr    c    0.000000    0.000000    0.000000     2.65000    1.000000    
      2 O     c    0.250000    0.250000    0.250000     0.07700    1.000000    
      3 Zr    s    0.000000    0.000000    0.000000     1.35000    1.000000    
      4 O     s    0.250000    0.250000    0.250000    -2.07700    1.000000    
--------------------------------------------------------------------------------


  Constraints : 

--------------------------------------------------------------------------------
  Constraint no.      Unconstrained     Constrained    Coefficient    Offset
                         Variable         Variable
--------------------------------------------------------------------------------
           1              Strain 1        Strain 2       1.00000      0.0000
           2              Strain 1        Strain 3       1.00000      0.0000
--------------------------------------------------------------------------------


  Distance calculation :


  Cutoff for distances  =      4.000000 Angstroms

--------------------------------------------------------------------------------
  Asymmetric unit site  Full lattice sites    No.  Distance      No.  Distance
      No.   At.No.            At.No.                (Angs)             (Angs) 
--------------------------------------------------------------------------------
       1   Zr    core        Zr    core        12    3.5850
                             Zr    shell       12    3.5850
                             O     core         8    2.1954
                             O     shell        8    2.1954
--------------------------------------------------------------------------------
       2   O     core        Zr    core         4    2.1954
                             Zr    shell        4    2.1954
                             O     core         6    2.5350       12    3.5850
                             O     shell        6    2.5350       12    3.5850
--------------------------------------------------------------------------------
       3   Zr    shell       Zr    core        12    3.5850
                             Zr    shell       12    3.5850
                             O     core         8    2.1954
                             O     shell        8    2.1954
--------------------------------------------------------------------------------
       4   O     shell       Zr    core         4    2.1954
                             Zr    shell        4    2.1954
                             O     core         6    2.5350       12    3.5850
                             O     shell        6    2.5350       12    3.5850
--------------------------------------------------------------------------------



********************************************************************************
*  General input information                                                   *
********************************************************************************

  Species output for all configurations : 

--------------------------------------------------------------------------------
  Species    Type    Atomic    Atomic    Charge       Radii (Angs)     Library
                     Number     Mass       (e)     Cova   Ionic  VDW   Symbol
--------------------------------------------------------------------------------
    Zr       Core       40      91.22   2.650000   1.560  0.000  2.330          
    Zr       Shell      40       0.00   1.350000   1.560  0.000  2.330          
    O        Core        8      16.00   0.077000   0.730  0.000  1.360          
    O        Shell       8       0.00  -2.077000   0.730  0.000  1.360          
--------------------------------------------------------------------------------


  Lattice summation method               =    Ewald          (3-D)
                                         =    Parry          (2-D)
                                         =    Saunders et al (1-D)
  Accuracy factor for lattice sums       =   12.000


  Analytic derivatives to be used

  Time limit = Infinity

  Maximum range for interatomic potentials =    100000.000000 Angstroms

  General interatomic potentials :

--------------------------------------------------------------------------------
Atom  Types   Potential      Parameter       Value         Units   Cutoffs(Ang)
  1     2                                                            Min /  Max 
--------------------------------------------------------------------------------
O    s Zr   s Buckingham    Buckingham A     985.86900    eV        0.000 12.000
                            Buckingham rho  0.37600000    Ang       
                            Buckingham C     0.0000000    eV*Ang^6  
--------------------------------------------------------------------------------
O    s O    s Buckingham    Buckingham A     22764.300    eV        0.000 12.000
                            Buckingham rho  0.14900000    Ang       
                            Buckingham C     27.890000    eV*Ang^6  
--------------------------------------------------------------------------------
Zr   c Zr   s Spring (c-s)  Spring k 2       169.61700    eV*Ang^-2 0.000  0.800
                            Spring k 4       0.0000000    eV*Ang^-4 
--------------------------------------------------------------------------------
O    c O    s Spring (c-s)  Spring k 2       27.290000    eV*Ang^-2 0.000  0.800
                            Spring k 4       0.0000000    eV*Ang^-4 
--------------------------------------------------------------------------------

********************************************************************************
*  Output for configuration   1 : ZrO2                                         *
********************************************************************************


  Components of energy : 

--------------------------------------------------------------------------------
  Interatomic potentials     =          22.43756329 eV    
  Monopole - monopole (real) =         -15.67991073 eV    
  Monopole - monopole (recip)=        -116.52038266 eV    
  Monopole - monopole (total)=        -132.20029339 eV    
--------------------------------------------------------------------------------
  Total lattice energy : 
    Primitive unit cell      =        -109.76273010 eV    
    Non-primitive unit cell  =        -439.05092039 eV    
--------------------------------------------------------------------------------
  Total lattice energy (in kJmol-1): 
    Primitive unit cell      =          -10590.4256 kJ/(mole unit cells)
    Non-primitive unit cell  =          -42361.7023 kJ/(mole unit cells)
--------------------------------------------------------------------------------


  Number of variables =        1

  Maximum number of calculations  =          1000
  Maximum Hessian update interval =            10
  Maximum step size               =   1.000000000
  Maximum parameter tolerance     =   0.000010000
  Maximum function  tolerance     =   0.000010000
  Maximum gradient  tolerance     =   0.001000000
  Maximum gradient  component     =   0.010000000

  Symmetry constrained optimisation

  Symmetry used for second derivatives

  Cell parameters to be optimised using strains

  Newton-Raphson optimiser to be used

  BFGS hessian update to be used

  Lower half triangular hessian to be used

  Start of bulk optimisation :

  Cycle:      0 Energy:      -109.762730  Gnorm:      0.588311  CPU:    0.006
  ** Hessian calculated **
  Cycle:      1 Energy:      -109.763059  Gnorm:      0.000316  CPU:    0.009


  **** Optimisation achieved ****


  Final energy =    -109.76305939 eV
  Final Gnorm  =       0.00000099

  Components of energy : 

--------------------------------------------------------------------------------
  Interatomic potentials     =          22.28919976 eV    
  Monopole - monopole (real) =         -15.66235280 eV    
  Monopole - monopole (recip)=        -116.38990634 eV    
  Monopole - monopole (total)=        -132.05225914 eV    
--------------------------------------------------------------------------------
  Total lattice energy : 
    Primitive unit cell      =        -109.76305939 eV    
    Non-primitive unit cell  =        -439.05223754 eV    
--------------------------------------------------------------------------------
  Total lattice energy (in kJmol-1): 
    Primitive unit cell      =          -10590.4573 kJ/(mole unit cells)
    Non-primitive unit cell  =          -42361.8294 kJ/(mole unit cells)
--------------------------------------------------------------------------------

  Final asymmetric unit coordinates :

--------------------------------------------------------------------------------
   No.  Atomic        x           y           z         Radius
        Label       (Frac)      (Frac)      (Frac)       (Angs) 
--------------------------------------------------------------------------------
     1  Zr    c     0.000000    0.000000    0.000000    0.000000
     2  O     c     0.250000    0.250000    0.250000    0.000000
     3  Zr    s     0.000000    0.000000    0.000000    0.000000
     4  O     s     0.250000    0.250000    0.250000    0.000000
--------------------------------------------------------------------------------

  Final Cartesian lattice vectors (Angstroms) :

        0.000000    2.537842    2.537842
        2.537842    0.000000    2.537842
        2.537842    2.537842    0.000000


  Final cell parameters and derivatives :

--------------------------------------------------------------------------------
       a            3.589050 Angstrom     dE/de1(xx)    -0.000001 eV/strain
       b            3.589050 Angstrom     dE/de2(yy)     0.000000 eV/strain
       c            3.589050 Angstrom     dE/de3(zz)     0.000000 eV/strain
       alpha       60.000000 Degrees      dE/de4(yz)     0.000000 eV/strain
       beta        60.000000 Degrees      dE/de5(xz)     0.000000 eV/strain
       gamma       60.000000 Degrees      dE/de6(xy)     0.000000 eV/strain
--------------------------------------------------------------------------------

  Primitive cell volume =            32.690656 Angs**3

  Density of cell =      6.259124 g/cm**3

  Non-primitive lattice parameters :

  a    =     5.075684  b   =     5.075684  c    =     5.075684
  alpha=    90.000000  beta=    90.000000  gamma=    90.000000

  Non-primitive cell volume =           130.762624 Angs**3


  Final internal derivatives :

--------------------------------------------------------------------------------
   No.  Atomic          a             b             c           Radius
        Label          (eV)          (eV)          (eV)        (eV/Angs)
--------------------------------------------------------------------------------
      1 Zr    c       0.000000      0.000000      0.000000      0.000000
      2 O     c       0.000000      0.000000      0.000000      0.000000
      3 Zr    s       0.000000      0.000000      0.000000      0.000000
      4 O     s       0.000000      0.000000      0.000000      0.000000
--------------------------------------------------------------------------------
  Maximum abs         0.000000      0.000000      0.000000      0.000000
--------------------------------------------------------------------------------

  Comparison of initial and final structures : 

--------------------------------------------------------------------------------
  Parameter   Initial value   Final value   Difference    Units      Percent
--------------------------------------------------------------------------------
    Volume       130.323843    130.762624     0.438781    Angs**3      0.34
    a              5.070000      5.075684     0.005684    Angstroms    0.11
    b              5.070000      5.075684     0.005684    Angstroms    0.11
    c              5.070000      5.075684     0.005684    Angstroms    0.11
    alpha         90.000000     90.000000     0.000000    Degrees      0.00
    beta          90.000000     90.000000     0.000000    Degrees      0.00
    gamma         90.000000     90.000000     0.000000    Degrees      0.00
      1 x          0.000000      0.000000     0.000000    Fractional   0.00
      1 y          0.000000      0.000000     0.000000    Fractional   0.00
      1 z          0.000000      0.000000     0.000000    Fractional   0.00
      2 x          0.250000      0.250000     0.000000    Fractional   0.00
      2 y          0.250000      0.250000     0.000000    Fractional   0.00
      2 z          0.250000      0.250000     0.000000    Fractional   0.00
      3 x          0.000000      0.000000     0.000000    Fractional   0.00
      3 y          0.000000      0.000000     0.000000    Fractional   0.00
      3 z          0.000000      0.000000     0.000000    Fractional   0.00
      4 x          0.250000      0.250000     0.000000    Fractional   0.00
      4 y          0.250000      0.250000     0.000000    Fractional   0.00
      4 z          0.250000      0.250000     0.000000    Fractional   0.00
--------------------------------------------------------------------------------


  Distance calculation :


  Cutoff for distances  =      4.000000 Angstroms

--------------------------------------------------------------------------------
  Asymmetric unit site  Full lattice sites    No.  Distance      No.  Distance
      No.   At.No.            At.No.                (Angs)             (Angs) 
--------------------------------------------------------------------------------
       1   Zr    core        Zr    core        12    3.5891
                             Zr    shell       12    3.5891
                             O     core         8    2.1978
                             O     shell        8    2.1978
--------------------------------------------------------------------------------
       2   O     core        Zr    core         4    2.1978
                             Zr    shell        4    2.1978
                             O     core         6    2.5378       12    3.5891
                             O     shell        6    2.5378       12    3.5891
--------------------------------------------------------------------------------
       3   Zr    shell       Zr    core        12    3.5891
                             Zr    shell       12    3.5891
                             O     core         8    2.1978
                             O     shell        8    2.1978
--------------------------------------------------------------------------------
       4   O     shell       Zr    core         4    2.1978
                             Zr    shell        4    2.1978
                             O     core         6    2.5378       12    3.5891
                             O     shell        6    2.5378       12    3.5891
--------------------------------------------------------------------------------



  Born effective charge tensors : 

-------------------------------------------------------------------------------
  Atom             x           y             z
-------------------------------------------------------------------------------
    1 Zr    x       3.6770      0.0000      0.0000
            y       0.0000      3.6770      0.0000
            z       0.0000      0.0000      3.6770
-------------------------------------------------------------------------------
    2 O     x      -1.8385      0.0000      0.0000
            y       0.0000     -1.8385     -0.0000
            z       0.0000     -0.0000     -1.8385
-------------------------------------------------------------------------------




  Elastic Constant Matrix: (Units=GPa)

-------------------------------------------------------------------------------
  Indices      1         2         3         4         5         6    
-------------------------------------------------------------------------------
       1    616.2933  119.6612  119.6612   -0.0000   -0.0000   -0.0000
       2    119.6612  616.2933  119.6612   -0.0000   -0.0000   -0.0000
       3    119.6612  119.6612  616.2933   -0.0000   -0.0000   -0.0000
       4     -0.0000   -0.0000   -0.0000  100.8598    0.0000   -0.0000
       5     -0.0000   -0.0000   -0.0000    0.0000  100.8598    0.0000
       6     -0.0000   -0.0000   -0.0000   -0.0000    0.0000  100.8598
-------------------------------------------------------------------------------


  Elastic Compliance Matrix: (Units=1/GPa)

-------------------------------------------------------------------------------
  Indices      1         2         3         4         5         6    
-------------------------------------------------------------------------------
       1    0.001732 -0.000282 -0.000282  0.000000  0.000000  0.000000
       2   -0.000282  0.001732 -0.000282 -0.000000  0.000000  0.000000
       3   -0.000282 -0.000282  0.001732  0.000000  0.000000  0.000000
       4    0.000000 -0.000000  0.000000  0.009915 -0.000000  0.000000
       5    0.000000  0.000000  0.000000 -0.000000  0.009915 -0.000000
       6    0.000000  0.000000  0.000000  0.000000 -0.000000  0.009915
-------------------------------------------------------------------------------

  Mechanical properties :

-------------------------------------------------------------------------------
  Convention :                    Reuss         Voigt         Hill
-------------------------------------------------------------------------------
  Bulk  Modulus (GPa)     =     285.20524     285.20524     285.20524
  Shear Modulus (GPa)     =     132.28031     159.84228     146.06129
-------------------------------------------------------------------------------
  Velocity S-wave (km/s)  =       4.59717       5.05346       4.83071
  Velocity P-wave (km/s)  =       8.58749       8.92280       8.75675
-------------------------------------------------------------------------------
  Compressibility (1/GPa) =    0.00350625
-------------------------------------------------------------------------------
  Stress axis :                     x             y             z
-------------------------------------------------------------------------------
  Youngs Moduli (GPa)     =     577.38110     577.38110     577.38110
-------------------------------------------------------------------------------
  Poissons Ratio (x)      =                     0.16259       0.16259
  Poissons Ratio (y)      =       0.16259                     0.16259
  Poissons Ratio (z)      =       0.16259       0.16259
-------------------------------------------------------------------------------


  Piezoelectric Strain Matrix: (Units=C/m**2)

-------------------------------------------------------------------------------
  Indices      1         2         3         4         5         6    
-------------------------------------------------------------------------------
       x    -0.00000   0.00000   0.00000   0.00000   0.00000   0.00000
       y    -0.00000  -0.00000  -0.00000   0.00000   0.00000   0.00000
       z    -0.00000  -0.00000  -0.00000   0.00000   0.00000   0.00000
-------------------------------------------------------------------------------


  Piezoelectric Stress Matrix: (Units=10**-11 C/N)

-------------------------------------------------------------------------------
  Indices      1         2         3         4         5         6    
-------------------------------------------------------------------------------
       x    -0.00000   0.00000   0.00000   0.00000   0.00000   0.00000
       y    -0.00000  -0.00000  -0.00000   0.00000   0.00000   0.00000
       z     0.00000   0.00000  -0.00000   0.00000   0.00000   0.00000
-------------------------------------------------------------------------------


  Static dielectric constant tensor : 

-------------------------------------------------------------------------------
              x         y         z
-------------------------------------------------------------------------------
       x    26.88485   0.00000   0.00000
       y     0.00000  26.88485   0.00000
       z     0.00000   0.00000  26.88485
--------------------------------------------------------------------------------

  High frequency dielectric constant tensor : 

-------------------------------------------------------------------------------
              x         y         z
-------------------------------------------------------------------------------
       x     2.63099   0.00000   0.00000
       y     0.00000   2.63099   0.00000
       z     0.00000   0.00000   2.63099
-------------------------------------------------------------------------------

  Static refractive indices : 

-------------------------------------------------------------------------------
    1 =    5.18506      2 =    5.18506      3 =    5.18506
-------------------------------------------------------------------------------

  High frequency refractive indices : 

-------------------------------------------------------------------------------
    1 =    1.62203      2 =    1.62203      3 =    1.62203
-------------------------------------------------------------------------------


  Time to end of optimisation =       0.0142 seconds

********************************************************************************
*  Defect calculation for configuration   1 :                                  *
********************************************************************************

  Total number of defects =      3

  Total charge on defect  =   2.00

  Defect centre is at   0.3200   0.2500   0.2500  Frac

  Region 1 radius =  12.0000      Number of ions =   1344

  Number of symmetry inequivalent region 1 ions  =    412

  Region 2 radius =  24.0000      Number of ions =   9292

  Number of symmetry inequivalent region 2a ions =   2556

  Region 2a mode = 4 : screened electrostatics due to region 1 
                       neglect correction to region 1 forces from 2a
                       region 2a displacements based on defects only

  Region 2a ions will only interact with defects in region 1

  Vacancies:

--------------------------------------------------------------------------------
    Specification type     Symbol/Number         x          y          z
--------------------------------------------------------------------------------
    Fractional                               0.250000   0.250000   0.250000
    Fractional                               0.750000   0.250000   0.250000
--------------------------------------------------------------------------------

  Interstitials:

--------------------------------------------------------------------------------
    Specification type     Symbol/Number         x          y          z
--------------------------------------------------------------------------------
    Atom/Fractional         O                0.320000   0.250000   0.250000
--------------------------------------------------------------------------------


  Symmetry reduced region 1 (Relative to defect centre) :

--------------------------------------------------------------------------------
   No.   Atomic       x            y             z       Radius  Multiplicity   
         Label      (Angs)       (Angs)        (Angs)    (Angs)     
--------------------------------------------------------------------------------
     1  O     c      0.0000       0.0000       0.0000    0.0000     1    Defect
     2  Zr    c      0.9136 *     1.2689 *    -1.2689    0.0000     2          
     3  Zr    c     -1.6242 *    -1.2689 *    -1.2689    0.0000     2          
     4  O     c     -0.3553 *     2.5378 *    -0.0000 *  0.0000     4          
     5  O     c     -2.8931 *    -0.0000      -0.0000    0.0000     1          
     6  O     c      2.1825 *     2.5378 *     0.0000 *  0.0000     4          
     7  O     c     -0.3553 *     2.5378 *     2.5378    0.0000     2          
     8  O     c     -0.3553 *    -2.5378 *     2.5378    0.0000     2          
     9  O     c     -2.8931 *     0.0000 *     2.5378 *  0.0000     4          
    10  Zr    c      3.4515 *     1.2689 *     1.2689    0.0000     2          
    11  Zr    c      0.9136 *     1.2689 *     3.8068 *  0.0000     4          
    12  O     c      2.1825 *     2.5378 *     2.5378    0.0000     2          
    13  O     c      2.1825 *     2.5378 *    -2.5378    0.0000     2          
    14  Zr    c     -1.6242 *    -3.8068 *     1.2689 *  0.0000     4          
    15  Zr    c     -4.1621 *    -1.2689 *     1.2689    0.0000     2          
    16  O     c     -2.8931 *     2.5378 *    -2.5378    0.0000     2          
    17  O     c     -2.8931 *     2.5378 *     2.5378    0.0000     2          
    18  O     c      4.7204 *     0.0000       0.0000    0.0000     1          
    19  O     c     -0.3553 *    -5.0757 *     0.0000 *  0.0000     4          
    20  Zr    c      3.4515 *     3.8068 *    -1.2689 *  0.0000     4          
    21  O     c      4.7204 *     2.5378 *    -0.0000 *  0.0000     4          
    22  O     c     -5.4310 *     0.0000       0.0000    0.0000     1          
    23  Zr    c      0.9136 *    -3.8068 *     3.8068    0.0000     2          
    24  O     c      2.1825 *     5.0757 *    -0.0000 *  0.0000     4          
    25  Zr    c     -1.6242 *     3.8068 *     3.8068    0.0000     2          
    26  O     c     -0.3553 *     5.0757 *     2.5378 *  0.0000     4          
    27  O     c     -0.3553 *    -2.5378 *     5.0757 *  0.0000     4          
    28  Zr    c     -4.1621 *     3.8068 *     1.2689 *  0.0000     4          
    29  O     c     -2.8931 *     5.0757 *    -0.0000 *  0.0000     4          
    30  O     c      4.7204 *     2.5378 *     2.5378    0.0000     2          
    31  O     c      4.7204 *     2.5378 *    -2.5378    0.0000     2          
    32  O     c     -5.4310 *    -2.5378 *    -0.0000 *  0.0000     4          
    33  O     c      2.1825 *    -5.0757 *     2.5378 *  0.0000     4          
    34  O     c      2.1825 *     5.0757 *     2.5378 *  0.0000     4          
    35  Zr    c      5.9893 *     1.2689 *    -1.2689    0.0000     2          
    36  O     c     -2.8931 *     5.0757 *     2.5378 *  0.0000     4          
    37  O     c     -2.8931 *    -5.0757 *     2.5378 *  0.0000     4          
    38  Zr    c      3.4515 *     3.8068 *     3.8068    0.0000     2          
    39  O     c     -5.4310 *     2.5378 *     2.5378    0.0000     2          
    40  O     c     -5.4310 *    -2.5378 *     2.5378    0.0000     2          
    41  Zr    c      0.9136 *    -1.2689 *     6.3446 *  0.0000     4          
    42  Zr    c     -1.6242 *     1.2689 *     6.3446 *  0.0000     4          
    43  Zr    c     -4.1621 *     3.8068 *    -3.8068    0.0000     2          
    44  O     c      4.7204 *     5.0757 *     0.0000 *  0.0000     4          
    45  Zr    c     -6.6999 *     1.2689 *     1.2689    0.0000     2          
    46  O     c     -0.3553 *     5.0757 *     5.0757    0.0000     2          
    47  O     c     -0.3553 *    -5.0757 *     5.0757    0.0000     2          
    48  Zr    c      5.9893 *    -3.8068 *    -1.2689 *  0.0000     4          
    49  O     c      7.2582 *    -0.0000      -0.0000    0.0000     1          
    50  Zr    c      3.4515 *    -6.3446 *    -1.2689 *  0.0000     4          
    51  O     c      4.7204 *     5.0757 *     2.5378 *  0.0000     4          
    52  O     c      4.7204 *     5.0757 *    -2.5378 *  0.0000     4          
    53  O     c     -5.4310 *    -5.0757 *     0.0000 *  0.0000     4          
    54  Zr    c      0.9136 *     3.8068 *     6.3446 *  0.0000     4          
    55  O     c      2.1825 *     5.0757 *     5.0757    0.0000     2          
    56  O     c      2.1825 *    -5.0757 *     5.0757    0.0000     2          
    57  Zr    c     -1.6242 *    -6.3446 *     3.8068 *  0.0000     4          
    58  O     c     -0.3553 *    -0.0000 *     7.6135 *  0.0000     4          
    59  O     c      7.2582 *     2.5378 *     0.0000 *  0.0000     4          
    60  Zr    c     -4.1621 *     1.2689 *    -6.3446 *  0.0000     4          
    61  O     c     -2.8931 *     5.0757 *     5.0757    0.0000     2          
    62  O     c     -2.8931 *     5.0757 *    -5.0757    0.0000     2          
    63  Zr    c     -6.6999 *     1.2689 *    -3.8068 *  0.0000     4          
    64  O     c     -5.4310 *     2.5378 *     5.0757 *  0.0000     4          
    65  O     c     -5.4310 *    -2.5378 *     5.0757 *  0.0000     4          
    66  O     c      2.1825 *     0.0000 *     7.6135 *  0.0000     4          
    67  O     c     -7.9688 *    -0.0000      -0.0000    0.0000     1          
    68  O     c     -0.3553 *     2.5378 *     7.6135 *  0.0000     4          
    69  O     c     -0.3553 *    -7.6135 *     2.5378 *  0.0000     4          
    70  Zr    c      5.9893 *     3.8068 *    -3.8068    0.0000     2          
    71  O     c      7.2582 *     2.5378 *    -2.5378    0.0000     2          
    72  O     c      7.2582 *     2.5378 *     2.5378    0.0000     2          
    73  O     c     -2.8931 *    -7.6135 *     0.0000 *  0.0000     4          
    74  Zr    c      3.4515 *    -3.8068 *     6.3446 *  0.0000     4          
    75  O     c      2.1825 *     2.5378 *     7.6135 *  0.0000     4          
    76  O     c      2.1825 *    -2.5378 *     7.6135 *  0.0000     4          
    77  O     c     -7.9688 *    -2.5378 *     0.0000 *  0.0000     4          
    78  Zr    c     -4.1621 *     3.8068 *     6.3446 *  0.0000     4          
    79  O     c     -2.8931 *    -2.5378 *     7.6135 *  0.0000     4          
    80  O     c     -2.8931 *     2.5378 *     7.6135 *  0.0000     4          
    81  O     c      4.7204 *    -5.0757 *     5.0757    0.0000     2          
    82  O     c      4.7204 *     5.0757 *     5.0757    0.0000     2          
    83  Zr    c     -6.6999 *     3.8068 *     3.8068    0.0000     2          
    84  Zr    c      8.5271 *     1.2689 *     1.2689    0.0000     2          
    85  O     c     -7.9688 *    -2.5378 *    -2.5378    0.0000     2          
    86  O     c     -7.9688 *    -2.5378 *     2.5378    0.0000     2          
    87  Zr    c      5.9893 *     6.3446 *    -1.2689 *  0.0000     4          
    88  O     c      7.2582 *     5.0757 *    -0.0000 *  0.0000     4          
    89  O     c      4.7204 *     7.6135 *    -0.0000 *  0.0000     4          
    90  O     c     -5.4310 *    -5.0757 *    -5.0757    0.0000     2          
    91  O     c     -5.4310 *    -5.0757 *     5.0757    0.0000     2          
    92  Zr    c      0.9136 *    -6.3446 *     6.3446    0.0000     2          
    93  Zr    c      0.9136 *     1.2689 *     8.8824 *  0.0000     4          
    94  Zr    c     -1.6242 *     6.3446 *     6.3446    0.0000     2          
    95  Zr    c     -1.6242 *    -1.2689 *     8.8824 *  0.0000     4          
    96  O     c     -0.3553 *     7.6135 *     5.0757 *  0.0000     4          
    97  O     c     -0.3553 *    -5.0757 *     7.6135 *  0.0000     4          
    98  O     c      7.2582 *    -2.5378 *    -5.0757 *  0.0000     4          
    99  O     c      7.2582 *     5.0757 *    -2.5378 *  0.0000     4          
   100  O     c      4.7204 *    -2.5378 *     7.6135 *  0.0000     4          
   101  O     c      4.7204 *     7.6135 *     2.5378 *  0.0000     4          
   102  Zr    c     -6.6999 *    -6.3446 *    -1.2689 *  0.0000     4          
   103  O     c     -5.4310 *    -0.0000 *     7.6135 *  0.0000     4          
   104  O     c      2.1825 *     5.0757 *     7.6135 *  0.0000     4          
   105  O     c      2.1825 *    -7.6135 *     5.0757 *  0.0000     4          
   106  Zr    c     -9.2377 *    -1.2689 *     1.2689    0.0000     2          
   107  Zr    c      8.5271 *     3.8068 *    -1.2689 *  0.0000     4          
   108  O     c     -7.9688 *    -0.0000 *     5.0757 *  0.0000     4          
   109  Zr    c      5.9893 *     6.3446 *     3.8068 *  0.0000     4          
   110  O     c     -2.8931 *     5.0757 *     7.6135 *  0.0000     4          
   111  O     c     -2.8931 *    -7.6135 *     5.0757 *  0.0000     4          
   112  Zr    c      3.4515 *     6.3446 *     6.3446    0.0000     2          
   113  Zr    c      3.4515 *    -1.2689 *     8.8824 *  0.0000     4          
   114  O     c     -5.4310 *    -7.6135 *    -2.5378 *  0.0000     4          
   115  O     c     -5.4310 *    -7.6135 *     2.5378 *  0.0000     4          
   116  Zr    c      0.9136 *     8.8824 *    -3.8068 *  0.0000     4          
   117  O     c     -7.9688 *    -2.5378 *    -5.0757 *  0.0000     4          
   118  O     c     -7.9688 *     2.5378 *    -5.0757 *  0.0000     4          
   119  O     c      9.7961 *     0.0000       0.0000    0.0000     1          
   120  Zr    c     -1.6242 *     3.8068 *     8.8824 *  0.0000     4          
   121  Zr    c     -4.1621 *     6.3446 *    -6.3446    0.0000     2          
   122  Zr    c     -4.1621 *     8.8824 *     1.2689 *  0.0000     4          
   123  Zr    c     -6.6999 *     3.8068 *    -6.3446 *  0.0000     4          
   124  Zr    c     -9.2377 *    -1.2689 *    -3.8068 *  0.0000     4          
   125  Zr    c      8.5271 *     3.8068 *     3.8068    0.0000     2          
   126  O     c      9.7961 *     2.5378 *    -0.0000 *  0.0000     4          
   127  O     c     -0.3553 *    -0.0000 *    10.1514 *  0.0000     4          
   128  O     c      7.2582 *     5.0757 *     5.0757    0.0000     2          
   129  O     c      7.2582 *     5.0757 *    -5.0757    0.0000     2          
   130  Zr    c      3.4515 *     8.8824 *     3.8068 *  0.0000     4          
   131  O     c      4.7204 *     5.0757 *     7.6135 *  0.0000     4          
   132  O     c      4.7204 *    -5.0757 *     7.6135 *  0.0000     4          
   133  O     c      2.1825 *    -0.0000 *    10.1514 *  0.0000     4          
   134  O     c      9.7961 *     2.5378 *     2.5378    0.0000     2          
   135  O     c      9.7961 *     2.5378 *    -2.5378    0.0000     2          
   136  O     c     -0.3553 *    -2.5378 *    10.1514 *  0.0000     4          
   137  O     c     -0.3553 *     2.5378 *    10.1514 *  0.0000     4          
   138  O     c    -10.5067 *    -0.0000       0.0000    0.0000     1          
   139  O     c      7.2582 *     7.6135 *     0.0000 *  0.0000     4          
   140  Zr    c     -4.1621 *    -8.8824 *     3.8068 *  0.0000     4          
   141  O     c     -2.8931 *    10.1514 *    -0.0000 *  0.0000     4          
   142  O     c     -5.4310 *     7.6135 *     5.0757 *  0.0000     4          
   143  O     c     -5.4310 *    -5.0757 *     7.6135 *  0.0000     4          
   144  O     c      2.1825 *    -2.5378 *    10.1514 *  0.0000     4          
   145  O     c      2.1825 *     2.5378 *    10.1514 *  0.0000     4          
   146  Zr    c     -9.2377 *    -3.8068 *     3.8068    0.0000     2          
   147  Zr    c      8.5271 *     1.2689 *     6.3446 *  0.0000     4          
   148  O     c     -7.9688 *     5.0757 *     5.0757    0.0000     2          
   149  O     c     -7.9688 *    -5.0757 *     5.0757    0.0000     2          
   150  O     c     -0.3553 *    -7.6135 *     7.6135    0.0000     2          
   151  O     c     -0.3553 *     7.6135 *     7.6135    0.0000     2          
   152  Zr    c      5.9893 *     6.3446 *    -6.3446    0.0000     2          
   153  Zr    c      5.9893 *     8.8824 *     1.2689 *  0.0000     4          
   154  O     c    -10.5067 *    -2.5378 *    -0.0000 *  0.0000     4          
   155  O     c      7.2582 *     7.6135 *     2.5378 *  0.0000     4          
   156  O     c      7.2582 *     7.6135 *    -2.5378 *  0.0000     4          
   157  O     c     -2.8931 *   -10.1514 *     2.5378 *  0.0000     4          
   158  O     c     -2.8931 *     2.5378 *    10.1514 *  0.0000     4          
   159  Zr    c      0.9136 *     6.3446 *     8.8824 *  0.0000     4          
   160  O     c      2.1825 *     7.6135 *     7.6135    0.0000     2          
   161  O     c      2.1825 *    -7.6135 *     7.6135    0.0000     2          
   162  O     c     -7.9688 *    -7.6135 *     0.0000 *  0.0000     4          
   163  O     c      9.7961 *     5.0757 *     0.0000 *  0.0000     4          
   164  Zr    c     -1.6242 *    -8.8824 *     6.3446 *  0.0000     4          
   165  O     c    -10.5067 *    -2.5378 *    -2.5378    0.0000     2          
   166  O     c    -10.5067 *    -2.5378 *     2.5378    0.0000     2          
   167  O     c     -2.8931 *     7.6135 *     7.6135    0.0000     2          
   168  O     c     -2.8931 *    -7.6135 *     7.6135    0.0000     2          
   169  O     c      4.7204 *     0.0000 *    10.1514 *  0.0000     4          
   170  Zr    c     -6.6999 *     6.3446 *     6.3446    0.0000     2          
   171  Zr    c     -6.6999 *    -8.8824 *     1.2689 *  0.0000     4          
   172  Zr    c     11.0650 *     1.2689 *    -1.2689    0.0000     2          
   173  Zr    c     -9.2377 *     1.2689 *    -6.3446 *  0.0000     4          
   174  Zr    c      8.5271 *     3.8068 *    -6.3446 *  0.0000     4          
   175  O     c     -7.9688 *     7.6135 *    -2.5378 *  0.0000     4          
   176  O     c     -7.9688 *     7.6135 *     2.5378 *  0.0000     4          
   177  O     c      9.7961 *     5.0757 *     2.5378 *  0.0000     4          
   178  O     c      9.7961 *    -2.5378 *     5.0757 *  0.0000     4          
   179  O     c     -0.3553 *   -10.1514 *     5.0757 *  0.0000     4          
   180  O     c     -0.3553 *     5.0757 *    10.1514 *  0.0000     4          
   181  Zr    c      5.9893 *    -3.8068 *     8.8824 *  0.0000     4          
   182  Zr    c      3.4515 *    -6.3446 *     8.8824 *  0.0000     4          
   183  O     c      4.7204 *    -2.5378 *    10.1514 *  0.0000     4          
   184  O     c      4.7204 *    10.1514 *     2.5378 *  0.0000     4          
   185  O     c     -5.4310 *   -10.1514 *     0.0000 *  0.0000     4          
   186  Zr    c      0.9136 *    -1.2689 *    11.4203 *  0.0000     4          
   187  O     c      2.1825 *    10.1514 *     5.0757 *  0.0000     4          
   188  O     c      2.1825 *    -5.0757 *    10.1514 *  0.0000     4          
   189  Zr    c     -1.6242 *     1.2689 *    11.4203 *  0.0000     4          
   190  O     c    -10.5067 *    -0.0000 *     5.0757 *  0.0000     4          
   191  O     c      7.2582 *    -5.0757 *     7.6135 *  0.0000     4          
   192  O     c      7.2582 *     7.6135 *     5.0757 *  0.0000     4          
   193  Zr    c     -4.1621 *     6.3446 *     8.8824 *  0.0000     4          
   194  O     c     -2.8931 *    -5.0757 *    10.1514 *  0.0000     4          
   195  O     c     -2.8931 *     5.0757 *    10.1514 *  0.0000     4          
   196  O     c      4.7204 *    -7.6135 *     7.6135    0.0000     2          
   197  O     c      4.7204 *     7.6135 *     7.6135    0.0000     2          
   198  Zr    c     -6.6999 *     3.8068 *     8.8824 *  0.0000     4          
   199  Zr    c     11.0650 *     3.8068 *     1.2689 *  0.0000     4          
   200  O     c     -5.4310 *     2.5378 *    10.1514 *  0.0000     4          
   201  O     c     -5.4310 *    -2.5378 *    10.1514 *  0.0000     4          
   202  Zr    c     -9.2377 *    -3.8068 *    -6.3446 *  0.0000     4          
   203  Zr    c    -11.7756 *    -1.2689 *    -1.2689    0.0000     2          
   204  O     c    -10.5067 *     5.0757 *     2.5378 *  0.0000     4          
   205  O     c    -10.5067 *    -2.5378 *     5.0757 *  0.0000     4          
   206  Zr    c      3.4515 *    -1.2689 *   -11.4203 *  0.0000     4          
   207  O     s      0.0000       0.0000       0.0000    0.0000     1    Defect
   208  Zr    s      0.9136 *     1.2689 *    -1.2689    0.0000     2          
   209  Zr    s     -1.6242 *    -1.2689 *    -1.2689    0.0000     2          
   210  O     s     -0.3553 *     2.5378 *    -0.0000 *  0.0000     4          
   211  O     s     -2.8931 *    -0.0000      -0.0000    0.0000     1          
   212  O     s      2.1825 *     2.5378 *     0.0000 *  0.0000     4          
   213  O     s     -0.3553 *     2.5378 *     2.5378    0.0000     2          
   214  O     s     -0.3553 *    -2.5378 *     2.5378    0.0000     2          
   215  O     s     -2.8931 *     0.0000 *     2.5378 *  0.0000     4          
   216  Zr    s      3.4515 *     1.2689 *     1.2689    0.0000     2          
   217  Zr    s      0.9136 *     1.2689 *     3.8068 *  0.0000     4          
   218  O     s      2.1825 *     2.5378 *     2.5378    0.0000     2          
   219  O     s      2.1825 *     2.5378 *    -2.5378    0.0000     2          
   220  Zr    s     -1.6242 *    -3.8068 *     1.2689 *  0.0000     4          
   221  Zr    s     -4.1621 *    -1.2689 *     1.2689    0.0000     2          
   222  O     s     -2.8931 *     2.5378 *    -2.5378    0.0000     2          
   223  O     s     -2.8931 *     2.5378 *     2.5378    0.0000     2          
   224  O     s      4.7204 *     0.0000       0.0000    0.0000     1          
   225  O     s     -0.3553 *    -5.0757 *     0.0000 *  0.0000     4          
   226  Zr    s      3.4515 *     3.8068 *    -1.2689 *  0.0000     4          
   227  O     s      4.7204 *     2.5378 *    -0.0000 *  0.0000     4          
   228  O     s     -5.4310 *     0.0000       0.0000    0.0000     1          
   229  Zr    s      0.9136 *    -3.8068 *     3.8068    0.0000     2          
   230  O     s      2.1825 *     5.0757 *    -0.0000 *  0.0000     4          
   231  Zr    s     -1.6242 *     3.8068 *     3.8068    0.0000     2          
   232  O     s     -0.3553 *     5.0757 *     2.5378 *  0.0000     4          
   233  O     s     -0.3553 *    -2.5378 *     5.0757 *  0.0000     4          
   234  Zr    s     -4.1621 *     3.8068 *     1.2689 *  0.0000     4          
   235  O     s     -2.8931 *     5.0757 *    -0.0000 *  0.0000     4          
   236  O     s      4.7204 *     2.5378 *     2.5378    0.0000     2          
   237  O     s      4.7204 *     2.5378 *    -2.5378    0.0000     2          
   238  O     s     -5.4310 *    -2.5378 *    -0.0000 *  0.0000     4          
   239  O     s      2.1825 *    -5.0757 *     2.5378 *  0.0000     4          
   240  O     s      2.1825 *     5.0757 *     2.5378 *  0.0000     4          
   241  Zr    s      5.9893 *     1.2689 *    -1.2689    0.0000     2          
   242  O     s     -2.8931 *     5.0757 *     2.5378 *  0.0000     4          
   243  O     s     -2.8931 *    -5.0757 *     2.5378 *  0.0000     4          
   244  Zr    s      3.4515 *     3.8068 *     3.8068    0.0000     2          
   245  O     s     -5.4310 *     2.5378 *     2.5378    0.0000     2          
   246  O     s     -5.4310 *    -2.5378 *     2.5378    0.0000     2          
   247  Zr    s      0.9136 *    -1.2689 *     6.3446 *  0.0000     4          
   248  Zr    s     -1.6242 *     1.2689 *     6.3446 *  0.0000     4          
   249  Zr    s     -4.1621 *     3.8068 *    -3.8068    0.0000     2          
   250  O     s      4.7204 *     5.0757 *     0.0000 *  0.0000     4          
   251  Zr    s     -6.6999 *     1.2689 *     1.2689    0.0000     2          
   252  O     s     -0.3553 *     5.0757 *     5.0757    0.0000     2          
   253  O     s     -0.3553 *    -5.0757 *     5.0757    0.0000     2          
   254  Zr    s      5.9893 *    -3.8068 *    -1.2689 *  0.0000     4          
   255  O     s      7.2582 *    -0.0000      -0.0000    0.0000     1          
   256  Zr    s      3.4515 *    -6.3446 *    -1.2689 *  0.0000     4          
   257  O     s      4.7204 *     5.0757 *     2.5378 *  0.0000     4          
   258  O     s      4.7204 *     5.0757 *    -2.5378 *  0.0000     4          
   259  O     s     -5.4310 *    -5.0757 *     0.0000 *  0.0000     4          
   260  Zr    s      0.9136 *     3.8068 *     6.3446 *  0.0000     4          
   261  O     s      2.1825 *     5.0757 *     5.0757    0.0000     2          
   262  O     s      2.1825 *    -5.0757 *     5.0757    0.0000     2          
   263  Zr    s     -1.6242 *    -6.3446 *     3.8068 *  0.0000     4          
   264  O     s     -0.3553 *    -0.0000 *     7.6135 *  0.0000     4          
   265  O     s      7.2582 *     2.5378 *     0.0000 *  0.0000     4          
   266  Zr    s     -4.1621 *     1.2689 *    -6.3446 *  0.0000     4          
   267  O     s     -2.8931 *     5.0757 *     5.0757    0.0000     2          
   268  O     s     -2.8931 *     5.0757 *    -5.0757    0.0000     2          
   269  Zr    s     -6.6999 *     1.2689 *    -3.8068 *  0.0000     4          
   270  O     s     -5.4310 *     2.5378 *     5.0757 *  0.0000     4          
   271  O     s     -5.4310 *    -2.5378 *     5.0757 *  0.0000     4          
   272  O     s      2.1825 *     0.0000 *     7.6135 *  0.0000     4          
   273  O     s     -7.9688 *    -0.0000      -0.0000    0.0000     1          
   274  O     s     -0.3553 *     2.5378 *     7.6135 *  0.0000     4          
   275  O     s     -0.3553 *    -7.6135 *     2.5378 *  0.0000     4          
   276  Zr    s      5.9893 *     3.8068 *    -3.8068    0.0000     2          
   277  O     s      7.2582 *     2.5378 *    -2.5378    0.0000     2          
   278  O     s      7.2582 *     2.5378 *     2.5378    0.0000     2          
   279  O     s     -2.8931 *    -7.6135 *     0.0000 *  0.0000     4          
   280  Zr    s      3.4515 *    -3.8068 *     6.3446 *  0.0000     4          
   281  O     s      2.1825 *     2.5378 *     7.6135 *  0.0000     4          
   282  O     s      2.1825 *    -2.5378 *     7.6135 *  0.0000     4          
   283  O     s     -7.9688 *    -2.5378 *     0.0000 *  0.0000     4          
   284  Zr    s     -4.1621 *     3.8068 *     6.3446 *  0.0000     4          
   285  O     s     -2.8931 *    -2.5378 *     7.6135 *  0.0000     4          
   286  O     s     -2.8931 *     2.5378 *     7.6135 *  0.0000     4          
   287  O     s      4.7204 *    -5.0757 *     5.0757    0.0000     2          
   288  O     s      4.7204 *     5.0757 *     5.0757    0.0000     2          
   289  Zr    s     -6.6999 *     3.8068 *     3.8068    0.0000     2          
   290  Zr    s      8.5271 *     1.2689 *     1.2689    0.0000     2          
   291  O     s     -7.9688 *    -2.5378 *    -2.5378    0.0000     2          
   292  O     s     -7.9688 *    -2.5378 *     2.5378    0.0000     2          
   293  Zr    s      5.9893 *     6.3446 *    -1.2689 *  0.0000     4          
   294  O     s      7.2582 *     5.0757 *    -0.0000 *  0.0000     4          
   295  O     s      4.7204 *     7.6135 *    -0.0000 *  0.0000     4          
   296  O     s     -5.4310 *    -5.0757 *    -5.0757    0.0000     2          
   297  O     s     -5.4310 *    -5.0757 *     5.0757    0.0000     2          
   298  Zr    s      0.9136 *    -6.3446 *     6.3446    0.0000     2          
   299  Zr    s      0.9136 *     1.2689 *     8.8824 *  0.0000     4          
   300  Zr    s     -1.6242 *     6.3446 *     6.3446    0.0000     2          
   301  Zr    s     -1.6242 *    -1.2689 *     8.8824 *  0.0000     4          
   302  O     s     -0.3553 *     7.6135 *     5.0757 *  0.0000     4          
   303  O     s     -0.3553 *    -5.0757 *     7.6135 *  0.0000     4          
   304  O     s      7.2582 *    -2.5378 *    -5.0757 *  0.0000     4          
   305  O     s      7.2582 *     5.0757 *    -2.5378 *  0.0000     4          
   306  O     s      4.7204 *    -2.5378 *     7.6135 *  0.0000     4          
   307  O     s      4.7204 *     7.6135 *     2.5378 *  0.0000     4          
   308  Zr    s     -6.6999 *    -6.3446 *    -1.2689 *  0.0000     4          
   309  O     s     -5.4310 *    -0.0000 *     7.6135 *  0.0000     4          
   310  O     s      2.1825 *     5.0757 *     7.6135 *  0.0000     4          
   311  O     s      2.1825 *    -7.6135 *     5.0757 *  0.0000     4          
   312  Zr    s     -9.2377 *    -1.2689 *     1.2689    0.0000     2          
   313  Zr    s      8.5271 *     3.8068 *    -1.2689 *  0.0000     4          
   314  O     s     -7.9688 *    -0.0000 *     5.0757 *  0.0000     4          
   315  Zr    s      5.9893 *     6.3446 *     3.8068 *  0.0000     4          
   316  O     s     -2.8931 *     5.0757 *     7.6135 *  0.0000     4          
   317  O     s     -2.8931 *    -7.6135 *     5.0757 *  0.0000     4          
   318  Zr    s      3.4515 *     6.3446 *     6.3446    0.0000     2          
   319  Zr    s      3.4515 *    -1.2689 *     8.8824 *  0.0000     4          
   320  O     s     -5.4310 *    -7.6135 *    -2.5378 *  0.0000     4          
   321  O     s     -5.4310 *    -7.6135 *     2.5378 *  0.0000     4          
   322  Zr    s      0.9136 *     8.8824 *    -3.8068 *  0.0000     4          
   323  O     s     -7.9688 *    -2.5378 *    -5.0757 *  0.0000     4          
   324  O     s     -7.9688 *     2.5378 *    -5.0757 *  0.0000     4          
   325  O     s      9.7961 *     0.0000       0.0000    0.0000     1          
   326  Zr    s     -1.6242 *     3.8068 *     8.8824 *  0.0000     4          
   327  Zr    s     -4.1621 *     6.3446 *    -6.3446    0.0000     2          
   328  Zr    s     -4.1621 *     8.8824 *     1.2689 *  0.0000     4          
   329  Zr    s     -6.6999 *     3.8068 *    -6.3446 *  0.0000     4          
   330  Zr    s     -9.2377 *    -1.2689 *    -3.8068 *  0.0000     4          
   331  Zr    s      8.5271 *     3.8068 *     3.8068    0.0000     2          
   332  O     s      9.7961 *     2.5378 *    -0.0000 *  0.0000     4          
   333  O     s     -0.3553 *    -0.0000 *    10.1514 *  0.0000     4          
   334  O     s      7.2582 *     5.0757 *     5.0757    0.0000     2          
   335  O     s      7.2582 *     5.0757 *    -5.0757    0.0000     2          
   336  Zr    s      3.4515 *     8.8824 *     3.8068 *  0.0000     4          
   337  O     s      4.7204 *     5.0757 *     7.6135 *  0.0000     4          
   338  O     s      4.7204 *    -5.0757 *     7.6135 *  0.0000     4          
   339  O     s      2.1825 *    -0.0000 *    10.1514 *  0.0000     4          
   340  O     s      9.7961 *     2.5378 *     2.5378    0.0000     2          
   341  O     s      9.7961 *     2.5378 *    -2.5378    0.0000     2          
   342  O     s     -0.3553 *    -2.5378 *    10.1514 *  0.0000     4          
   343  O     s     -0.3553 *     2.5378 *    10.1514 *  0.0000     4          
   344  O     s    -10.5067 *    -0.0000       0.0000    0.0000     1          
   345  O     s      7.2582 *     7.6135 *     0.0000 *  0.0000     4          
   346  Zr    s     -4.1621 *    -8.8824 *     3.8068 *  0.0000     4          
   347  O     s     -2.8931 *    10.1514 *    -0.0000 *  0.0000     4          
   348  O     s     -5.4310 *     7.6135 *     5.0757 *  0.0000     4          
   349  O     s     -5.4310 *    -5.0757 *     7.6135 *  0.0000     4          
   350  O     s      2.1825 *    -2.5378 *    10.1514 *  0.0000     4          
   351  O     s      2.1825 *     2.5378 *    10.1514 *  0.0000     4          
   352  Zr    s     -9.2377 *    -3.8068 *     3.8068    0.0000     2          
   353  Zr    s      8.5271 *     1.2689 *     6.3446 *  0.0000     4          
   354  O     s     -7.9688 *     5.0757 *     5.0757    0.0000     2          
   355  O     s     -7.9688 *    -5.0757 *     5.0757    0.0000     2          
   356  O     s     -0.3553 *    -7.6135 *     7.6135    0.0000     2          
   357  O     s     -0.3553 *     7.6135 *     7.6135    0.0000     2          
   358  Zr    s      5.9893 *     6.3446 *    -6.3446    0.0000     2          
   359  Zr    s      5.9893 *     8.8824 *     1.2689 *  0.0000     4          
   360  O     s    -10.5067 *    -2.5378 *    -0.0000 *  0.0000     4          
   361  O     s      7.2582 *     7.6135 *     2.5378 *  0.0000     4          
   362  O     s      7.2582 *     7.6135 *    -2.5378 *  0.0000     4          
   363  O     s     -2.8931 *   -10.1514 *     2.5378 *  0.0000     4          
   364  O     s     -2.8931 *     2.5378 *    10.1514 *  0.0000     4          
   365  Zr    s      0.9136 *     6.3446 *     8.8824 *  0.0000     4          
   366  O     s      2.1825 *     7.6135 *     7.6135    0.0000     2          
   367  O     s      2.1825 *    -7.6135 *     7.6135    0.0000     2          
   368  O     s     -7.9688 *    -7.6135 *     0.0000 *  0.0000     4          
   369  O     s      9.7961 *     5.0757 *     0.0000 *  0.0000     4          
   370  Zr    s     -1.6242 *    -8.8824 *     6.3446 *  0.0000     4          
   371  O     s    -10.5067 *    -2.5378 *    -2.5378    0.0000     2          
   372  O     s    -10.5067 *    -2.5378 *     2.5378    0.0000     2          
   373  O     s     -2.8931 *     7.6135 *     7.6135    0.0000     2          
   374  O     s     -2.8931 *    -7.6135 *     7.6135    0.0000     2          
   375  O     s      4.7204 *     0.0000 *    10.1514 *  0.0000     4          
   376  Zr    s     -6.6999 *     6.3446 *     6.3446    0.0000     2          
   377  Zr    s     -6.6999 *    -8.8824 *     1.2689 *  0.0000     4          
   378  Zr    s     11.0650 *     1.2689 *    -1.2689    0.0000     2          
   379  Zr    s     -9.2377 *     1.2689 *    -6.3446 *  0.0000     4          
   380  Zr    s      8.5271 *     3.8068 *    -6.3446 *  0.0000     4          
   381  O     s     -7.9688 *     7.6135 *    -2.5378 *  0.0000     4          
   382  O     s     -7.9688 *     7.6135 *     2.5378 *  0.0000     4          
   383  O     s      9.7961 *     5.0757 *     2.5378 *  0.0000     4          
   384  O     s      9.7961 *    -2.5378 *     5.0757 *  0.0000     4          
   385  O     s     -0.3553 *   -10.1514 *     5.0757 *  0.0000     4          
   386  O     s     -0.3553 *     5.0757 *    10.1514 *  0.0000     4          
   387  Zr    s      5.9893 *    -3.8068 *     8.8824 *  0.0000     4          
   388  Zr    s      3.4515 *    -6.3446 *     8.8824 *  0.0000     4          
   389  O     s      4.7204 *    -2.5378 *    10.1514 *  0.0000     4          
   390  O     s      4.7204 *    10.1514 *     2.5378 *  0.0000     4          
   391  O     s     -5.4310 *   -10.1514 *     0.0000 *  0.0000     4          
   392  Zr    s      0.9136 *    -1.2689 *    11.4203 *  0.0000     4          
   393  O     s      2.1825 *    10.1514 *     5.0757 *  0.0000     4          
   394  O     s      2.1825 *    -5.0757 *    10.1514 *  0.0000     4          
   395  Zr    s     -1.6242 *     1.2689 *    11.4203 *  0.0000     4          
   396  O     s    -10.5067 *    -0.0000 *     5.0757 *  0.0000     4          
   397  O     s      7.2582 *    -5.0757 *     7.6135 *  0.0000     4          
   398  O     s      7.2582 *     7.6135 *     5.0757 *  0.0000     4          
   399  Zr    s     -4.1621 *     6.3446 *     8.8824 *  0.0000     4          
   400  O     s     -2.8931 *    -5.0757 *    10.1514 *  0.0000     4          
   401  O     s     -2.8931 *     5.0757 *    10.1514 *  0.0000     4          
   402  O     s      4.7204 *    -7.6135 *     7.6135    0.0000     2          
   403  O     s      4.7204 *     7.6135 *     7.6135    0.0000     2          
   404  Zr    s     -6.6999 *     3.8068 *     8.8824 *  0.0000     4          
   405  Zr    s     11.0650 *     3.8068 *     1.2689 *  0.0000     4          
   406  O     s     -5.4310 *     2.5378 *    10.1514 *  0.0000     4          
   407  O     s     -5.4310 *    -2.5378 *    10.1514 *  0.0000     4          
   408  Zr    s     -9.2377 *    -3.8068 *    -6.3446 *  0.0000     4          
   409  Zr    s    -11.7756 *    -1.2689 *    -1.2689    0.0000     2          
   410  O     s    -10.5067 *     5.0757 *     2.5378 *  0.0000     4          
   411  O     s    -10.5067 *    -2.5378 *     5.0757 *  0.0000     4          
   412  Zr    s      3.4515 *    -1.2689 *   -11.4203 *  0.0000     4          
--------------------------------------------------------------------------------


  Constraints on symmetry reduced coordinates :

--------------------------------------------------------------------------------
  Constraint no.      Unconstrained     Constrained    Coefficient    
                         Variable         Variable
--------------------------------------------------------------------------------
           1                 2 y             2 z        -1.00000
           2                 3 y             3 z         1.00000
           3                 7 y             7 z         1.00000
           4                 8 y             8 z        -1.00000
           5                10 y            10 z         1.00000
           6                12 y            12 z         1.00000
           7                13 y            13 z        -1.00000
           8                15 y            15 z        -1.00000
           9                16 y            16 z        -1.00000
          10                17 y            17 z         1.00000
          11                23 y            23 z        -1.00000
          12                25 y            25 z         1.00000
          13                30 y            30 z         1.00000
          14                31 y            31 z        -1.00000
          15                35 y            35 z        -1.00000
          16                38 y            38 z         1.00000
          17                39 y            39 z         1.00000
          18                40 y            40 z        -1.00000
          19                43 y            43 z        -1.00000
          20                45 y            45 z         1.00000
          21                46 y            46 z         1.00000
          22                47 y            47 z        -1.00000
          23                55 y            55 z         1.00000
          24                56 y            56 z        -1.00000
          25                61 y            61 z         1.00000
          26                62 y            62 z        -1.00000
          27                70 y            70 z        -1.00000
          28                71 y            71 z        -1.00000
          29                72 y            72 z         1.00000
          30                81 y            81 z        -1.00000
          31                82 y            82 z         1.00000
          32                83 y            83 z         1.00000
          33                84 y            84 z         1.00000
          34                85 y            85 z         1.00000
          35                86 y            86 z        -1.00000
          36                90 y            90 z         1.00000
          37                91 y            91 z        -1.00000
          38                92 y            92 z        -1.00000
          39                94 y            94 z         1.00000
          40               106 y           106 z        -1.00000
          41               112 y           112 z         1.00000
          42               121 y           121 z        -1.00000
          43               125 y           125 z         1.00000
          44               128 y           128 z         1.00000
          45               129 y           129 z        -1.00000
          46               134 y           134 z         1.00000
          47               135 y           135 z        -1.00000
          48               146 y           146 z        -1.00000
          49               148 y           148 z         1.00000
          50               149 y           149 z        -1.00000
          51               150 y           150 z        -1.00000
          52               151 y           151 z         1.00000
          53               152 y           152 z        -1.00000
          54               160 y           160 z         1.00000
          55               161 y           161 z        -1.00000
          56               165 y           165 z         1.00000
          57               166 y           166 z        -1.00000
          58               167 y           167 z         1.00000
          59               168 y           168 z        -1.00000
          60               170 y           170 z         1.00000
          61               172 y           172 z        -1.00000
          62               196 y           196 z        -1.00000
          63               197 y           197 z         1.00000
          64               203 y           203 z         1.00000
          65               208 y           208 z        -1.00000
          66               209 y           209 z         1.00000
          67               213 y           213 z         1.00000
          68               214 y           214 z        -1.00000
          69               216 y           216 z         1.00000
          70               218 y           218 z         1.00000
          71               219 y           219 z        -1.00000
          72               221 y           221 z        -1.00000
          73               222 y           222 z        -1.00000
          74               223 y           223 z         1.00000
          75               229 y           229 z        -1.00000
          76               231 y           231 z         1.00000
          77               236 y           236 z         1.00000
          78               237 y           237 z        -1.00000
          79               241 y           241 z        -1.00000
          80               244 y           244 z         1.00000
          81               245 y           245 z         1.00000
          82               246 y           246 z        -1.00000
          83               249 y           249 z        -1.00000
          84               251 y           251 z         1.00000
          85               252 y           252 z         1.00000
          86               253 y           253 z        -1.00000
          87               261 y           261 z         1.00000
          88               262 y           262 z        -1.00000
          89               267 y           267 z         1.00000
          90               268 y           268 z        -1.00000
          91               276 y           276 z        -1.00000
          92               277 y           277 z        -1.00000
          93               278 y           278 z         1.00000
          94               287 y           287 z        -1.00000
          95               288 y           288 z         1.00000
          96               289 y           289 z         1.00000
          97               290 y           290 z         1.00000
          98               291 y           291 z         1.00000
          99               292 y           292 z        -1.00000
         100               296 y           296 z         1.00000
         101               297 y           297 z        -1.00000
         102               298 y           298 z        -1.00000
         103               300 y           300 z         1.00000
         104               312 y           312 z        -1.00000
         105               318 y           318 z         1.00000
         106               327 y           327 z        -1.00000
         107               331 y           331 z         1.00000
         108               334 y           334 z         1.00000
         109               335 y           335 z        -1.00000
         110               340 y           340 z         1.00000
         111               341 y           341 z        -1.00000
         112               352 y           352 z        -1.00000
         113               354 y           354 z         1.00000
         114               355 y           355 z        -1.00000
         115               356 y           356 z        -1.00000
         116               357 y           357 z         1.00000
         117               358 y           358 z        -1.00000
         118               366 y           366 z         1.00000
         119               367 y           367 z        -1.00000
         120               371 y           371 z         1.00000
         121               372 y           372 z        -1.00000
         122               373 y           373 z         1.00000
         123               374 y           374 z        -1.00000
         124               376 y           376 z         1.00000
         125               378 y           378 z        -1.00000
         126               402 y           402 z        -1.00000
         127               403 y           403 z         1.00000
         128               409 y           409 z         1.00000
--------------------------------------------------------------------------------


  Components of defect energy : 

--------------------------------------------------------------------------------
  Region 1 - region 1                   =     29.12512457 eV
  Region 1 - region 2a (unrelaxed)      =      3.89142802 eV
  Region 1 - 2a (relaxed - correction)  =     -2.36237273 eV
  Region 1 (Total)                      =     30.65417986 eV
  Region 2a                             =      1.18121558 eV
  Region 2b                             =     -1.15954043 eV
--------------------------------------------------------------------------------
  Total defect energy                   =     30.67585501 eV
--------------------------------------------------------------------------------

  Largest displacement in region 2 =   0.0062 Angstroms


  Number of variables =     1074

  Maximum number of calculations  =        1000
  Maximum Hessian update interval =          10
  Maximum step size               =   1.0000000
  Maximum parameter tolerance     =   0.0000100
  Maximum function  tolerance     =   0.0000100
  Maximum gradient  tolerance     =   0.0010000

  Symmetry adapted optimisation

  Symmetry to be used for second derivatives

  Newton-Raphson optimiser to be used

  BFGS hessian update to be used

  Lower half triangular hessian to be used

  Start of defect optimisation :

  Cycle:      0 Defect Energy:  30.675855  Gnorm:     0.085149  CPU:    5.135
  ** Hessian calculated **
  Cycle:      1 Defect Energy:  22.011665  Gnorm:     0.034015  CPU:   15.518
  Cycle:      2 Defect Energy:  17.217135  Gnorm:     0.017714  CPU:   24.816
  Cycle:      3 Defect Energy:  16.575398  Gnorm:     0.013962  CPU:   31.070
  Cycle:      4 Defect Energy:  15.923791  Gnorm:     0.008151  CPU:   38.835
  Cycle:      5 Defect Energy:  15.479187  Gnorm:     0.007380  CPU:   46.603
  Cycle:      6 Defect Energy:  15.348534  Gnorm:     0.006042  CPU:   52.911
  Cycle:      7 Defect Energy:  15.215711  Gnorm:     0.004360  CPU:   60.793
  Cycle:      8 Defect Energy:  15.100886  Gnorm:     0.003652  CPU:   68.528
  Cycle:      9 Defect Energy:  15.068365  Gnorm:     0.003280  CPU:   70.187
  Cycle:     10 Defect Energy:  15.019997  Gnorm:     0.003006  CPU:   71.864
  ** Hessian calculated **
  Cycle:     11 Defect Energy:  14.940767  Gnorm:     0.002653  CPU:   79.386
  Cycle:     12 Defect Energy:  14.840342  Gnorm:     0.002118  CPU:   81.019
  Cycle:     13 Defect Energy:  14.752215  Gnorm:     0.001488  CPU:   82.697
  Cycle:     14 Defect Energy:  14.710764  Gnorm:     0.001050  CPU:   84.340
  Cycle:     15 Defect Energy:  14.691247  Gnorm:     0.000741  CPU:   86.059
  Cycle:     16 Defect Energy:  14.682024  Gnorm:     0.000522  CPU:   87.705
  Cycle:     17 Defect Energy:  14.678198  Gnorm:     0.000367  CPU:   89.350
  Cycle:     18 Defect Energy:  14.676319  Gnorm:     0.000258  CPU:   90.995
  Cycle:     19 Defect Energy:  14.675391  Gnorm:     0.000181  CPU:   92.628
  Cycle:     20 Defect Energy:  14.674980  Gnorm:     0.000127  CPU:   94.309
  ** Hessian calculated **
  Cycle:     21 Defect Energy:  14.674809  Gnorm:     0.000089  CPU:  101.895
  Cycle:     22 Defect Energy:  14.674746  Gnorm:     0.000062  CPU:  103.524
  Cycle:     23 Defect Energy:  14.674729  Gnorm:     0.000044  CPU:  105.207
  Cycle:     24 Defect Energy:  14.674731  Gnorm:     0.000031  CPU:  106.842


  **** Optimisation achieved ****


  Final defect energy  =       14.67473962
  Final defect Gnorm   =        0.00002142

  Components of defect energy : 

--------------------------------------------------------------------------------
  Region 1 - region 1                   =     19.62392697 eV
  Region 1 - region 2a (unrelaxed)      =     -2.76025412 eV
  Region 1 - 2a (relaxed - correction)  =     -2.06688538 eV
  Region 1 (Total)                      =     14.79678747 eV
  Region 2a                             =      1.03337465 eV
  Region 2b                             =     -1.15542250 eV
--------------------------------------------------------------------------------
  Total defect energy                   =     14.67473962 eV
--------------------------------------------------------------------------------

  Largest displacement in region 2 =   0.0062 Angstroms

  Final coordinates of region 1 :

--------------------------------------------------------------------------------
   No.  Atomic        x           y           z          Radius      Charge
        Label       (Angs)      (Angs)      (Angs)       (Angs)       (e) 
--------------------------------------------------------------------------------
     1  O     c     1.624219    1.268921    1.268921    0.000000    0.077000
     2  Zr    c     2.486994    2.588962   -0.051120    0.000000    2.650000
     3  Zr    c     2.486994   -0.051120    2.588962    0.000000    2.650000
     4  Zr    c    -0.021892   -0.024362   -0.024362    0.000000    2.650000
     5  Zr    c    -0.021892    2.562204    2.562204    0.000000    2.650000
     6  O     c     1.232931    3.853221    1.236241    0.000000    0.077000
     7  O     c     1.232931    1.236241    3.853221    0.000000    0.077000
     8  O     c     1.232931    1.301600   -1.315379    0.000000    0.077000
     9  O     c     1.232931   -1.315379    1.301600    0.000000    0.077000
    10  O     c    -1.015493    1.268921    1.268921    0.000000    0.077000
    11  O     c     3.804868    3.378595    1.269460    0.000000    0.077000
    12  O     c     3.804868    1.269460    3.378595    0.000000    0.077000
    13  O     c     3.804868    1.268382   -0.840753    0.000000    0.077000
    14  O     c     3.804868   -0.840753    1.268382    0.000000    0.077000
    15  O     c     1.303819    3.779877    3.779877    0.000000    0.077000
    16  O     c     1.303819   -1.242035   -1.242035    0.000000    0.077000
    17  O     c     1.262836   -1.287676    3.825518    0.000000    0.077000
    18  O     c     1.262836    3.825518   -1.287676    0.000000    0.077000
    19  O     c    -1.307185    1.286920    3.791224    0.000000    0.077000
    20  O     c    -1.307185    3.791224    1.286920    0.000000    0.077000
    21  O     c    -1.307185   -1.253382    1.250922    0.000000    0.077000
    22  O     c    -1.307185    1.250922   -1.253382    0.000000    0.077000
    23  Zr    c     5.124826    2.591021    2.591021    0.000000    2.650000
    24  Zr    c     5.124826   -0.053179   -0.053179    0.000000    2.650000
    25  Zr    c     2.506746    2.565794    5.100593    0.000000    2.650000
    26  Zr    c     2.506746   -2.562751   -0.027952    0.000000    2.650000
    27  Zr    c     2.506746    5.100593    2.565794    0.000000    2.650000
    28  Zr    c     2.506746   -0.027952   -2.562751    0.000000    2.650000
    29  O     c     3.852318    3.845642    3.845642    0.000000    0.077000
    30  O     c     3.852318   -1.307800   -1.307800    0.000000    0.077000
    31  O     c     3.786305    3.845002   -1.307160    0.000000    0.077000
    32  O     c     3.786305   -1.307160    3.845002    0.000000    0.077000
    33  Zr    c    -0.021956   -2.558941    2.548321    0.000000    2.650000
    34  Zr    c    -0.021956    2.548321   -2.558941    0.000000    2.650000
    35  Zr    c    -0.021956   -0.010479    5.096783    0.000000    2.650000
    36  Zr    c    -0.021956    5.096783   -0.010479    0.000000    2.650000
    37  Zr    c    -2.541048   -0.012972    2.550813    0.000000    2.650000
    38  Zr    c    -2.541048    2.550813   -0.012972    0.000000    2.650000
    39  O     c    -1.262275    3.796933   -1.259091    0.000000    0.077000
    40  O     c    -1.262275   -1.259091    3.796933    0.000000    0.077000
    41  O     c    -1.223455    3.810787    3.810787    0.000000    0.077000
    42  O     c    -1.223455   -1.272946   -1.272946    0.000000    0.077000
    43  O     c     6.010507    1.268921    1.268921    0.000000    0.077000
    44  O     c     1.295836   -3.852344    1.247899    0.000000    0.077000
    45  O     c     1.295836    1.247899   -3.852344    0.000000    0.077000
    46  O     c     1.295836    1.289943    6.390186    0.000000    0.077000
    47  O     c     1.295836    6.390186    1.289943    0.000000    0.077000
    48  Zr    c     5.106497    5.098674   -0.027939    0.000000    2.650000
    49  Zr    c     5.106497   -2.560832    2.565781    0.000000    2.650000
    50  Zr    c     5.106497   -0.027939    5.098674    0.000000    2.650000
    51  Zr    c     5.106497    2.565781   -2.560832    0.000000    2.650000
    52  O     c     6.373250    3.852754    1.298546    0.000000    0.077000
    53  O     c     6.373250    1.298546    3.852754    0.000000    0.077000
    54  O     c     6.373250    1.239296   -1.314913    0.000000    0.077000
    55  O     c     6.373250   -1.314913    1.239296    0.000000    0.077000
    56  O     c    -3.647475    1.268921    1.268921    0.000000    0.077000
    57  Zr    c     2.527982   -2.557708    5.095550    0.000000    2.650000
    58  Zr    c     2.527982    5.095550   -2.557708    0.000000    2.650000
    59  O     c     3.816282    6.055710    1.272575    0.000000    0.077000
    60  O     c     3.816282    1.272575    6.055710    0.000000    0.077000
    61  O     c     3.816282    1.265267   -3.517868    0.000000    0.077000
    62  O     c     3.816282   -3.517868    1.265267    0.000000    0.077000
    63  Zr    c    -0.020812    5.093243    5.093243    0.000000    2.650000
    64  Zr    c    -0.020812   -2.555401   -2.555401    0.000000    2.650000
    65  O     c     1.260566    6.305962    3.810103    0.000000    0.077000
    66  O     c     1.260566    3.810103    6.305962    0.000000    0.077000
    67  O     c     1.260566   -3.768120   -1.272261    0.000000    0.077000
    68  O     c     1.260566   -1.272261   -3.768120    0.000000    0.077000
    69  O     c     1.274450   -1.257715    6.351385    0.000000    0.077000
    70  O     c     1.274450    6.351385   -1.257715    0.000000    0.077000
    71  O     c     1.274450   -3.813543    3.795556    0.000000    0.077000
    72  O     c     1.274450    3.795556   -3.813543    0.000000    0.077000
    73  Zr    c    -2.548492    5.082861    2.539296    0.000000    2.650000
    74  Zr    c    -2.548492   -2.545019   -0.001454    0.000000    2.650000
    75  Zr    c    -2.548492   -0.001454   -2.545019    0.000000    2.650000
    76  Zr    c    -2.548492    2.539296    5.082861    0.000000    2.650000
    77  O     c    -1.245696    6.332645    1.262054    0.000000    0.077000
    78  O     c    -1.245696    1.262054    6.332645    0.000000    0.077000
    79  O     c    -1.245696    1.275787   -3.794803    0.000000    0.077000
    80  O     c    -1.245696   -3.794803    1.275787    0.000000    0.077000
    81  O     c     6.374681    3.820143    3.820143    0.000000    0.077000
    82  O     c     6.374681   -1.282301   -1.282301    0.000000    0.077000
    83  O     c     6.337067    3.781456   -1.243614    0.000000    0.077000
    84  O     c     6.337067   -1.243614    3.781456    0.000000    0.077000
    85  O     c    -3.841437   -1.268550    1.276050    0.000000    0.077000
    86  O     c    -3.841437    1.276050   -1.268550    0.000000    0.077000
    87  O     c    -3.841437    1.261792    3.806392    0.000000    0.077000
    88  O     c    -3.841437    3.806392    1.261792    0.000000    0.077000
    89  O     c     3.820702   -3.847027    3.787889    0.000000    0.077000
    90  O     c     3.820702    3.787889   -3.847027    0.000000    0.077000
[...]
    332 y          3.806763      3.805232    -0.001530    Cartesian   -0.04
    332 z          1.268921      1.270580     0.001659    Cartesian    0.13
    333 x          1.268921      1.271730     0.002809    Cartesian    0.22
    333 y          1.268921      1.272107     0.003186    Cartesian    0.25
    333 z         11.420288     11.438864     0.018576    Cartesian    0.16
    334 x          8.882446      8.888814     0.006367    Cartesian    0.07
    334 y          6.344605      6.344265    -0.000340    Cartesian   -0.01
    334 z          6.344605      6.344265    -0.000340    Cartesian   -0.01
    335 x          8.882446      8.881795    -0.000651    Cartesian   -0.01
    335 y          6.344605      6.338584    -0.006021    Cartesian   -0.09
    335 z         -3.806763     -3.800742     0.006021    Cartesian   -0.16
    336 x          5.075684      5.072172    -0.003512    Cartesian   -0.07
    336 y         10.151367     10.156134     0.004767    Cartesian    0.05
    336 z          5.075684      5.074378    -0.001305    Cartesian   -0.03
    337 x          6.344605      6.344411    -0.000193    Cartesian   -0.00
    337 y          6.344605      6.341732    -0.002872    Cartesian   -0.05
    337 z          8.882446      8.878831    -0.003615    Cartesian   -0.04
    338 x          6.344605      6.345197     0.000593    Cartesian    0.01
    338 y         -3.806763     -3.802969     0.003794    Cartesian   -0.10
    338 z          8.882446      8.887351     0.004905    Cartesian    0.06
    339 x          3.806763      3.806652    -0.000110    Cartesian   -0.00
    339 y          1.268921      1.267995    -0.000925    Cartesian   -0.07
    339 z         11.420288     11.342153    -0.078135    Cartesian   -0.68
    340 x         11.420288     11.419987    -0.000301    Cartesian   -0.00
    340 y          3.806763      3.803474    -0.003288    Cartesian   -0.09
    340 z          3.806763      3.803474    -0.003288    Cartesian   -0.09
    341 x         11.420288     11.419792    -0.000496    Cartesian   -0.00
    341 y          3.806763      3.803690    -0.003072    Cartesian   -0.08
    341 z         -1.268921     -1.265849     0.003072    Cartesian   -0.24
    342 x          1.268921      1.273842     0.004921    Cartesian    0.39
    342 y         -1.268921     -1.266058     0.002863    Cartesian   -0.23
    342 z         11.420288     11.421268     0.000980    Cartesian    0.01
    343 x          1.268921      1.275366     0.006445    Cartesian    0.51
    343 y          3.806763      3.805630    -0.001133    Cartesian   -0.03
    343 z         11.420288     11.401050    -0.019238    Cartesian   -0.17
    344 x         -8.882446     -8.836774     0.045673    Cartesian   -0.51
    344 y          1.268921      1.268921     0.000000    Cartesian    0.00
    344 z          1.268921      1.268921     0.000000    Cartesian    0.00
    345 x          8.882446      8.882921     0.000474    Cartesian    0.01
    345 y          8.882446      8.874146    -0.008300    Cartesian   -0.09
    345 z          1.268921      1.265884    -0.003037    Cartesian   -0.24
    346 x         -2.537842     -2.541108    -0.003266    Cartesian    0.13
    346 y         -7.613525     -7.617494    -0.003969    Cartesian    0.05
    346 z          5.075684      5.076381     0.000697    Cartesian    0.01
    347 x         -1.268921     -1.267326     0.001595    Cartesian   -0.13
    347 y         11.420288     11.415727    -0.004562    Cartesian   -0.04
    347 z          1.268921      1.267429    -0.001492    Cartesian   -0.12
    348 x         -3.806763     -3.807746    -0.000983    Cartesian    0.03
    348 y          8.882446      8.883616     0.001169    Cartesian    0.01
    348 z          6.344605      6.343000    -0.001604    Cartesian   -0.03
    349 x         -3.806763     -3.803910     0.002853    Cartesian   -0.07
    349 y         -3.806763     -3.806636     0.000127    Cartesian   -0.00
    349 z          8.882446      8.880306    -0.002141    Cartesian   -0.02
    350 x          3.806763      3.811721     0.004958    Cartesian    0.13
    350 y         -1.268921     -1.266845     0.002075    Cartesian   -0.16
    350 z         11.420288     11.435868     0.015580    Cartesian    0.14
    351 x          3.806763      3.805633    -0.001130    Cartesian   -0.03
    351 y          3.806763      3.804740    -0.002023    Cartesian   -0.05
    351 z         11.420288     11.436478     0.016190    Cartesian    0.14
    352 x         -7.613525     -7.615977    -0.002451    Cartesian    0.03
    352 y         -2.537842     -2.539867    -0.002026    Cartesian    0.08
    352 z          5.075684      5.077709     0.002026    Cartesian    0.04
    353 x         10.151367     10.158618     0.007251    Cartesian    0.07
    353 y          2.537842      2.539970     0.002128    Cartesian    0.08
    353 z          7.613525      7.621630     0.008104    Cartesian    0.11
    354 x         -6.344605     -6.340392     0.004213    Cartesian   -0.07
    354 y          6.344605      6.343883    -0.000722    Cartesian   -0.01
    354 z          6.344605      6.343883    -0.000722    Cartesian   -0.01
    355 x         -6.344605     -6.341272     0.003333    Cartesian   -0.05
    355 y         -3.806763     -3.806089     0.000674    Cartesian   -0.02
    355 z          6.344605      6.343931    -0.000674    Cartesian   -0.01
    356 x          1.268921      1.274500     0.005579    Cartesian    0.44
    356 y         -6.344605     -6.342498     0.002107    Cartesian   -0.03
    356 z          8.882446      8.880340    -0.002107    Cartesian   -0.02
    357 x          1.268921      1.269157     0.000236    Cartesian    0.02
    357 y          8.882446      8.880899    -0.001548    Cartesian   -0.02
    357 z          8.882446      8.880899    -0.001548    Cartesian   -0.02
    358 x          7.613525      7.613055    -0.000471    Cartesian   -0.01
    358 y          7.613525      7.618996     0.005470    Cartesian    0.07
    358 z         -5.075684     -5.081154    -0.005470    Cartesian    0.11
    359 x          7.613525      7.612515    -0.001010    Cartesian   -0.01
    359 y         10.151367     10.159325     0.007957    Cartesian    0.08
    359 z          2.537842      2.535859    -0.001982    Cartesian   -0.08
    360 x         -8.882446     -8.893924    -0.011477    Cartesian    0.13
    360 y         -1.268921     -1.268651     0.000270    Cartesian   -0.02
    360 z          1.268921      1.270261     0.001341    Cartesian    0.11
    361 x          8.882446      8.886151     0.003704    Cartesian    0.04
    361 y          8.882446      8.877412    -0.005034    Cartesian   -0.06
    361 z          3.806763      3.807049     0.000286    Cartesian    0.01
    362 x          8.882446      8.880891    -0.001555    Cartesian   -0.02
    362 y          8.882446      8.883329     0.000883    Cartesian    0.01
    362 z         -1.268921     -1.266839     0.002082    Cartesian   -0.16
    363 x         -1.268921     -1.263747     0.005174    Cartesian   -0.41
    363 y         -8.882446     -8.880345     0.002101    Cartesian   -0.02
    363 z          3.806763      3.805300    -0.001463    Cartesian   -0.04
    364 x         -1.268921     -1.267237     0.001684    Cartesian   -0.13
    364 y          3.806763      3.809045     0.002282    Cartesian    0.06
    364 z         11.420288     11.422200     0.001912    Cartesian    0.02
    365 x          2.537842      2.535351    -0.002491    Cartesian   -0.10
    365 y          7.613525      7.617069     0.003544    Cartesian    0.05
    365 z         10.151367     10.157086     0.005719    Cartesian    0.06
    366 x          3.806763      3.809347     0.002585    Cartesian    0.07
    366 y          8.882446      8.879768    -0.002678    Cartesian   -0.03
    366 z          8.882446      8.879768    -0.002678    Cartesian   -0.03
    367 x          3.806763      3.804975    -0.001788    Cartesian   -0.05
    367 y         -6.344605     -6.343491     0.001113    Cartesian   -0.02
    367 z          8.882446      8.881333    -0.001113    Cartesian   -0.01
    368 x         -6.344605     -6.343507     0.001097    Cartesian   -0.02
    368 y         -6.344605     -6.343329     0.001276    Cartesian   -0.02
    368 z          1.268921      1.267211    -0.001710    Cartesian   -0.13
    369 x         11.420288     11.414890    -0.005398    Cartesian   -0.05
    369 y          6.344605      6.345024     0.000420    Cartesian    0.01
    369 z          1.268921      1.266901    -0.002020    Cartesian   -0.16
    370 x          0.000000     -0.002215    -0.002215    Cartesian *******
    370 y         -7.613525     -7.619765    -0.006240    Cartesian    0.08
    370 z          7.613525      7.617384     0.003859    Cartesian    0.05
    371 x         -8.882446     -8.872046     0.010400    Cartesian   -0.12
    371 y         -1.268921     -1.267754     0.001167    Cartesian   -0.09
    371 z         -1.268921     -1.267754     0.001167    Cartesian   -0.09
    372 x         -8.882446     -8.869689     0.012757    Cartesian   -0.14
    372 y         -1.268921     -1.267103     0.001818    Cartesian   -0.14
    372 z          3.806763      3.804945    -0.001818    Cartesian   -0.05
    373 x         -1.268921     -1.265593     0.003328    Cartesian   -0.26
    373 y          8.882446      8.880734    -0.001712    Cartesian   -0.02
    373 z          8.882446      8.880734    -0.001712    Cartesian   -0.02
    374 x         -1.268921     -1.267021     0.001900    Cartesian   -0.15
    374 y         -6.344605     -6.342494     0.002111    Cartesian   -0.03
    374 z          8.882446      8.880335    -0.002111    Cartesian   -0.02
    375 x          6.344605      6.342520    -0.002085    Cartesian   -0.03
    375 y          1.268921      1.265292    -0.003629    Cartesian   -0.29
    375 z         11.420288     11.434063     0.013775    Cartesian    0.12
    376 x         -5.075684     -5.081608    -0.005924    Cartesian    0.12
    376 y          7.613525      7.616922     0.003397    Cartesian    0.04
    376 z          7.613525      7.616922     0.003397    Cartesian    0.04
    377 x         -5.075684     -5.080834    -0.005150    Cartesian    0.10
    377 y         -7.613525     -7.618057    -0.004532    Cartesian    0.06
    377 z          2.537842      2.537414    -0.000428    Cartesian   -0.02
    378 x         12.689209     12.692431     0.003222    Cartesian    0.03
    378 y          2.537842      2.544787     0.006945    Cartesian    0.27
    378 z          0.000000     -0.006945    -0.006945    Cartesian *******
    379 x         -7.613525     -7.618220    -0.004695    Cartesian    0.06
    379 y          2.537842      2.538815     0.000973    Cartesian    0.04
    379 z         -5.075684     -5.078840    -0.003157    Cartesian    0.06
    380 x         10.151367     10.158661     0.007294    Cartesian    0.07
    380 y          5.075684      5.078549     0.002866    Cartesian    0.06
    380 z         -5.075684     -5.082487    -0.006804    Cartesian    0.13
    381 x         -6.344605     -6.340742     0.003863    Cartesian   -0.06
    381 y          8.882446      8.880072    -0.002374    Cartesian   -0.03
    381 z         -1.268921     -1.268291     0.000630    Cartesian   -0.05
    382 x         -6.344605     -6.339991     0.004614    Cartesian   -0.07
    382 y          8.882446      8.881598    -0.000848    Cartesian   -0.01
    382 z          3.806763      3.804842    -0.001920    Cartesian   -0.05
    383 x         11.420288     11.413095    -0.007193    Cartesian   -0.06
    383 y          6.344605      6.345031     0.000427    Cartesian    0.01
    383 z          3.806763      3.809688     0.002925    Cartesian    0.08
    384 x         11.420288     11.416551    -0.003737    Cartesian   -0.03
    384 y         -1.268921     -1.266012     0.002909    Cartesian   -0.23
    384 z          6.344605      6.339282    -0.005323    Cartesian   -0.08
    385 x          1.268921      1.271280     0.002359    Cartesian    0.19
    385 y         -8.882446     -8.877843     0.004603    Cartesian   -0.05
    385 z          6.344605      6.341175    -0.003430    Cartesian   -0.05
    386 x          1.268921      1.268515    -0.000406    Cartesian   -0.03
    386 y          6.344605      6.343990    -0.000615    Cartesian   -0.01
    386 z         11.420288     11.419025    -0.001263    Cartesian   -0.01
    387 x          7.613525      7.619151     0.005626    Cartesian    0.07
    387 y         -2.537842     -2.543409    -0.005567    Cartesian    0.22
    387 z         10.151367     10.156825     0.005457    Cartesian    0.05
    388 x          5.075684      5.077134     0.001450    Cartesian    0.03
    388 y         -5.075684     -5.080098    -0.004414    Cartesian    0.09
    388 z         10.151367     10.158407     0.007040    Cartesian    0.07
    389 x          6.344605      6.343151    -0.001454    Cartesian   -0.02
    389 y         -1.268921     -1.267950     0.000970    Cartesian   -0.08
    389 z         11.420288     11.398807    -0.021481    Cartesian   -0.19
    390 x          6.344605      6.342979    -0.001626    Cartesian   -0.03
    390 y         11.420288     11.416986    -0.003302    Cartesian   -0.03
    390 z          3.806763      3.802712    -0.004050    Cartesian   -0.11
    391 x         -3.806763     -3.804123     0.002640    Cartesian   -0.07
    391 y         -8.882446     -8.877691     0.004756    Cartesian   -0.05
    391 z          1.268921      1.267058    -0.001863    Cartesian   -0.15
    392 x          2.537842      2.532863    -0.004978    Cartesian   -0.20
    392 y         -0.000000     -0.006495    -0.006495    Cartesian *******
    392 z         12.689209     12.695782     0.006573    Cartesian    0.05
    393 x          3.806763      3.805618    -0.001145    Cartesian   -0.03
    393 y         11.420288     11.407736    -0.012552    Cartesian   -0.11
    393 z          6.344605      6.341717    -0.002887    Cartesian   -0.05
    394 x          3.806763      3.807124     0.000361    Cartesian    0.01
    394 y         -3.806763     -3.805801     0.000961    Cartesian   -0.03
    394 z         11.420288     11.408599    -0.011689    Cartesian   -0.10
    395 x          0.000000     -0.001576    -0.001576    Cartesian *******
    395 y          2.537842      2.536623    -0.001219    Cartesian   -0.05
    395 z         12.689209     12.699616     0.010407    Cartesian    0.08
    396 x         -8.882446     -8.870395     0.012052    Cartesian   -0.14
    396 y          1.268921      1.269237     0.000316    Cartesian    0.02
    396 z          6.344605      6.343965    -0.000639    Cartesian   -0.01
    397 x          8.882446      8.882164    -0.000282    Cartesian   -0.00
    397 y         -3.806763     -3.804515     0.002248    Cartesian   -0.06
    397 z          8.882446      8.879853    -0.002594    Cartesian   -0.03
    398 x          8.882446      8.873351    -0.009095    Cartesian   -0.10
    398 y          8.882446      8.874669    -0.007777    Cartesian   -0.09
    398 z          6.344605      6.338340    -0.006265    Cartesian   -0.10
    399 x         -2.537842     -2.543120    -0.005278    Cartesian    0.21
    399 y          7.613525      7.618660     0.005134    Cartesian    0.07
    399 z         10.151367     10.157240     0.005872    Cartesian    0.06
    400 x         -1.268921     -1.265858     0.003063    Cartesian   -0.24
    400 y         -3.806763     -3.805246     0.001516    Cartesian   -0.04
    400 z         11.420288     11.412652    -0.007636    Cartesian   -0.07
    401 x         -1.268921     -1.266136     0.002785    Cartesian   -0.22
    401 y          6.344605      6.341292    -0.003312    Cartesian   -0.05
    401 z         11.420288     11.410855    -0.009433    Cartesian   -0.08
    402 x          6.344605      6.345299     0.000694    Cartesian    0.01
    402 y         -6.344605     -6.340614     0.003991    Cartesian   -0.06
    402 z          8.882446      8.878456    -0.003991    Cartesian   -0.04
    403 x          6.344605      6.339332    -0.005273    Cartesian   -0.08
    403 y          8.882446      8.873823    -0.008623    Cartesian   -0.10
    403 z          8.882446      8.873823    -0.008623    Cartesian   -0.10
    404 x         -5.075684     -5.082287    -0.006603    Cartesian    0.13
    404 y          5.075684      5.079184     0.003500    Cartesian    0.07
    404 z         10.151367     10.157277     0.005910    Cartesian    0.06
    405 x         12.689209     12.700687     0.011478    Cartesian    0.09
    405 y          5.075684      5.076800     0.001116    Cartesian    0.02
    405 z          2.537842      2.537549    -0.000292    Cartesian   -0.01
    406 x         -3.806763     -3.803070     0.003692    Cartesian   -0.10
    406 y          3.806763      3.804286    -0.002477    Cartesian   -0.07
    406 z         11.420288     11.411997    -0.008291    Cartesian   -0.07
    407 x         -3.806763     -3.801626     0.005136    Cartesian   -0.13
    407 y         -1.268921     -1.267849     0.001072    Cartesian   -0.08
    407 z         11.420288     11.412629    -0.007660    Cartesian   -0.07
    408 x         -7.613525     -7.621357    -0.007832    Cartesian    0.10
    408 y         -2.537842     -2.539454    -0.001612    Cartesian    0.06
    408 z         -5.075684     -5.079161    -0.003478    Cartesian    0.07
    409 x        -10.151367    -10.159451    -0.008084    Cartesian    0.08
    409 y         -0.000000     -0.003152    -0.003152    Cartesian *******
    409 z         -0.000000     -0.003152    -0.003152    Cartesian *******
    410 x         -8.882446     -8.879729     0.002717    Cartesian   -0.03
    410 y          6.344605      6.341609    -0.002995    Cartesian   -0.05
    410 z          3.806763      3.805467    -0.001296    Cartesian   -0.03
    411 x         -8.882446     -8.875850     0.006597    Cartesian   -0.07
    411 y         -1.268921     -1.266866     0.002055    Cartesian   -0.16
    411 z          6.344605      6.341513    -0.003092    Cartesian   -0.05
    412 x          5.075684      5.081917     0.006234    Cartesian    0.12
    412 y          0.000000     -0.005729    -0.005729    Cartesian *******
    412 z        -10.151367    -10.160171    -0.008804    Cartesian    0.09
--------------------------------------------------------------------------------


  Time to end of optimisation  =      108.5066 seconds


  Peak dynamic memory used =     411.77 MB 


  Timing analysis for GULP :

--------------------------------------------------------------------------------
  Task / Subroutine                                          Time (Seconds)
--------------------------------------------------------------------------------
  Calculation of reciprocal space energy and derivatives          0.0002
  Calculation of reciprocal space energy using symmetry           0.0003
  Calculation of real space energy and derivatives                0.0020
  Calculation of real space energy using symmetry                 0.0070
  Calculation for region 1 energy and derivatives (2-b)          26.4062
  Calculation for region 2a energy                               69.3146
  Calculation for region 2b energy                                0.0078
  Calculation and manipulation of Hessian matrix                 11.4923
  Calculation of matrix inversion                                 0.8505
  Symmetry generation of equivalent positions                     0.0015
--------------------------------------------------------------------------------
  Total CPU time                                                108.5066
--------------------------------------------------------------------------------


  Dump file written as ZrO2.grs


  Job Finished at 12:03.32 14th October    2020                               

