********************************************************************************
*                       GENERAL UTILITY LATTICE PROGRAM                        *
*                                 Julian Gale                                  *
*                       Curtin Institute for Computation                       *
*                    School of Molecular and Life Sciences                     *
*                    Curtin University, Western Australia                      *
********************************************************************************
* Version = 5.2.0 * Last modified =  10th September 2020                       *
********************************************************************************
* Zirconia doped with calcium                                                  *
*  optimise     - perform optimisation run                                     *
*  conp         - constant pressure calculation                                *
*  property     - calculate properties for final geometry                      *
*  defect       - perform defect calculation after bulk run                    *
*  distance     - calculate distances                                          *
*  compare      - compare initial and final structures                         *
********************************************************************************
* Zirconia doped with calcium                                                  *
********************************************************************************


  Job Started  at 12:03.32 14th October    2020                               

  Number of CPUs =     1


  Total number of configurations input =      1

********************************************************************************
*  Input for Configuration =   1 : ZrO2                                        *
********************************************************************************

  Formula = ZrO2                                                        

  Number of irreducible atoms/shells =       4


  Total number atoms/shells =       6

  Dimensionality = 3               :  Bulk   


  Symmetry :

  Crystal family                   :  Cubic       
  Crystal class  (Groth - 1921)    :  Cubic Hexakisoctahedral              

  Space group (centrosymmetric)    :  F M 3 M         

  Patterson group                  :  F m -3 m 

  Cartesian lattice vectors (Angstroms) :

        0.000000    2.535000    2.535000
        2.535000    0.000000    2.535000
        2.535000    2.535000    0.000000

  Primitive cell parameters :            Full cell parameters :

  a =   3.5850    alpha =  60.0000       a =   5.0700    alpha =  90.0000
  b =   3.5850    beta  =  60.0000       b =   5.0700    beta  =  90.0000
  c =   3.5850    gamma =  60.0000       c =   5.0700    gamma =  90.0000

  Initial volumes (Angstroms**3):

  Primitive cell =          32.580961    Full cell =         130.323843

  Temperature of configuration =   0.00     K 

  Pressure of configuration =         0.000 GPa 

  Fractional coordinates of asymmetric unit :

--------------------------------------------------------------------------------
   No.  Atomic       x           y          z         Charge      Occupancy
        Label      (Frac)      (Frac)     (Frac)        (e)         (Frac)  
--------------------------------------------------------------------------------
      1 Zr    c    0.000000    0.000000    0.000000     2.65000    1.000000    
      2 O     c    0.250000    0.250000    0.250000     0.07700    1.000000    
      3 Zr    s    0.000000    0.000000    0.000000     1.35000    1.000000    
      4 O     s    0.250000    0.250000    0.250000    -2.07700    1.000000    
--------------------------------------------------------------------------------


  Constraints : 

--------------------------------------------------------------------------------
  Constraint no.      Unconstrained     Constrained    Coefficient    Offset
                         Variable         Variable
--------------------------------------------------------------------------------
           1              Strain 1        Strain 2       1.00000      0.0000
           2              Strain 1        Strain 3       1.00000      0.0000
--------------------------------------------------------------------------------


  Distance calculation :


  Cutoff for distances  =      4.000000 Angstroms

--------------------------------------------------------------------------------
  Asymmetric unit site  Full lattice sites    No.  Distance      No.  Distance
      No.   At.No.            At.No.                (Angs)             (Angs) 
--------------------------------------------------------------------------------
       1   Zr    core        Zr    core        12    3.5850
                             Zr    shell       12    3.5850
                             O     core         8    2.1954
                             O     shell        8    2.1954
--------------------------------------------------------------------------------
       2   O     core        Zr    core         4    2.1954
                             Zr    shell        4    2.1954
                             O     core         6    2.5350       12    3.5850
                             O     shell        6    2.5350       12    3.5850
--------------------------------------------------------------------------------
       3   Zr    shell       Zr    core        12    3.5850
                             Zr    shell       12    3.5850
                             O     core         8    2.1954
                             O     shell        8    2.1954
--------------------------------------------------------------------------------
       4   O     shell       Zr    core         4    2.1954
                             Zr    shell        4    2.1954
                             O     core         6    2.5350       12    3.5850
                             O     shell        6    2.5350       12    3.5850
--------------------------------------------------------------------------------



********************************************************************************
*  General input information                                                   *
********************************************************************************

  Species output for all configurations : 

--------------------------------------------------------------------------------
  Species    Type    Atomic    Atomic    Charge       Radii (Angs)     Library
                     Number     Mass       (e)     Cova   Ionic  VDW   Symbol
--------------------------------------------------------------------------------
    Zr       Core       40      91.22   2.650000   1.560  0.000  2.330          
    Zr       Shell      40       0.00   1.350000   1.560  0.000  2.330          
    O        Core        8      16.00   0.077000   0.730  0.000  1.360          
    O        Shell       8       0.00  -2.077000   0.730  0.000  1.360          
--------------------------------------------------------------------------------


  Lattice summation method               =    Ewald          (3-D)
                                         =    Parry          (2-D)
                                         =    Saunders et al (1-D)
  Accuracy factor for lattice sums       =   12.000


  Analytic derivatives to be used

  Time limit = Infinity

  Maximum range for interatomic potentials =    100000.000000 Angstroms

  General interatomic potentials :

--------------------------------------------------------------------------------
Atom  Types   Potential      Parameter       Value         Units   Cutoffs(Ang)
  1     2                                                            Min /  Max 
--------------------------------------------------------------------------------
O    s Zr   s Buckingham    Buckingham A     985.86900    eV        0.000 12.000
                            Buckingham rho  0.37600000    Ang       
                            Buckingham C     0.0000000    eV*Ang^6  
--------------------------------------------------------------------------------
O    s O    s Buckingham    Buckingham A     22764.300    eV        0.000 12.000
                            Buckingham rho  0.14900000    Ang       
                            Buckingham C     27.890000    eV*Ang^6  
--------------------------------------------------------------------------------
Zr   c Zr   s Spring (c-s)  Spring k 2       169.61700    eV*Ang^-2 0.000  0.800
                            Spring k 4       0.0000000    eV*Ang^-4 
--------------------------------------------------------------------------------
O    c O    s Spring (c-s)  Spring k 2       27.290000    eV*Ang^-2 0.000  0.800
                            Spring k 4       0.0000000    eV*Ang^-4 
--------------------------------------------------------------------------------

********************************************************************************
*  Output for configuration   1 : ZrO2                                         *
********************************************************************************


  Components of energy : 

--------------------------------------------------------------------------------
  Interatomic potentials     =          22.43756329 eV    
  Monopole - monopole (real) =         -15.67991073 eV    
  Monopole - monopole (recip)=        -116.52038266 eV    
  Monopole - monopole (total)=        -132.20029339 eV    
--------------------------------------------------------------------------------
  Total lattice energy : 
    Primitive unit cell      =        -109.76273010 eV    
    Non-primitive unit cell  =        -439.05092039 eV    
--------------------------------------------------------------------------------
  Total lattice energy (in kJmol-1): 
    Primitive unit cell      =          -10590.4256 kJ/(mole unit cells)
    Non-primitive unit cell  =          -42361.7023 kJ/(mole unit cells)
--------------------------------------------------------------------------------


  Number of variables =        1

  Maximum number of calculations  =          1000
  Maximum Hessian update interval =            10
  Maximum step size               =   1.000000000
  Maximum parameter tolerance     =   0.000010000
  Maximum function  tolerance     =   0.000010000
  Maximum gradient  tolerance     =   0.001000000
  Maximum gradient  component     =   0.010000000

  Symmetry constrained optimisation

  Symmetry used for second derivatives

  Cell parameters to be optimised using strains

  Newton-Raphson optimiser to be used

  BFGS hessian update to be used

  Lower half triangular hessian to be used

  Start of bulk optimisation :

  Cycle:      0 Energy:      -109.762730  Gnorm:      0.588311  CPU:    0.006
  ** Hessian calculated **
  Cycle:      1 Energy:      -109.763059  Gnorm:      0.000316  CPU:    0.009


  **** Optimisation achieved ****


  Final energy =    -109.76305939 eV
  Final Gnorm  =       0.00000099

  Components of energy : 

--------------------------------------------------------------------------------
  Interatomic potentials     =          22.28919976 eV    
  Monopole - monopole (real) =         -15.66235280 eV    
  Monopole - monopole (recip)=        -116.38990634 eV    
  Monopole - monopole (total)=        -132.05225914 eV    
--------------------------------------------------------------------------------
  Total lattice energy : 
    Primitive unit cell      =        -109.76305939 eV    
    Non-primitive unit cell  =        -439.05223754 eV    
--------------------------------------------------------------------------------
  Total lattice energy (in kJmol-1): 
    Primitive unit cell      =          -10590.4573 kJ/(mole unit cells)
    Non-primitive unit cell  =          -42361.8294 kJ/(mole unit cells)
--------------------------------------------------------------------------------

  Final asymmetric unit coordinates :

--------------------------------------------------------------------------------
   No.  Atomic        x           y           z         Radius
        Label       (Frac)      (Frac)      (Frac)       (Angs) 
--------------------------------------------------------------------------------
     1  Zr    c     0.000000    0.000000    0.000000    0.000000
     2  O     c     0.250000    0.250000    0.250000    0.000000
     3  Zr    s     0.000000    0.000000    0.000000    0.000000
     4  O     s     0.250000    0.250000    0.250000    0.000000
--------------------------------------------------------------------------------

  Final Cartesian lattice vectors (Angstroms) :

        0.000000    2.537842    2.537842
        2.537842    0.000000    2.537842
        2.537842    2.537842    0.000000


  Final cell parameters and derivatives :

--------------------------------------------------------------------------------
       a            3.589050 Angstrom     dE/de1(xx)    -0.000001 eV/strain
       b            3.589050 Angstrom     dE/de2(yy)     0.000000 eV/strain
       c            3.589050 Angstrom     dE/de3(zz)     0.000000 eV/strain
       alpha       60.000000 Degrees      dE/de4(yz)     0.000000 eV/strain
       beta        60.000000 Degrees      dE/de5(xz)     0.000000 eV/strain
       gamma       60.000000 Degrees      dE/de6(xy)     0.000000 eV/strain
--------------------------------------------------------------------------------

  Primitive cell volume =            32.690656 Angs**3

  Density of cell =      6.259124 g/cm**3

  Non-primitive lattice parameters :

  a    =     5.075684  b   =     5.075684  c    =     5.075684
  alpha=    90.000000  beta=    90.000000  gamma=    90.000000

  Non-primitive cell volume =           130.762624 Angs**3


  Final internal derivatives :

--------------------------------------------------------------------------------
   No.  Atomic          a             b             c           Radius
        Label          (eV)          (eV)          (eV)        (eV/Angs)
--------------------------------------------------------------------------------
      1 Zr    c       0.000000      0.000000      0.000000      0.000000
      2 O     c       0.000000      0.000000      0.000000      0.000000
      3 Zr    s       0.000000      0.000000      0.000000      0.000000
      4 O     s       0.000000      0.000000      0.000000      0.000000
--------------------------------------------------------------------------------
  Maximum abs         0.000000      0.000000      0.000000      0.000000
--------------------------------------------------------------------------------

  Comparison of initial and final structures : 

--------------------------------------------------------------------------------
  Parameter   Initial value   Final value   Difference    Units      Percent
--------------------------------------------------------------------------------
    Volume       130.323843    130.762624     0.438781    Angs**3      0.34
    a              5.070000      5.075684     0.005684    Angstroms    0.11
    b              5.070000      5.075684     0.005684    Angstroms    0.11
    c              5.070000      5.075684     0.005684    Angstroms    0.11
    alpha         90.000000     90.000000     0.000000    Degrees      0.00
    beta          90.000000     90.000000     0.000000    Degrees      0.00
    gamma         90.000000     90.000000     0.000000    Degrees      0.00
      1 x          0.000000      0.000000     0.000000    Fractional   0.00
      1 y          0.000000      0.000000     0.000000    Fractional   0.00
      1 z          0.000000      0.000000     0.000000    Fractional   0.00
      2 x          0.250000      0.250000     0.000000    Fractional   0.00
      2 y          0.250000      0.250000     0.000000    Fractional   0.00
      2 z          0.250000      0.250000     0.000000    Fractional   0.00
      3 x          0.000000      0.000000     0.000000    Fractional   0.00
      3 y          0.000000      0.000000     0.000000    Fractional   0.00
      3 z          0.000000      0.000000     0.000000    Fractional   0.00
      4 x          0.250000      0.250000     0.000000    Fractional   0.00
      4 y          0.250000      0.250000     0.000000    Fractional   0.00
      4 z          0.250000      0.250000     0.000000    Fractional   0.00
--------------------------------------------------------------------------------


  Distance calculation :


  Cutoff for distances  =      4.000000 Angstroms

--------------------------------------------------------------------------------
  Asymmetric unit site  Full lattice sites    No.  Distance      No.  Distance
      No.   At.No.            At.No.                (Angs)             (Angs) 
--------------------------------------------------------------------------------
       1   Zr    core        Zr    core        12    3.5891
                             Zr    shell       12    3.5891
                             O     core         8    2.1978
                             O     shell        8    2.1978
--------------------------------------------------------------------------------
       2   O     core        Zr    core         4    2.1978
                             Zr    shell        4    2.1978
                             O     core         6    2.5378       12    3.5891
                             O     shell        6    2.5378       12    3.5891
--------------------------------------------------------------------------------
       3   Zr    shell       Zr    core        12    3.5891
                             Zr    shell       12    3.5891
                             O     core         8    2.1978
                             O     shell        8    2.1978
--------------------------------------------------------------------------------
       4   O     shell       Zr    core         4    2.1978
                             Zr    shell        4    2.1978
                             O     core         6    2.5378       12    3.5891
                             O     shell        6    2.5378       12    3.5891
--------------------------------------------------------------------------------



  Born effective charge tensors : 

-------------------------------------------------------------------------------
  Atom             x           y             z
-------------------------------------------------------------------------------
    1 Zr    x       3.6770      0.0000      0.0000
            y       0.0000      3.6770      0.0000
            z       0.0000      0.0000      3.6770
-------------------------------------------------------------------------------
    2 O     x      -1.8385      0.0000      0.0000
            y       0.0000     -1.8385     -0.0000
            z       0.0000     -0.0000     -1.8385
-------------------------------------------------------------------------------




  Elastic Constant Matrix: (Units=GPa)

-------------------------------------------------------------------------------
  Indices      1         2         3         4         5         6    
-------------------------------------------------------------------------------
       1    616.2933  119.6612  119.6612   -0.0000   -0.0000   -0.0000
       2    119.6612  616.2933  119.6612   -0.0000   -0.0000   -0.0000
       3    119.6612  119.6612  616.2933   -0.0000   -0.0000   -0.0000
       4     -0.0000   -0.0000   -0.0000  100.8598    0.0000   -0.0000
       5     -0.0000   -0.0000   -0.0000    0.0000  100.8598    0.0000
       6     -0.0000   -0.0000   -0.0000   -0.0000    0.0000  100.8598
-------------------------------------------------------------------------------


  Elastic Compliance Matrix: (Units=1/GPa)

-------------------------------------------------------------------------------
  Indices      1         2         3         4         5         6    
-------------------------------------------------------------------------------
       1    0.001732 -0.000282 -0.000282  0.000000  0.000000  0.000000
       2   -0.000282  0.001732 -0.000282 -0.000000  0.000000  0.000000
       3   -0.000282 -0.000282  0.001732  0.000000  0.000000  0.000000
       4    0.000000 -0.000000  0.000000  0.009915 -0.000000  0.000000
       5    0.000000  0.000000  0.000000 -0.000000  0.009915 -0.000000
       6    0.000000  0.000000  0.000000  0.000000 -0.000000  0.009915
-------------------------------------------------------------------------------

  Mechanical properties :

-------------------------------------------------------------------------------
  Convention :                    Reuss         Voigt         Hill
-------------------------------------------------------------------------------
  Bulk  Modulus (GPa)     =     285.20524     285.20524     285.20524
  Shear Modulus (GPa)     =     132.28031     159.84228     146.06129
-------------------------------------------------------------------------------
  Velocity S-wave (km/s)  =       4.59717       5.05346       4.83071
  Velocity P-wave (km/s)  =       8.58749       8.92280       8.75675
-------------------------------------------------------------------------------
  Compressibility (1/GPa) =    0.00350625
-------------------------------------------------------------------------------
  Stress axis :                     x             y             z
-------------------------------------------------------------------------------
  Youngs Moduli (GPa)     =     577.38110     577.38110     577.38110
-------------------------------------------------------------------------------
  Poissons Ratio (x)      =                     0.16259       0.16259
  Poissons Ratio (y)      =       0.16259                     0.16259
  Poissons Ratio (z)      =       0.16259       0.16259
-------------------------------------------------------------------------------


  Piezoelectric Strain Matrix: (Units=C/m**2)

-------------------------------------------------------------------------------
  Indices      1         2         3         4         5         6    
-------------------------------------------------------------------------------
       x    -0.00000   0.00000   0.00000   0.00000   0.00000   0.00000
       y    -0.00000  -0.00000  -0.00000   0.00000   0.00000   0.00000
       z    -0.00000  -0.00000  -0.00000   0.00000   0.00000   0.00000
-------------------------------------------------------------------------------


  Piezoelectric Stress Matrix: (Units=10**-11 C/N)

-------------------------------------------------------------------------------
  Indices      1         2         3         4         5         6    
-------------------------------------------------------------------------------
       x    -0.00000   0.00000   0.00000   0.00000   0.00000   0.00000
       y    -0.00000  -0.00000  -0.00000   0.00000   0.00000   0.00000
       z     0.00000   0.00000  -0.00000   0.00000   0.00000   0.00000
-------------------------------------------------------------------------------


  Static dielectric constant tensor : 

-------------------------------------------------------------------------------
              x         y         z
-------------------------------------------------------------------------------
       x    26.88485   0.00000   0.00000
       y     0.00000  26.88485   0.00000
       z     0.00000   0.00000  26.88485
--------------------------------------------------------------------------------

  High frequency dielectric constant tensor : 

-------------------------------------------------------------------------------
              x         y         z
-------------------------------------------------------------------------------
       x     2.63099   0.00000   0.00000
       y     0.00000   2.63099   0.00000
       z     0.00000   0.00000   2.63099
-------------------------------------------------------------------------------

  Static refractive indices : 

-------------------------------------------------------------------------------
    1 =    5.18506      2 =    5.18506      3 =    5.18506
-------------------------------------------------------------------------------

  High frequency refractive indices : 

-------------------------------------------------------------------------------
    1 =    1.62203      2 =    1.62203      3 =    1.62203
-------------------------------------------------------------------------------


  Time to end of optimisation =       0.0146 seconds

********************************************************************************
*  Defect calculation for configuration   1 :                                  *
********************************************************************************

  Total number of defects =      3

  Total charge on defect  =   2.00

  Defect centre is at   0.3300   0.2500   0.2500  Frac

  Region 1 radius =  12.0000      Number of ions =   1344

  Number of symmetry inequivalent region 1 ions  =    412

  Region 2 radius =  24.0000      Number of ions =   9284

  Number of symmetry inequivalent region 2a ions =   2554

  Region 2a mode = 4 : screened electrostatics due to region 1 
                       neglect correction to region 1 forces from 2a
                       region 2a displacements based on defects only

  Region 2a ions will only interact with defects in region 1

  Vacancies:

--------------------------------------------------------------------------------
    Specification type     Symbol/Number         x          y          z
--------------------------------------------------------------------------------
    Fractional                               0.250000   0.250000   0.250000
    Fractional                               0.750000   0.250000   0.250000
--------------------------------------------------------------------------------

  Interstitials:

--------------------------------------------------------------------------------
    Specification type     Symbol/Number         x          y          z
--------------------------------------------------------------------------------
    Atom/Fractional         O                0.330000   0.250000   0.250000
--------------------------------------------------------------------------------


  Symmetry reduced region 1 (Relative to defect centre) :

--------------------------------------------------------------------------------
   No.   Atomic       x            y             z       Radius  Multiplicity   
         Label      (Angs)       (Angs)        (Angs)    (Angs)     
--------------------------------------------------------------------------------
     1  O     c      0.0000       0.0000       0.0000    0.0000     1    Defect
     2  Zr    c      0.8629 *    -1.2689 *     1.2689    0.0000     2          
     3  Zr    c     -1.6750 *    -1.2689 *    -1.2689    0.0000     2          
     4  O     c     -0.4061 *     2.5378 *    -0.0000 *  0.0000     4          
     5  O     c     -2.9439 *    -0.0000      -0.0000    0.0000     1          
     6  O     c      2.1318 *     0.0000 *    -2.5378 *  0.0000     4          
     7  O     c     -0.4061 *     2.5378 *     2.5378    0.0000     2          
     8  O     c     -0.4061 *    -2.5378 *     2.5378    0.0000     2          
     9  Zr    c      3.4007 *     1.2689 *     1.2689    0.0000     2          
    10  O     c     -2.9439 *     0.0000 *     2.5378 *  0.0000     4          
    11  Zr    c      0.8629 *     1.2689 *     3.8068 *  0.0000     4          
    12  O     c      2.1318 *     2.5378 *     2.5378    0.0000     2          
    13  O     c      2.1318 *     2.5378 *    -2.5378    0.0000     2          
    14  Zr    c     -1.6750 *     3.8068 *    -1.2689 *  0.0000     4          
    15  Zr    c     -4.2128 *    -1.2689 *     1.2689    0.0000     2          
    16  O     c     -2.9439 *     2.5378 *     2.5378    0.0000     2          
    17  O     c     -2.9439 *    -2.5378 *     2.5378    0.0000     2          
    18  O     c      4.6696 *     0.0000       0.0000    0.0000     1          
    19  O     c     -0.4061 *    -5.0757 *     0.0000 *  0.0000     4          
    20  Zr    c      3.4007 *    -1.2689 *     3.8068 *  0.0000     4          
    21  O     c      4.6696 *     2.5378 *    -0.0000 *  0.0000     4          
    22  Zr    c      0.8629 *    -3.8068 *     3.8068    0.0000     2          
    23  O     c     -5.4817 *     0.0000       0.0000    0.0000     1          
    24  O     c      2.1318 *     5.0757 *    -0.0000 *  0.0000     4          
    25  Zr    c     -1.6750 *     3.8068 *     3.8068    0.0000     2          
    26  O     c     -0.4061 *     5.0757 *     2.5378 *  0.0000     4          
    27  O     c     -0.4061 *    -2.5378 *     5.0757 *  0.0000     4          
    28  Zr    c     -4.2128 *     3.8068 *     1.2689 *  0.0000     4          
    29  O     c     -2.9439 *    -0.0000 *     5.0757 *  0.0000     4          
    30  O     c      4.6696 *    -2.5378 *     2.5378    0.0000     2          
    31  O     c      4.6696 *     2.5378 *     2.5378    0.0000     2          
    32  O     c     -5.4817 *    -0.0000 *     2.5378 *  0.0000     4          
    33  O     c      2.1318 *    -5.0757 *     2.5378 *  0.0000     4          
    34  O     c      2.1318 *     5.0757 *     2.5378 *  0.0000     4          
    35  Zr    c      5.9385 *     1.2689 *    -1.2689    0.0000     2          
    36  Zr    c      3.4007 *     3.8068 *     3.8068    0.0000     2          
    37  O     c     -2.9439 *     5.0757 *     2.5378 *  0.0000     4          
    38  O     c     -2.9439 *    -5.0757 *     2.5378 *  0.0000     4          
    39  Zr    c      0.8629 *    -1.2689 *     6.3446 *  0.0000     4          
    40  O     c     -5.4817 *     2.5378 *    -2.5378    0.0000     2          
    41  O     c     -5.4817 *     2.5378 *     2.5378    0.0000     2          
    42  Zr    c     -1.6750 *     6.3446 *     1.2689 *  0.0000     4          
    43  Zr    c     -4.2128 *     3.8068 *    -3.8068    0.0000     2          
    44  O     c      4.6696 *     0.0000 *     5.0757 *  0.0000     4          
    45  Zr    c     -6.7507 *     1.2689 *     1.2689    0.0000     2          
    46  Zr    c      5.9385 *    -3.8068 *    -1.2689 *  0.0000     4          
    47  O     c     -0.4061 *     5.0757 *     5.0757    0.0000     2          
    48  O     c     -0.4061 *    -5.0757 *     5.0757    0.0000     2          
    49  O     c      7.2075 *    -0.0000      -0.0000    0.0000     1          
    50  Zr    c      3.4007 *    -6.3446 *    -1.2689 *  0.0000     4          
    51  O     c      4.6696 *     5.0757 *     2.5378 *  0.0000     4          
    52  O     c      4.6696 *    -2.5378 *     5.0757 *  0.0000     4          
    53  Zr    c      0.8629 *     3.8068 *     6.3446 *  0.0000     4          
    54  O     c     -5.4817 *     5.0757 *     0.0000 *  0.0000     4          
    55  O     c      2.1318 *     5.0757 *     5.0757    0.0000     2          
    56  O     c      2.1318 *    -5.0757 *     5.0757    0.0000     2          
    57  Zr    c     -1.6750 *     3.8068 *    -6.3446 *  0.0000     4          
    58  O     c     -0.4061 *    -0.0000 *     7.6135 *  0.0000     4          
    59  O     c      7.2075 *     2.5378 *     0.0000 *  0.0000     4          
    60  Zr    c     -4.2128 *     1.2689 *    -6.3446 *  0.0000     4          
    61  O     c     -2.9439 *     5.0757 *     5.0757    0.0000     2          
    62  O     c     -2.9439 *    -5.0757 *     5.0757    0.0000     2          
    63  Zr    c     -6.7507 *     1.2689 *    -3.8068 *  0.0000     4          
    64  O     c     -5.4817 *     2.5378 *     5.0757 *  0.0000     4          
    65  O     c     -5.4817 *    -2.5378 *     5.0757 *  0.0000     4          
    66  O     c      2.1318 *     0.0000 *     7.6135 *  0.0000     4          
    67  Zr    c      5.9385 *     3.8068 *    -3.8068    0.0000     2          
    68  O     c     -8.0196 *    -0.0000      -0.0000    0.0000     1          
    69  O     c     -0.4061 *    -7.6135 *     2.5378 *  0.0000     4          
    70  O     c     -0.4061 *     2.5378 *     7.6135 *  0.0000     4          
    71  O     c      7.2075 *     2.5378 *     2.5378    0.0000     2          
    72  O     c      7.2075 *     2.5378 *    -2.5378    0.0000     2          
    73  Zr    c      3.4007 *    -3.8068 *     6.3446 *  0.0000     4          
    74  O     c     -2.9439 *    -7.6135 *     0.0000 *  0.0000     4          
    75  O     c      2.1318 *     7.6135 *     2.5378 *  0.0000     4          
    76  O     c      2.1318 *    -2.5378 *     7.6135 *  0.0000     4          
    77  O     c     -8.0196 *    -2.5378 *     0.0000 *  0.0000     4          
    78  Zr    c     -4.2128 *     3.8068 *     6.3446 *  0.0000     4          
    79  O     c     -2.9439 *     7.6135 *    -2.5378 *  0.0000     4          
    80  O     c     -2.9439 *     2.5378 *     7.6135 *  0.0000     4          
    81  O     c      4.6696 *    -5.0757 *     5.0757    0.0000     2          
    82  O     c      4.6696 *     5.0757 *     5.0757    0.0000     2          
    83  Zr    c     -6.7507 *     3.8068 *     3.8068    0.0000     2          
    84  Zr    c      8.4764 *     1.2689 *     1.2689    0.0000     2          
    85  Zr    c      5.9385 *     6.3446 *    -1.2689 *  0.0000     4          
    86  O     c     -8.0196 *    -2.5378 *    -2.5378    0.0000     2          
    87  O     c     -8.0196 *    -2.5378 *     2.5378    0.0000     2          
    88  O     c      7.2075 *     5.0757 *    -0.0000 *  0.0000     4          
    89  O     c      4.6696 *     7.6135 *    -0.0000 *  0.0000     4          
    90  Zr    c      0.8629 *    -6.3446 *     6.3446    0.0000     2          
    91  Zr    c      0.8629 *     1.2689 *     8.8824 *  0.0000     4          
    92  O     c     -5.4817 *     5.0757 *     5.0757    0.0000     2          
    93  O     c     -5.4817 *    -5.0757 *     5.0757    0.0000     2          
    94  Zr    c     -1.6750 *     6.3446 *     6.3446    0.0000     2          
    95  Zr    c     -1.6750 *    -1.2689 *     8.8824 *  0.0000     4          
    96  O     c     -0.4061 *     7.6135 *     5.0757 *  0.0000     4          
    97  O     c     -0.4061 *    -5.0757 *     7.6135 *  0.0000     4          
    98  O     c      7.2075 *     5.0757 *    -2.5378 *  0.0000     4          
    99  O     c      7.2075 *     5.0757 *     2.5378 *  0.0000     4          
   100  O     c      4.6696 *    -7.6135 *     2.5378 *  0.0000     4          
   101  O     c      4.6696 *    -7.6135 *    -2.5378 *  0.0000     4          
   102  Zr    c     -6.7507 *    -6.3446 *    -1.2689 *  0.0000     4          
   103  Zr    c      8.4764 *     3.8068 *    -1.2689 *  0.0000     4          
   104  O     c     -5.4817 *    -0.0000 *     7.6135 *  0.0000     4          
   105  O     c      2.1318 *    -7.6135 *     5.0757 *  0.0000     4          
   106  O     c      2.1318 *     7.6135 *     5.0757 *  0.0000     4          
   107  Zr    c     -9.2885 *    -1.2689 *     1.2689    0.0000     2          
   108  Zr    c      5.9385 *     6.3446 *     3.8068 *  0.0000     4          
   109  O     c     -8.0196 *    -0.0000 *     5.0757 *  0.0000     4          
   110  Zr    c      3.4007 *    -1.2689 *     8.8824 *  0.0000     4          
   111  Zr    c      3.4007 *     6.3446 *     6.3446    0.0000     2          
   112  O     c     -2.9439 *    -7.6135 *     5.0757 *  0.0000     4          
   113  O     c     -2.9439 *     5.0757 *     7.6135 *  0.0000     4          
   114  Zr    c      0.8629 *    -3.8068 *     8.8824 *  0.0000     4          
   115  O     c     -5.4817 *     2.5378 *    -7.6135 *  0.0000     4          
   116  O     c     -5.4817 *     2.5378 *     7.6135 *  0.0000     4          
   117  O     c      9.7453 *     0.0000       0.0000    0.0000     1          
   118  Zr    c     -1.6750 *     3.8068 *     8.8824 *  0.0000     4          
   119  O     c     -8.0196 *    -5.0757 *    -2.5378 *  0.0000     4          
   120  O     c     -8.0196 *    -5.0757 *     2.5378 *  0.0000     4          
   121  Zr    c     -4.2128 *     6.3446 *    -6.3446    0.0000     2          
   122  Zr    c     -4.2128 *     8.8824 *     1.2689 *  0.0000     4          
   123  Zr    c     -6.7507 *     3.8068 *    -6.3446 *  0.0000     4          
   124  Zr    c      8.4764 *     3.8068 *     3.8068    0.0000     2          
   125  O     c      9.7453 *     2.5378 *    -0.0000 *  0.0000     4          
   126  Zr    c     -9.2885 *    -1.2689 *    -3.8068 *  0.0000     4          
   127  O     c     -0.4061 *    -0.0000 *    10.1514 *  0.0000     4          
   128  O     c      7.2075 *     5.0757 *     5.0757    0.0000     2          
   129  O     c      7.2075 *     5.0757 *    -5.0757    0.0000     2          
   130  Zr    c      3.4007 *     3.8068 *     8.8824 *  0.0000     4          
   131  O     c      4.6696 *     7.6135 *     5.0757 *  0.0000     4          
   132  O     c      4.6696 *     7.6135 *    -5.0757 *  0.0000     4          
   133  O     c      2.1318 *    -0.0000 *    10.1514 *  0.0000     4          
   134  O     c      9.7453 *     2.5378 *     2.5378    0.0000     2          
   135  O     c      9.7453 *     2.5378 *    -2.5378    0.0000     2          
   136  O     c     -0.4061 *    10.1514 *    -2.5378 *  0.0000     4          
   137  O     c     -0.4061 *     2.5378 *    10.1514 *  0.0000     4          
   138  O     c      7.2075 *     7.6135 *     0.0000 *  0.0000     4          
   139  Zr    c     -4.2128 *    -8.8824 *     3.8068 *  0.0000     4          
   140  O     c    -10.5574 *    -0.0000       0.0000    0.0000     1          
   141  O     c     -2.9439 *    -0.0000 *    10.1514 *  0.0000     4          
   142  Zr    c      8.4764 *     6.3446 *     1.2689 *  0.0000     4          
   143  O     c     -5.4817 *     5.0757 *     7.6135 *  0.0000     4          
   144  O     c     -5.4817 *     7.6135 *    -5.0757 *  0.0000     4          
   145  O     c      2.1318 *    -2.5378 *    10.1514 *  0.0000     4          
   146  O     c      2.1318 *     2.5378 *    10.1514 *  0.0000     4          
   147  Zr    c     -9.2885 *    -3.8068 *     3.8068    0.0000     2          
   148  Zr    c      5.9385 *     1.2689 *     8.8824 *  0.0000     4          
   149  Zr    c      5.9385 *    -6.3446 *     6.3446    0.0000     2          
   150  O     c     -8.0196 *     5.0757 *     5.0757    0.0000     2          
   151  O     c     -8.0196 *    -5.0757 *     5.0757    0.0000     2          
   152  O     c     -0.4061 *    -7.6135 *     7.6135    0.0000     2          
   153  O     c     -0.4061 *     7.6135 *     7.6135    0.0000     2          
   154  O     c      7.2075 *     7.6135 *     2.5378 *  0.0000     4          
   155  O     c      7.2075 *     7.6135 *    -2.5378 *  0.0000     4          
   156  O     c    -10.5574 *    -2.5378 *    -0.0000 *  0.0000     4          
   157  O     c     -2.9439 *     2.5378 *    10.1514 *  0.0000     4          
   158  O     c     -2.9439 *   -10.1514 *     2.5378 *  0.0000     4          
   159  Zr    c      0.8629 *     6.3446 *     8.8824 *  0.0000     4          
   160  O     c      2.1318 *     7.6135 *     7.6135    0.0000     2          
   161  O     c      2.1318 *    -7.6135 *     7.6135    0.0000     2          
   162  O     c      9.7453 *     0.0000 *    -5.0757 *  0.0000     4          
   163  Zr    c     -1.6750 *     6.3446 *    -8.8824 *  0.0000     4          
   164  O     c     -8.0196 *    -7.6135 *     0.0000 *  0.0000     4          
   165  O     c    -10.5574 *    -2.5378 *    -2.5378    0.0000     2          
   166  O     c    -10.5574 *    -2.5378 *     2.5378    0.0000     2          
   167  Zr    c     11.0142 *     1.2689 *    -1.2689    0.0000     2          
   168  O     c     -2.9439 *     7.6135 *     7.6135    0.0000     2          
   169  O     c     -2.9439 *    -7.6135 *     7.6135    0.0000     2          
   170  O     c      4.6696 *     0.0000 *    10.1514 *  0.0000     4          
   171  Zr    c     -6.7507 *     6.3446 *     6.3446    0.0000     2          
   172  Zr    c     -6.7507 *     8.8824 *    -1.2689 *  0.0000     4          
   173  Zr    c      8.4764 *     6.3446 *    -3.8068 *  0.0000     4          
   174  O     c      9.7453 *     5.0757 *     2.5378 *  0.0000     4          
   175  O     c      9.7453 *     5.0757 *    -2.5378 *  0.0000     4          
   176  Zr    c     -9.2885 *     1.2689 *    -6.3446 *  0.0000     4          
   177  Zr    c      5.9385 *    -3.8068 *     8.8824 *  0.0000     4          
   178  O     c     -8.0196 *    -2.5378 *     7.6135 *  0.0000     4          
   179  O     c     -8.0196 *     2.5378 *     7.6135 *  0.0000     4          
   180  O     c     -0.4061 *    10.1514 *     5.0757 *  0.0000     4          
   181  O     c     -0.4061 *   -10.1514 *     5.0757 *  0.0000     4          
   182  Zr    c      3.4007 *    -6.3446 *     8.8824 *  0.0000     4          
   183  O     c      4.6696 *    -2.5378 *    10.1514 *  0.0000     4          
   184  O     c      4.6696 *    10.1514 *     2.5378 *  0.0000     4          
   185  Zr    c      0.8629 *    -1.2689 *    11.4203 *  0.0000     4          
   186  O     c     -5.4817 *   -10.1514 *     0.0000 *  0.0000     4          
   187  O     c      2.1318 *    10.1514 *     5.0757 *  0.0000     4          
   188  O     c      2.1318 *    -5.0757 *    10.1514 *  0.0000     4          
   189  Zr    c     -1.6750 *     1.2689 *    11.4203 *  0.0000     4          
   190  O     c      7.2075 *    -5.0757 *     7.6135 *  0.0000     4          
   191  O     c      7.2075 *     7.6135 *     5.0757 *  0.0000     4          
   192  Zr    c     -4.2128 *     6.3446 *     8.8824 *  0.0000     4          
   193  O     c    -10.5574 *    -5.0757 *     0.0000 *  0.0000     4          
   194  Zr    c     11.0142 *     3.8068 *     1.2689 *  0.0000     4          
   195  O     c     -2.9439 *    -5.0757 *    10.1514 *  0.0000     4          
   196  O     c     -2.9439 *     5.0757 *    10.1514 *  0.0000     4          
   197  O     c      4.6696 *    -7.6135 *     7.6135    0.0000     2          
   198  O     c      4.6696 *     7.6135 *     7.6135    0.0000     2          
   199  Zr    c     -6.7507 *     3.8068 *     8.8824 *  0.0000     4          
   200  O     c     -5.4817 *    -2.5378 *    10.1514 *  0.0000     4          
   201  O     c     -5.4817 *     2.5378 *    10.1514 *  0.0000     4          
   202  Zr    c     -9.2885 *    -6.3446 *    -3.8068 *  0.0000     4          
   203  Zr    c    -11.8263 *    -1.2689 *    -1.2689    0.0000     2          
   204  Zr    c      3.4007 *     1.2689 *    11.4203 *  0.0000     4          
   205  O     c    -10.5574 *     5.0757 *     2.5378 *  0.0000     4          
   206  O     c    -10.5574 *    -2.5378 *     5.0757 *  0.0000     4          
   207  O     s      0.0000       0.0000       0.0000    0.0000     1    Defect
   208  Zr    s      0.8629 *    -1.2689 *     1.2689    0.0000     2          
   209  Zr    s     -1.6750 *    -1.2689 *    -1.2689    0.0000     2          
   210  O     s     -0.4061 *     2.5378 *    -0.0000 *  0.0000     4          
   211  O     s     -2.9439 *    -0.0000      -0.0000    0.0000     1          
   212  O     s      2.1318 *     0.0000 *    -2.5378 *  0.0000     4          
   213  O     s     -0.4061 *     2.5378 *     2.5378    0.0000     2          
   214  O     s     -0.4061 *    -2.5378 *     2.5378    0.0000     2          
   215  Zr    s      3.4007 *     1.2689 *     1.2689    0.0000     2          
   216  O     s     -2.9439 *     0.0000 *     2.5378 *  0.0000     4          
   217  Zr    s      0.8629 *     1.2689 *     3.8068 *  0.0000     4          
   218  O     s      2.1318 *     2.5378 *     2.5378    0.0000     2          
   219  O     s      2.1318 *     2.5378 *    -2.5378    0.0000     2          
   220  Zr    s     -1.6750 *     3.8068 *    -1.2689 *  0.0000     4          
   221  Zr    s     -4.2128 *    -1.2689 *     1.2689    0.0000     2          
   222  O     s     -2.9439 *     2.5378 *     2.5378    0.0000     2          
   223  O     s     -2.9439 *    -2.5378 *     2.5378    0.0000     2          
   224  O     s      4.6696 *     0.0000       0.0000    0.0000     1          
   225  O     s     -0.4061 *    -5.0757 *     0.0000 *  0.0000     4          
   226  Zr    s      3.4007 *    -1.2689 *     3.8068 *  0.0000     4          
   227  O     s      4.6696 *     2.5378 *    -0.0000 *  0.0000     4          
   228  Zr    s      0.8629 *    -3.8068 *     3.8068    0.0000     2          
   229  O     s     -5.4817 *     0.0000       0.0000    0.0000     1          
   230  O     s      2.1318 *     5.0757 *    -0.0000 *  0.0000     4          
   231  Zr    s     -1.6750 *     3.8068 *     3.8068    0.0000     2          
   232  O     s     -0.4061 *     5.0757 *     2.5378 *  0.0000     4          
   233  O     s     -0.4061 *    -2.5378 *     5.0757 *  0.0000     4          
   234  Zr    s     -4.2128 *     3.8068 *     1.2689 *  0.0000     4          
   235  O     s     -2.9439 *    -0.0000 *     5.0757 *  0.0000     4          
   236  O     s      4.6696 *    -2.5378 *     2.5378    0.0000     2          
   237  O     s      4.6696 *     2.5378 *     2.5378    0.0000     2          
   238  O     s     -5.4817 *    -0.0000 *     2.5378 *  0.0000     4          
   239  O     s      2.1318 *    -5.0757 *     2.5378 *  0.0000     4          
   240  O     s      2.1318 *     5.0757 *     2.5378 *  0.0000     4          
   241  Zr    s      5.9385 *     1.2689 *    -1.2689    0.0000     2          
   242  Zr    s      3.4007 *     3.8068 *     3.8068    0.0000     2          
   243  O     s     -2.9439 *     5.0757 *     2.5378 *  0.0000     4          
   244  O     s     -2.9439 *    -5.0757 *     2.5378 *  0.0000     4          
   245  Zr    s      0.8629 *    -1.2689 *     6.3446 *  0.0000     4          
   246  O     s     -5.4817 *     2.5378 *    -2.5378    0.0000     2          
   247  O     s     -5.4817 *     2.5378 *     2.5378    0.0000     2          
   248  Zr    s     -1.6750 *     6.3446 *     1.2689 *  0.0000     4          
   249  Zr    s     -4.2128 *     3.8068 *    -3.8068    0.0000     2          
   250  O     s      4.6696 *     0.0000 *     5.0757 *  0.0000     4          
   251  Zr    s     -6.7507 *     1.2689 *     1.2689    0.0000     2          
   252  Zr    s      5.9385 *    -3.8068 *    -1.2689 *  0.0000     4          
   253  O     s     -0.4061 *     5.0757 *     5.0757    0.0000     2          
   254  O     s     -0.4061 *    -5.0757 *     5.0757    0.0000     2          
   255  O     s      7.2075 *    -0.0000      -0.0000    0.0000     1          
   256  Zr    s      3.4007 *    -6.3446 *    -1.2689 *  0.0000     4          
   257  O     s      4.6696 *     5.0757 *     2.5378 *  0.0000     4          
   258  O     s      4.6696 *    -2.5378 *     5.0757 *  0.0000     4          
   259  Zr    s      0.8629 *     3.8068 *     6.3446 *  0.0000     4          
   260  O     s     -5.4817 *     5.0757 *     0.0000 *  0.0000     4          
   261  O     s      2.1318 *     5.0757 *     5.0757    0.0000     2          
   262  O     s      2.1318 *    -5.0757 *     5.0757    0.0000     2          
   263  Zr    s     -1.6750 *     3.8068 *    -6.3446 *  0.0000     4          
   264  O     s     -0.4061 *    -0.0000 *     7.6135 *  0.0000     4          
   265  O     s      7.2075 *     2.5378 *     0.0000 *  0.0000     4          
   266  Zr    s     -4.2128 *     1.2689 *    -6.3446 *  0.0000     4          
   267  O     s     -2.9439 *     5.0757 *     5.0757    0.0000     2          
   268  O     s     -2.9439 *    -5.0757 *     5.0757    0.0000     2          
   269  Zr    s     -6.7507 *     1.2689 *    -3.8068 *  0.0000     4          
   270  O     s     -5.4817 *     2.5378 *     5.0757 *  0.0000     4          
   271  O     s     -5.4817 *    -2.5378 *     5.0757 *  0.0000     4          
   272  O     s      2.1318 *     0.0000 *     7.6135 *  0.0000     4          
   273  Zr    s      5.9385 *     3.8068 *    -3.8068    0.0000     2          
   274  O     s     -8.0196 *    -0.0000      -0.0000    0.0000     1          
   275  O     s     -0.4061 *    -7.6135 *     2.5378 *  0.0000     4          
   276  O     s     -0.4061 *     2.5378 *     7.6135 *  0.0000     4          
   277  O     s      7.2075 *     2.5378 *     2.5378    0.0000     2          
   278  O     s      7.2075 *     2.5378 *    -2.5378    0.0000     2          
   279  Zr    s      3.4007 *    -3.8068 *     6.3446 *  0.0000     4          
   280  O     s     -2.9439 *    -7.6135 *     0.0000 *  0.0000     4          
   281  O     s      2.1318 *     7.6135 *     2.5378 *  0.0000     4          
   282  O     s      2.1318 *    -2.5378 *     7.6135 *  0.0000     4          
   283  O     s     -8.0196 *    -2.5378 *     0.0000 *  0.0000     4          
   284  Zr    s     -4.2128 *     3.8068 *     6.3446 *  0.0000     4          
   285  O     s     -2.9439 *     7.6135 *    -2.5378 *  0.0000     4          
   286  O     s     -2.9439 *     2.5378 *     7.6135 *  0.0000     4          
   287  O     s      4.6696 *    -5.0757 *     5.0757    0.0000     2          
   288  O     s      4.6696 *     5.0757 *     5.0757    0.0000     2          
   289  Zr    s     -6.7507 *     3.8068 *     3.8068    0.0000     2          
   290  Zr    s      8.4764 *     1.2689 *     1.2689    0.0000     2          
   291  Zr    s      5.9385 *     6.3446 *    -1.2689 *  0.0000     4          
   292  O     s     -8.0196 *    -2.5378 *    -2.5378    0.0000     2          
   293  O     s     -8.0196 *    -2.5378 *     2.5378    0.0000     2          
   294  O     s      7.2075 *     5.0757 *    -0.0000 *  0.0000     4          
   295  O     s      4.6696 *     7.6135 *    -0.0000 *  0.0000     4          
   296  Zr    s      0.8629 *    -6.3446 *     6.3446    0.0000     2          
   297  Zr    s      0.8629 *     1.2689 *     8.8824 *  0.0000     4          
   298  O     s     -5.4817 *     5.0757 *     5.0757    0.0000     2          
   299  O     s     -5.4817 *    -5.0757 *     5.0757    0.0000     2          
   300  Zr    s     -1.6750 *     6.3446 *     6.3446    0.0000     2          
   301  Zr    s     -1.6750 *    -1.2689 *     8.8824 *  0.0000     4          
   302  O     s     -0.4061 *     7.6135 *     5.0757 *  0.0000     4          
   303  O     s     -0.4061 *    -5.0757 *     7.6135 *  0.0000     4          
   304  O     s      7.2075 *     5.0757 *    -2.5378 *  0.0000     4          
   305  O     s      7.2075 *     5.0757 *     2.5378 *  0.0000     4          
   306  O     s      4.6696 *    -7.6135 *     2.5378 *  0.0000     4          
   307  O     s      4.6696 *    -7.6135 *    -2.5378 *  0.0000     4          
   308  Zr    s     -6.7507 *    -6.3446 *    -1.2689 *  0.0000     4          
   309  Zr    s      8.4764 *     3.8068 *    -1.2689 *  0.0000     4          
   310  O     s     -5.4817 *    -0.0000 *     7.6135 *  0.0000     4          
   311  O     s      2.1318 *    -7.6135 *     5.0757 *  0.0000     4          
   312  O     s      2.1318 *     7.6135 *     5.0757 *  0.0000     4          
   313  Zr    s     -9.2885 *    -1.2689 *     1.2689    0.0000     2          
   314  Zr    s      5.9385 *     6.3446 *     3.8068 *  0.0000     4          
   315  O     s     -8.0196 *    -0.0000 *     5.0757 *  0.0000     4          
   316  Zr    s      3.4007 *    -1.2689 *     8.8824 *  0.0000     4          
   317  Zr    s      3.4007 *     6.3446 *     6.3446    0.0000     2          
   318  O     s     -2.9439 *    -7.6135 *     5.0757 *  0.0000     4          
   319  O     s     -2.9439 *     5.0757 *     7.6135 *  0.0000     4          
   320  Zr    s      0.8629 *    -3.8068 *     8.8824 *  0.0000     4          
   321  O     s     -5.4817 *     2.5378 *    -7.6135 *  0.0000     4          
   322  O     s     -5.4817 *     2.5378 *     7.6135 *  0.0000     4          
   323  O     s      9.7453 *     0.0000       0.0000    0.0000     1          
   324  Zr    s     -1.6750 *     3.8068 *     8.8824 *  0.0000     4          
   325  O     s     -8.0196 *    -5.0757 *    -2.5378 *  0.0000     4          
   326  O     s     -8.0196 *    -5.0757 *     2.5378 *  0.0000     4          
   327  Zr    s     -4.2128 *     6.3446 *    -6.3446    0.0000     2          
   328  Zr    s     -4.2128 *     8.8824 *     1.2689 *  0.0000     4          
   329  Zr    s     -6.7507 *     3.8068 *    -6.3446 *  0.0000     4          
   330  Zr    s      8.4764 *     3.8068 *     3.8068    0.0000     2          
   331  O     s      9.7453 *     2.5378 *    -0.0000 *  0.0000     4          
   332  Zr    s     -9.2885 *    -1.2689 *    -3.8068 *  0.0000     4          
   333  O     s     -0.4061 *    -0.0000 *    10.1514 *  0.0000     4          
   334  O     s      7.2075 *     5.0757 *     5.0757    0.0000     2          
   335  O     s      7.2075 *     5.0757 *    -5.0757    0.0000     2          
   336  Zr    s      3.4007 *     3.8068 *     8.8824 *  0.0000     4          
   337  O     s      4.6696 *     7.6135 *     5.0757 *  0.0000     4          
   338  O     s      4.6696 *     7.6135 *    -5.0757 *  0.0000     4          
   339  O     s      2.1318 *    -0.0000 *    10.1514 *  0.0000     4          
   340  O     s      9.7453 *     2.5378 *     2.5378    0.0000     2          
   341  O     s      9.7453 *     2.5378 *    -2.5378    0.0000     2          
   342  O     s     -0.4061 *    10.1514 *    -2.5378 *  0.0000     4          
   343  O     s     -0.4061 *     2.5378 *    10.1514 *  0.0000     4          
   344  O     s      7.2075 *     7.6135 *     0.0000 *  0.0000     4          
   345  Zr    s     -4.2128 *    -8.8824 *     3.8068 *  0.0000     4          
   346  O     s    -10.5574 *    -0.0000       0.0000    0.0000     1          
   347  O     s     -2.9439 *    -0.0000 *    10.1514 *  0.0000     4          
   348  Zr    s      8.4764 *     6.3446 *     1.2689 *  0.0000     4          
   349  O     s     -5.4817 *     5.0757 *     7.6135 *  0.0000     4          
   350  O     s     -5.4817 *     7.6135 *    -5.0757 *  0.0000     4          
   351  O     s      2.1318 *    -2.5378 *    10.1514 *  0.0000     4          
   352  O     s      2.1318 *     2.5378 *    10.1514 *  0.0000     4          
   353  Zr    s     -9.2885 *    -3.8068 *     3.8068    0.0000     2          
   354  Zr    s      5.9385 *     1.2689 *     8.8824 *  0.0000     4          
   355  Zr    s      5.9385 *    -6.3446 *     6.3446    0.0000     2          
   356  O     s     -8.0196 *     5.0757 *     5.0757    0.0000     2          
   357  O     s     -8.0196 *    -5.0757 *     5.0757    0.0000     2          
   358  O     s     -0.4061 *    -7.6135 *     7.6135    0.0000     2          
   359  O     s     -0.4061 *     7.6135 *     7.6135    0.0000     2          
   360  O     s      7.2075 *     7.6135 *     2.5378 *  0.0000     4          
   361  O     s      7.2075 *     7.6135 *    -2.5378 *  0.0000     4          
   362  O     s    -10.5574 *    -2.5378 *    -0.0000 *  0.0000     4          
   363  O     s     -2.9439 *     2.5378 *    10.1514 *  0.0000     4          
   364  O     s     -2.9439 *   -10.1514 *     2.5378 *  0.0000     4          
   365  Zr    s      0.8629 *     6.3446 *     8.8824 *  0.0000     4          
   366  O     s      2.1318 *     7.6135 *     7.6135    0.0000     2          
   367  O     s      2.1318 *    -7.6135 *     7.6135    0.0000     2          
   368  O     s      9.7453 *     0.0000 *    -5.0757 *  0.0000     4          
   369  Zr    s     -1.6750 *     6.3446 *    -8.8824 *  0.0000     4          
   370  O     s     -8.0196 *    -7.6135 *     0.0000 *  0.0000     4          
   371  O     s    -10.5574 *    -2.5378 *    -2.5378    0.0000     2          
   372  O     s    -10.5574 *    -2.5378 *     2.5378    0.0000     2          
   373  Zr    s     11.0142 *     1.2689 *    -1.2689    0.0000     2          
   374  O     s     -2.9439 *     7.6135 *     7.6135    0.0000     2          
   375  O     s     -2.9439 *    -7.6135 *     7.6135    0.0000     2          
   376  O     s      4.6696 *     0.0000 *    10.1514 *  0.0000     4          
   377  Zr    s     -6.7507 *     6.3446 *     6.3446    0.0000     2          
   378  Zr    s     -6.7507 *     8.8824 *    -1.2689 *  0.0000     4          
   379  Zr    s      8.4764 *     6.3446 *    -3.8068 *  0.0000     4          
   380  O     s      9.7453 *     5.0757 *     2.5378 *  0.0000     4          
   381  O     s      9.7453 *     5.0757 *    -2.5378 *  0.0000     4          
   382  Zr    s     -9.2885 *     1.2689 *    -6.3446 *  0.0000     4          
   383  Zr    s      5.9385 *    -3.8068 *     8.8824 *  0.0000     4          
   384  O     s     -8.0196 *    -2.5378 *     7.6135 *  0.0000     4          
   385  O     s     -8.0196 *     2.5378 *     7.6135 *  0.0000     4          
   386  O     s     -0.4061 *    10.1514 *     5.0757 *  0.0000     4          
   387  O     s     -0.4061 *   -10.1514 *     5.0757 *  0.0000     4          
   388  Zr    s      3.4007 *    -6.3446 *     8.8824 *  0.0000     4          
   389  O     s      4.6696 *    -2.5378 *    10.1514 *  0.0000     4          
   390  O     s      4.6696 *    10.1514 *     2.5378 *  0.0000     4          
   391  Zr    s      0.8629 *    -1.2689 *    11.4203 *  0.0000     4          
   392  O     s     -5.4817 *   -10.1514 *     0.0000 *  0.0000     4          
   393  O     s      2.1318 *    10.1514 *     5.0757 *  0.0000     4          
   394  O     s      2.1318 *    -5.0757 *    10.1514 *  0.0000     4          
   395  Zr    s     -1.6750 *     1.2689 *    11.4203 *  0.0000     4          
   396  O     s      7.2075 *    -5.0757 *     7.6135 *  0.0000     4          
   397  O     s      7.2075 *     7.6135 *     5.0757 *  0.0000     4          
   398  Zr    s     -4.2128 *     6.3446 *     8.8824 *  0.0000     4          
   399  O     s    -10.5574 *    -5.0757 *     0.0000 *  0.0000     4          
   400  Zr    s     11.0142 *     3.8068 *     1.2689 *  0.0000     4          
   401  O     s     -2.9439 *    -5.0757 *    10.1514 *  0.0000     4          
   402  O     s     -2.9439 *     5.0757 *    10.1514 *  0.0000     4          
   403  O     s      4.6696 *    -7.6135 *     7.6135    0.0000     2          
   404  O     s      4.6696 *     7.6135 *     7.6135    0.0000     2          
   405  Zr    s     -6.7507 *     3.8068 *     8.8824 *  0.0000     4          
   406  O     s     -5.4817 *    -2.5378 *    10.1514 *  0.0000     4          
   407  O     s     -5.4817 *     2.5378 *    10.1514 *  0.0000     4          
   408  Zr    s     -9.2885 *    -6.3446 *    -3.8068 *  0.0000     4          
   409  Zr    s    -11.8263 *    -1.2689 *    -1.2689    0.0000     2          
   410  Zr    s      3.4007 *     1.2689 *    11.4203 *  0.0000     4          
   411  O     s    -10.5574 *     5.0757 *     2.5378 *  0.0000     4          
   412  O     s    -10.5574 *    -2.5378 *     5.0757 *  0.0000     4          
--------------------------------------------------------------------------------


  Constraints on symmetry reduced coordinates :

--------------------------------------------------------------------------------
  Constraint no.      Unconstrained     Constrained    Coefficient    
                         Variable         Variable
--------------------------------------------------------------------------------
           1                 2 y             2 z        -1.00000
           2                 3 y             3 z         1.00000
           3                 7 y             7 z         1.00000
           4                 8 y             8 z        -1.00000
           5                 9 y             9 z         1.00000
           6                12 y            12 z         1.00000
           7                13 y            13 z        -1.00000
           8                15 y            15 z        -1.00000
           9                16 y            16 z         1.00000
          10                17 y            17 z        -1.00000
          11                22 y            22 z        -1.00000
          12                25 y            25 z         1.00000
          13                30 y            30 z        -1.00000
          14                31 y            31 z         1.00000
          15                35 y            35 z        -1.00000
          16                36 y            36 z         1.00000
          17                40 y            40 z        -1.00000
          18                41 y            41 z         1.00000
          19                43 y            43 z        -1.00000
          20                45 y            45 z         1.00000
          21                47 y            47 z         1.00000
          22                48 y            48 z        -1.00000
          23                55 y            55 z         1.00000
          24                56 y            56 z        -1.00000
          25                61 y            61 z         1.00000
          26                62 y            62 z        -1.00000
          27                67 y            67 z        -1.00000
          28                71 y            71 z         1.00000
          29                72 y            72 z        -1.00000
          30                81 y            81 z        -1.00000
          31                82 y            82 z         1.00000
          32                83 y            83 z         1.00000
          33                84 y            84 z         1.00000
          34                86 y            86 z         1.00000
          35                87 y            87 z        -1.00000
          36                90 y            90 z        -1.00000
          37                92 y            92 z         1.00000
          38                93 y            93 z        -1.00000
          39                94 y            94 z         1.00000
          40               107 y           107 z        -1.00000
          41               111 y           111 z         1.00000
          42               121 y           121 z        -1.00000
          43               124 y           124 z         1.00000
          44               128 y           128 z         1.00000
          45               129 y           129 z        -1.00000
          46               134 y           134 z         1.00000
          47               135 y           135 z        -1.00000
          48               147 y           147 z        -1.00000
          49               149 y           149 z        -1.00000
          50               150 y           150 z         1.00000
          51               151 y           151 z        -1.00000
          52               152 y           152 z        -1.00000
          53               153 y           153 z         1.00000
          54               160 y           160 z         1.00000
          55               161 y           161 z        -1.00000
          56               165 y           165 z         1.00000
          57               166 y           166 z        -1.00000
          58               167 y           167 z        -1.00000
          59               168 y           168 z         1.00000
          60               169 y           169 z        -1.00000
          61               171 y           171 z         1.00000
          62               197 y           197 z        -1.00000
          63               198 y           198 z         1.00000
          64               203 y           203 z         1.00000
          65               208 y           208 z        -1.00000
          66               209 y           209 z         1.00000
          67               213 y           213 z         1.00000
          68               214 y           214 z        -1.00000
          69               215 y           215 z         1.00000
          70               218 y           218 z         1.00000
          71               219 y           219 z        -1.00000
          72               221 y           221 z        -1.00000
          73               222 y           222 z         1.00000
          74               223 y           223 z        -1.00000
          75               228 y           228 z        -1.00000
          76               231 y           231 z         1.00000
          77               236 y           236 z        -1.00000
          78               237 y           237 z         1.00000
          79               241 y           241 z        -1.00000
          80               242 y           242 z         1.00000
          81               246 y           246 z        -1.00000
          82               247 y           247 z         1.00000
          83               249 y           249 z        -1.00000
          84               251 y           251 z         1.00000
          85               253 y           253 z         1.00000
          86               254 y           254 z        -1.00000
          87               261 y           261 z         1.00000
          88               262 y           262 z        -1.00000
          89               267 y           267 z         1.00000
          90               268 y           268 z        -1.00000
          91               273 y           273 z        -1.00000
          92               277 y           277 z         1.00000
          93               278 y           278 z        -1.00000
          94               287 y           287 z        -1.00000
          95               288 y           288 z         1.00000
          96               289 y           289 z         1.00000
          97               290 y           290 z         1.00000
          98               292 y           292 z         1.00000
          99               293 y           293 z        -1.00000
         100               296 y           296 z        -1.00000
         101               298 y           298 z         1.00000
         102               299 y           299 z        -1.00000
         103               300 y           300 z         1.00000
         104               313 y           313 z        -1.00000
         105               317 y           317 z         1.00000
         106               327 y           327 z        -1.00000
         107               330 y           330 z         1.00000
         108               334 y           334 z         1.00000
         109               335 y           335 z        -1.00000
         110               340 y           340 z         1.00000
         111               341 y           341 z        -1.00000
         112               353 y           353 z        -1.00000
         113               355 y           355 z        -1.00000
         114               356 y           356 z         1.00000
         115               357 y           357 z        -1.00000
         116               358 y           358 z        -1.00000
         117               359 y           359 z         1.00000
         118               366 y           366 z         1.00000
         119               367 y           367 z        -1.00000
         120               371 y           371 z         1.00000
         121               372 y           372 z        -1.00000
         122               373 y           373 z        -1.00000
         123               374 y           374 z         1.00000
         124               375 y           375 z        -1.00000
         125               377 y           377 z         1.00000
         126               403 y           403 z        -1.00000
         127               404 y           404 z         1.00000
         128               409 y           409 z         1.00000
--------------------------------------------------------------------------------


  Components of defect energy : 

--------------------------------------------------------------------------------
  Region 1 - region 1                   =     28.80229550 eV
  Region 1 - region 2a (unrelaxed)      =      3.95670877 eV
  Region 1 - 2a (relaxed - correction)  =     -2.35808686 eV
  Region 1 (Total)                      =     30.40091741 eV
  Region 2a                             =      1.17907244 eV
  Region 2b                             =     -1.15961766 eV
--------------------------------------------------------------------------------
  Total defect energy                   =     30.42037219 eV
--------------------------------------------------------------------------------

  Largest displacement in region 2 =   0.0062 Angstroms


  Number of variables =     1074

  Maximum number of calculations  =        1000
  Maximum Hessian update interval =          10
  Maximum step size               =   1.0000000
  Maximum parameter tolerance     =   0.0000100
  Maximum function  tolerance     =   0.0000100
  Maximum gradient  tolerance     =   0.0010000

  Symmetry adapted optimisation

  Symmetry to be used for second derivatives

  Newton-Raphson optimiser to be used

  BFGS hessian update to be used

  Lower half triangular hessian to be used

  Start of defect optimisation :

  Cycle:      0 Defect Energy:  30.420372  Gnorm:     0.084618  CPU:    5.141
  ** Hessian calculated **
  Cycle:      1 Defect Energy:  21.873186  Gnorm:     0.033721  CPU:   15.519
  Cycle:      2 Defect Energy:  17.166493  Gnorm:     0.017453  CPU:   24.788
  Cycle:      3 Defect Energy:  16.542553  Gnorm:     0.013779  CPU:   31.053
  Cycle:      4 Defect Energy:  15.906435  Gnorm:     0.008097  CPU:   38.823
  Cycle:      5 Defect Energy:  15.465350  Gnorm:     0.007255  CPU:   46.557
  Cycle:      6 Defect Energy:  15.336322  Gnorm:     0.006001  CPU:   52.755
  Cycle:      7 Defect Energy:  15.204975  Gnorm:     0.004355  CPU:   60.594
  Cycle:      8 Defect Energy:  15.091017  Gnorm:     0.003648  CPU:   68.396
  Cycle:      9 Defect Energy:  15.059009  Gnorm:     0.003274  CPU:   70.052
  Cycle:     10 Defect Energy:  15.011451  Gnorm:     0.002997  CPU:   71.707
  ** Hessian calculated **
  Cycle:     11 Defect Energy:  14.933914  Gnorm:     0.002646  CPU:   79.186
  Cycle:     12 Defect Energy:  14.835741  Gnorm:     0.002115  CPU:   80.840
  Cycle:     13 Defect Energy:  14.748812  Gnorm:     0.001485  CPU:   82.481
  Cycle:     14 Defect Energy:  14.707972  Gnorm:     0.001047  CPU:   84.128
  Cycle:     15 Defect Energy:  14.688661  Gnorm:     0.000738  CPU:   85.770
  Cycle:     16 Defect Energy:  14.679531  Gnorm:     0.000520  CPU:   87.423
  Cycle:     17 Defect Energy:  14.675227  Gnorm:     0.000366  CPU:   89.115
  Cycle:     18 Defect Energy:  14.673479  Gnorm:     0.000257  CPU:   90.767
  Cycle:     19 Defect Energy:  14.672597  Gnorm:     0.000180  CPU:   92.387
  Cycle:     20 Defect Energy:  14.672190  Gnorm:     0.000126  CPU:   94.014
  ** Hessian calculated **
  Cycle:     21 Defect Energy:  14.672021  Gnorm:     0.000089  CPU:  101.565
  Cycle:     22 Defect Energy:  14.671958  Gnorm:     0.000062  CPU:  103.191
  Cycle:     23 Defect Energy:  14.671942  Gnorm:     0.000043  CPU:  104.832
  Cycle:     24 Defect Energy:  14.671944  Gnorm:     0.000030  CPU:  106.496


  **** Optimisation achieved ****


  Final defect energy  =       14.67195196
  Final defect Gnorm   =        0.00002131

  Components of defect energy : 

--------------------------------------------------------------------------------
  Region 1 - region 1                   =     19.60618555 eV
  Region 1 - region 2a (unrelaxed)      =     -2.74549139 eV
  Region 1 - 2a (relaxed - correction)  =     -2.06567221 eV
  Region 1 (Total)                      =     14.79502195 eV
  Region 2a                             =      1.03274927 eV
  Region 2b                             =     -1.15581927 eV
--------------------------------------------------------------------------------
  Total defect energy                   =     14.67195196 eV
--------------------------------------------------------------------------------

  Largest displacement in region 2 =   0.0062 Angstroms

  Final coordinates of region 1 :

--------------------------------------------------------------------------------
   No.  Atomic        x           y           z          Radius      Charge
        Label       (Angs)      (Angs)      (Angs)       (Angs)       (e) 
--------------------------------------------------------------------------------
     1  O     c     1.674976    1.268921    1.268921    0.000000    0.077000
     2  Zr    c     2.488806   -0.048588    2.586430    0.000000    2.650000
     3  Zr    c     2.488806    2.586430   -0.048588    0.000000    2.650000
     4  Zr    c    -0.022137   -0.026800   -0.026800    0.000000    2.650000
     5  Zr    c    -0.022137    2.564642    2.564642    0.000000    2.650000
     6  O     c     1.228626    3.848095    1.236562    0.000000    0.077000
     7  O     c     1.228626    1.236562    3.848095    0.000000    0.077000
     8  O     c     1.228626    1.301280   -1.310254    0.000000    0.077000
     9  O     c     1.228626   -1.310254    1.301280    0.000000    0.077000
    10  O     c    -0.982093    1.268921    1.268921    0.000000    0.077000
    11  O     c     3.808867    1.269825   -0.855380    0.000000    0.077000
    12  O     c     3.808867   -0.855380    1.269825    0.000000    0.077000
    13  O     c     3.808867    3.393222    1.268017    0.000000    0.077000
    14  O     c     3.808867    1.268017    3.393222    0.000000    0.077000
    15  O     c     1.306141    3.781398    3.781398    0.000000    0.077000
    16  O     c     1.306141   -1.243557   -1.243557    0.000000    0.077000
    17  O     c     1.265712   -1.288680    3.826521    0.000000    0.077000
    18  O     c     1.265712    3.826521   -1.288680    0.000000    0.077000
    19  Zr    c     5.127597    2.591826    2.591826    0.000000    2.650000
    20  Zr    c     5.127597   -0.053984   -0.053984    0.000000    2.650000
    21  O     c    -1.313593    1.289299    3.790078    0.000000    0.077000
    22  O     c    -1.313593    3.790078    1.289299    0.000000    0.077000
    23  O     c    -1.313593   -1.252236    1.248543    0.000000    0.077000
    24  O     c    -1.313593    1.248543   -1.252236    0.000000    0.077000
    25  Zr    c     2.508809    2.566708    5.101142    0.000000    2.650000
    26  Zr    c     2.508809   -2.563301   -0.028866    0.000000    2.650000
    27  Zr    c     2.508809    5.101142    2.566708    0.000000    2.650000
    28  Zr    c     2.508809   -0.028866   -2.563301    0.000000    2.650000
    29  O     c     3.852249    3.845270    3.845270    0.000000    0.077000
    30  O     c     3.852249   -1.307428   -1.307428    0.000000    0.077000
    31  O     c     3.790060    3.846541   -1.308699    0.000000    0.077000
    32  O     c     3.790060   -1.308699    3.846541    0.000000    0.077000
    33  Zr    c    -0.020596    5.096813   -0.010944    0.000000    2.650000
    34  Zr    c    -0.020596   -2.558971    2.548786    0.000000    2.650000
    35  Zr    c    -0.020596    2.548786   -2.558971    0.000000    2.650000
    36  Zr    c    -0.020596   -0.010944    5.096813    0.000000    2.650000
    37  Zr    c    -2.541187   -0.014652    2.552494    0.000000    2.650000
    38  Zr    c    -2.541187    2.552494   -0.014652    0.000000    2.650000
    39  O     c    -1.220370    3.812229    3.812229    0.000000    0.077000
    40  O     c    -1.220370   -1.274387   -1.274387    0.000000    0.077000
    41  O     c    -1.259074   -1.257793    3.795635    0.000000    0.077000
    42  O     c    -1.259074    3.795635   -1.257793    0.000000    0.077000
    43  O     c     5.993830    1.268921    1.268921    0.000000    0.077000
    44  O     c     1.296675   -3.848164    1.248566    0.000000    0.077000
    45  O     c     1.296675    1.248566   -3.848164    0.000000    0.077000
    46  O     c     1.296675    1.289275    6.386006    0.000000    0.077000
    47  O     c     1.296675    6.386006    1.289275    0.000000    0.077000
    48  Zr    c     5.105552   -0.027407    5.097522    0.000000    2.650000
    49  Zr    c     5.105552   -2.559680    2.565248    0.000000    2.650000
    50  Zr    c     5.105552    5.097522   -0.027407    0.000000    2.650000
    51  Zr    c     5.105552    2.565248   -2.559680    0.000000    2.650000
    52  O     c     6.377718    3.849839    1.299908    0.000000    0.077000
    53  O     c     6.377718    1.299908    3.849839    0.000000    0.077000
    54  O     c     6.377718    1.237934   -1.311997    0.000000    0.077000
    55  O     c     6.377718   -1.311997    1.237934    0.000000    0.077000
    56  Zr    c     2.529025   -2.557277    5.095119    0.000000    2.650000
    57  Zr    c     2.529025    5.095119   -2.557277    0.000000    2.650000
    58  O     c    -3.627110    1.268921    1.268921    0.000000    0.077000
    59  O     c     3.817163    6.064489    1.273207    0.000000    0.077000
    60  O     c     3.817163    1.273207    6.064489    0.000000    0.077000
    61  O     c     3.817163    1.264635   -3.526647    0.000000    0.077000
    62  O     c     3.817163   -3.526647    1.264635    0.000000    0.077000
    63  Zr    c    -0.020198    5.093831    5.093831    0.000000    2.650000
    64  Zr    c    -0.020198   -2.555989   -2.555989    0.000000    2.650000
    65  O     c     1.260441    6.307221    3.809543    0.000000    0.077000
    66  O     c     1.260441    3.809543    6.307221    0.000000    0.077000
    67  O     c     1.260441   -1.271701   -3.769379    0.000000    0.077000
    68  O     c     1.260441   -3.769379   -1.271701    0.000000    0.077000
    69  O     c     1.272934   -1.257276    6.351917    0.000000    0.077000
    70  O     c     1.272934    6.351917   -1.257276    0.000000    0.077000
    71  O     c     1.272934    3.795118   -3.814076    0.000000    0.077000
    72  O     c     1.272934   -3.814076    3.795118    0.000000    0.077000
    73  Zr    c    -2.548373    5.083222    2.539333    0.000000    2.650000
    74  Zr    c    -2.548373   -0.001491   -2.545380    0.000000    2.650000
    75  Zr    c    -2.548373    2.539333    5.083222    0.000000    2.650000
    76  Zr    c    -2.548373   -2.545380   -0.001491    0.000000    2.650000
    77  O     c    -1.244417    1.262113    6.332009    0.000000    0.077000
    78  O     c    -1.244417    6.332009    1.262113    0.000000    0.077000
    79  O     c    -1.244417   -3.794167    1.275729    0.000000    0.077000
    80  O     c    -1.244417    1.275729   -3.794167    0.000000    0.077000
    81  O     c     6.338188   -1.242993    3.780834    0.000000    0.077000
    82  O     c     6.338188    3.780834   -1.242993    0.000000    0.077000
    83  O     c     6.373800    3.820765    3.820765    0.000000    0.077000
    84  O     c     6.373800   -1.282923   -1.282923    0.000000    0.077000
    85  O     c    -3.847260    1.260509    3.805880    0.000000    0.077000
    86  O     c    -3.847260    3.805880    1.260509    0.000000    0.077000
    87  O     c    -3.847260   -1.268039    1.277333    0.000000    0.077000
    88  O     c    -3.847260    1.277333   -1.268039    0.000000    0.077000
    89  O     c     3.819017   -3.846858    3.787678    0.000000    0.077000
    90  O     c     3.819017   -1.249837    6.384699    0.000000    0.077000
[...]
    332 y         -0.000000      0.002076     0.002076    Cartesian *******
    332 z         -2.537842     -2.538041    -0.000199    Cartesian    0.01
    333 x          1.268921      1.271775     0.002854    Cartesian    0.22
    333 y          1.268921      1.271966     0.003045    Cartesian    0.24
    333 z         11.420288     11.437414     0.017126    Cartesian    0.15
    334 x          8.882446      8.889094     0.006648    Cartesian    0.07
    334 y          6.344605      6.344282    -0.000323    Cartesian   -0.01
    334 z          6.344605      6.344282    -0.000323    Cartesian   -0.01
    335 x          8.882446      8.882096    -0.000350    Cartesian   -0.00
    335 y          6.344605      6.338501    -0.006103    Cartesian   -0.10
    335 z         -3.806763     -3.800659     0.006103    Cartesian   -0.16
    336 x          5.075684      5.072375    -0.003309    Cartesian   -0.07
    336 y          5.075684      5.074343    -0.001341    Cartesian   -0.03
    336 z         10.151367     10.156136     0.004769    Cartesian    0.05
    337 x          6.344605      6.344275    -0.000330    Cartesian   -0.01
    337 y          8.882446      8.878937    -0.003509    Cartesian   -0.04
    337 z          6.344605      6.341698    -0.002906    Cartesian   -0.05
    338 x          6.344605      6.344995     0.000390    Cartesian    0.01
    338 y          8.882446      8.887241     0.004794    Cartesian    0.05
    338 z         -3.806763     -3.803012     0.003751    Cartesian   -0.10
    339 x          3.806763      3.806743    -0.000020    Cartesian   -0.00
    339 y          1.268921      1.268041    -0.000880    Cartesian   -0.07
    339 z         11.420288     11.344347    -0.075941    Cartesian   -0.66
    340 x         11.420288     11.419346    -0.000942    Cartesian   -0.01
    340 y          3.806763      3.803432    -0.003330    Cartesian   -0.09
    340 z          3.806763      3.803432    -0.003330    Cartesian   -0.09
    341 x         11.420288     11.420235    -0.000053    Cartesian   -0.00
    341 y          3.806763      3.803521    -0.003241    Cartesian   -0.09
    341 z         -1.268921     -1.265679     0.003241    Cartesian   -0.26
    342 x          1.268921      1.273594     0.004673    Cartesian    0.37
    342 y         11.420288     11.421377     0.001089    Cartesian    0.01
    342 z         -1.268921     -1.266075     0.002846    Cartesian   -0.22
    343 x          1.268921      1.275200     0.006280    Cartesian    0.49
    343 y          3.806763      3.805599    -0.001163    Cartesian   -0.03
    343 z         11.420288     11.401628    -0.018660    Cartesian   -0.16
    344 x          8.882446      8.882806     0.000360    Cartesian    0.00
    344 y          8.882446      8.874224    -0.008222    Cartesian   -0.09
    344 z          1.268921      1.265960    -0.002961    Cartesian   -0.23
    345 x         -2.537842     -2.541025    -0.003183    Cartesian    0.13
    345 y         -7.613525     -7.617438    -0.003912    Cartesian    0.05
    345 z          5.075684      5.076426     0.000742    Cartesian    0.01
    346 x         -8.882446     -8.831190     0.051256    Cartesian   -0.58
    346 y          1.268921      1.268921     0.000000    Cartesian    0.00
    346 z          1.268921      1.268921     0.000000    Cartesian    0.00
    347 x         -1.268921     -1.267271     0.001650    Cartesian   -0.13
    347 y          1.268921      1.267430    -0.001491    Cartesian   -0.12
    347 z         11.420288     11.415605    -0.004683    Cartesian   -0.04
    348 x         10.151367     10.158752     0.007385    Cartesian    0.07
    348 y          7.613525      7.621669     0.008144    Cartesian    0.11
    348 z          2.537842      2.539977     0.002135    Cartesian    0.08
    349 x         -3.806763     -3.807791    -0.001028    Cartesian    0.03
    349 y          6.344605      6.343007    -0.001598    Cartesian   -0.03
    349 z          8.882446      8.883719     0.001272    Cartesian    0.01
    350 x         -3.806763     -3.804037     0.002726    Cartesian   -0.07
    350 y          8.882446      8.880227    -0.002219    Cartesian   -0.02
    350 z         -3.806763     -3.806587     0.000176    Cartesian   -0.00
    351 x          3.806763      3.811505     0.004742    Cartesian    0.12
    351 y         -1.268921     -1.266828     0.002093    Cartesian   -0.16
    351 z         11.420288     11.435592     0.015304    Cartesian    0.13
    352 x          3.806763      3.805555    -0.001208    Cartesian   -0.03
    352 y          3.806763      3.804731    -0.002032    Cartesian   -0.05
    352 z         11.420288     11.435790     0.015502    Cartesian    0.14
    353 x         -7.613525     -7.615937    -0.002411    Cartesian    0.03
    353 y         -2.537842     -2.540168    -0.002327    Cartesian    0.09
    353 z          5.075684      5.078010     0.002327    Cartesian    0.05
    354 x          7.613525      7.612573    -0.000952    Cartesian   -0.01
    354 y          2.537842      2.535929    -0.001913    Cartesian   -0.08
    354 z         10.151367     10.159212     0.007845    Cartesian    0.08
    355 x          7.613525      7.613020    -0.000505    Cartesian   -0.01
    355 y         -5.075684     -5.081104    -0.005421    Cartesian    0.11
    355 z          7.613525      7.618946     0.005421    Cartesian    0.07
    356 x         -6.344605     -6.340151     0.004454    Cartesian   -0.07
    356 y          6.344605      6.343770    -0.000834    Cartesian   -0.01
    356 z          6.344605      6.343770    -0.000834    Cartesian   -0.01
    357 x         -6.344605     -6.341232     0.003372    Cartesian   -0.05
    357 y         -3.806763     -3.806087     0.000676    Cartesian   -0.02
    357 z          6.344605      6.343928    -0.000676    Cartesian   -0.01
    358 x          1.268921      1.274470     0.005549    Cartesian    0.44
    358 y         -6.344605     -6.342490     0.002114    Cartesian   -0.03
    358 z          8.882446      8.880332    -0.002114    Cartesian   -0.02
    359 x          1.268921      1.269070     0.000150    Cartesian    0.01
    359 y          8.882446      8.880935    -0.001512    Cartesian   -0.02
    359 z          8.882446      8.880935    -0.001512    Cartesian   -0.02
    360 x          8.882446      8.886232     0.003786    Cartesian    0.04
    360 y          8.882446      8.877445    -0.005001    Cartesian   -0.06
    360 z          3.806763      3.807056     0.000293    Cartesian    0.01
    361 x          8.882446      8.881029    -0.001418    Cartesian   -0.02
    361 y          8.882446      8.883351     0.000904    Cartesian    0.01
    361 z         -1.268921     -1.266804     0.002117    Cartesian   -0.17
    362 x         -8.882446     -8.896012    -0.013566    Cartesian    0.15
    362 y         -1.268921     -1.268556     0.000364    Cartesian   -0.03
    362 z          1.268921      1.270369     0.001448    Cartesian    0.11
    363 x         -1.268921     -1.267264     0.001657    Cartesian   -0.13
    363 y          3.806763      3.808916     0.002153    Cartesian    0.06
    363 z         11.420288     11.422374     0.002085    Cartesian    0.02
    364 x         -1.268921     -1.263872     0.005049    Cartesian   -0.40
    364 y         -8.882446     -8.879993     0.002453    Cartesian   -0.03
    364 z          3.806763      3.805261    -0.001502    Cartesian   -0.04
    365 x          2.537842      2.535444    -0.002398    Cartesian   -0.09
    365 y          7.613525      7.617094     0.003569    Cartesian    0.05
    365 z         10.151367     10.157191     0.005823    Cartesian    0.06
    366 x          3.806763      3.809391     0.002629    Cartesian    0.07
    366 y          8.882446      8.879863    -0.002584    Cartesian   -0.03
    366 z          8.882446      8.879863    -0.002584    Cartesian   -0.03
    367 x          3.806763      3.804971    -0.001792    Cartesian   -0.05
    367 y         -6.344605     -6.343434     0.001170    Cartesian   -0.02
    367 z          8.882446      8.881276    -0.001170    Cartesian   -0.01
    368 x         11.420288     11.415155    -0.005133    Cartesian   -0.04
    368 y          1.268921      1.270960     0.002039    Cartesian    0.16
    368 z         -3.806763     -3.807248    -0.000485    Cartesian    0.01
    369 x          0.000000     -0.002125    -0.002125    Cartesian *******
    369 y          7.613525      7.617336     0.003811    Cartesian    0.05
    369 z         -7.613525     -7.619750    -0.006225    Cartesian    0.08
    370 x         -6.344605     -6.343740     0.000864    Cartesian   -0.01
    370 y         -6.344605     -6.343183     0.001421    Cartesian   -0.02
    370 z          1.268921      1.267179    -0.001742    Cartesian   -0.14
    371 x         -8.882446     -8.871388     0.011058    Cartesian   -0.12
    371 y         -1.268921     -1.267592     0.001329    Cartesian   -0.10
    371 z         -1.268921     -1.267592     0.001329    Cartesian   -0.10
    372 x         -8.882446     -8.868206     0.014241    Cartesian   -0.16
    372 y         -1.268921     -1.267059     0.001862    Cartesian   -0.15
    372 z          3.806763      3.804901    -0.001862    Cartesian   -0.05
    373 x         12.689209     12.692508     0.003299    Cartesian    0.03
    373 y          2.537842      2.545069     0.007227    Cartesian    0.28
    373 z          0.000000     -0.007227    -0.007227    Cartesian *******
    374 x         -1.268921     -1.265485     0.003435    Cartesian   -0.27
    374 y          8.882446      8.880730    -0.001717    Cartesian   -0.02
    374 z          8.882446      8.880730    -0.001717    Cartesian   -0.02
    375 x         -1.268921     -1.267096     0.001825    Cartesian   -0.14
    375 y         -6.344605     -6.342424     0.002181    Cartesian   -0.03
    375 z          8.882446      8.880266    -0.002181    Cartesian   -0.02
    376 x          6.344605      6.342681    -0.001924    Cartesian   -0.03
    376 y          1.268921      1.265338    -0.003582    Cartesian   -0.28
    376 z         11.420288     11.433250     0.012962    Cartesian    0.11
    377 x         -5.075684     -5.081528    -0.005845    Cartesian    0.12
    377 y          7.613525      7.617035     0.003510    Cartesian    0.05
    377 z          7.613525      7.617035     0.003510    Cartesian    0.05
    378 x         -5.075684     -5.080694    -0.005011    Cartesian    0.10
    378 y         10.151367     10.155921     0.004553    Cartesian    0.04
    378 z         -0.000000      0.000446     0.000446    Cartesian *******
    379 x         10.151367     10.158578     0.007210    Cartesian    0.07
    379 y          7.613525      7.620308     0.006783    Cartesian    0.09
    379 z         -2.537842     -2.540740    -0.002898    Cartesian    0.11
    380 x         11.420288     11.412997    -0.007291    Cartesian   -0.06
    380 y          6.344605      6.345131     0.000527    Cartesian    0.01
    380 z          3.806763      3.809865     0.003102    Cartesian    0.08
    381 x         11.420288     11.416474    -0.003814    Cartesian   -0.03
    381 y          6.344605      6.339204    -0.005400    Cartesian   -0.09
    381 z         -1.268921     -1.266058     0.002862    Cartesian   -0.23
    382 x         -7.613525     -7.618205    -0.004680    Cartesian    0.06
    382 y          2.537842      2.538909     0.001067    Cartesian    0.04
    382 z         -5.075684     -5.078941    -0.003257    Cartesian    0.06
    383 x          7.613525      7.619117     0.005592    Cartesian    0.07
    383 y         -2.537842     -2.543277    -0.005435    Cartesian    0.21
    383 z         10.151367     10.156776     0.005409    Cartesian    0.05
    384 x         -6.344605     -6.340652     0.003952    Cartesian   -0.06
    384 y         -1.268921     -1.268284     0.000636    Cartesian   -0.05
    384 z          8.882446      8.879986    -0.002460    Cartesian   -0.03
    385 x         -6.344605     -6.339883     0.004721    Cartesian   -0.07
    385 y          3.806763      3.804774    -0.001989    Cartesian   -0.05
    385 z          8.882446      8.881620    -0.000827    Cartesian   -0.01
    386 x          1.268921      1.268534    -0.000386    Cartesian   -0.03
    386 y         11.420288     11.418917    -0.001371    Cartesian   -0.01
    386 z          6.344605      6.343984    -0.000620    Cartesian   -0.01
    387 x          1.268921      1.271255     0.002334    Cartesian    0.18
    387 y         -8.882446     -8.877751     0.004695    Cartesian   -0.05
    387 z          6.344605      6.341265    -0.003339    Cartesian   -0.05
    388 x          5.075684      5.077161     0.001477    Cartesian    0.03
    388 y         -5.075684     -5.080051    -0.004367    Cartesian    0.09
    388 z         10.151367     10.158382     0.007015    Cartesian    0.07
    389 x          6.344605      6.343073    -0.001531    Cartesian   -0.02
    389 y         -1.268921     -1.267922     0.000999    Cartesian   -0.08
    389 z         11.420288     11.399022    -0.021267    Cartesian   -0.19
    390 x          6.344605      6.342930    -0.001675    Cartesian   -0.03
    390 y         11.420288     11.417130    -0.003158    Cartesian   -0.03
    390 z          3.806763      3.802772    -0.003991    Cartesian   -0.10
    391 x          2.537842      2.533065    -0.004777    Cartesian   -0.19
    391 y         -0.000000     -0.006430    -0.006430    Cartesian *******
    391 z         12.689209     12.695805     0.006596    Cartesian    0.05
    392 x         -3.806763     -3.804109     0.002653    Cartesian   -0.07
    392 y         -8.882446     -8.877599     0.004847    Cartesian   -0.05
    392 z          1.268921      1.267085    -0.001836    Cartesian   -0.14
    393 x          3.806763      3.805597    -0.001166    Cartesian   -0.03
    393 y         11.420288     11.407965    -0.012323    Cartesian   -0.11
    393 z          6.344605      6.341739    -0.002865    Cartesian   -0.05
    394 x          3.806763      3.807150     0.000387    Cartesian    0.01
    394 y         -3.806763     -3.805748     0.001015    Cartesian   -0.03
    394 z         11.420288     11.408662    -0.011626    Cartesian   -0.10
    395 x         -0.000000     -0.001594    -0.001594    Cartesian *******
    395 y          2.537842      2.536779    -0.001063    Cartesian   -0.04
    395 z         12.689209     12.699520     0.010311    Cartesian    0.08
    396 x          8.882446      8.882085    -0.000361    Cartesian   -0.00
    396 y         -3.806763     -3.804488     0.002274    Cartesian   -0.06
    396 z          8.882446      8.879780    -0.002667    Cartesian   -0.03
    397 x          8.882446      8.873291    -0.009155    Cartesian   -0.10
    397 y          8.882446      8.874734    -0.007712    Cartesian   -0.09
    397 z          6.344605      6.338363    -0.006242    Cartesian   -0.10
    398 x         -2.537842     -2.543062    -0.005221    Cartesian    0.21
    398 y          7.613525      7.618625     0.005099    Cartesian    0.07
    398 z         10.151367     10.157311     0.005943    Cartesian    0.06
    399 x         -8.882446     -8.869797     0.012649    Cartesian   -0.14
    399 y         -3.806763     -3.806189     0.000574    Cartesian   -0.02
    399 z          1.268921      1.268668    -0.000252    Cartesian   -0.02
    400 x         12.689209     12.700874     0.011665    Cartesian    0.09
    400 y          5.075684      5.076743     0.001060    Cartesian    0.02
    400 z          2.537842      2.537366    -0.000475    Cartesian   -0.02
    401 x         -1.268921     -1.265876     0.003045    Cartesian   -0.24
    401 y         -3.806763     -3.805166     0.001597    Cartesian   -0.04
    401 z         11.420288     11.412706    -0.007582    Cartesian   -0.07
    402 x         -1.268921     -1.266200     0.002721    Cartesian   -0.21
    402 y          6.344605      6.341318    -0.003286    Cartesian   -0.05
    402 z         11.420288     11.410901    -0.009387    Cartesian   -0.08
    403 x          6.344605      6.345281     0.000676    Cartesian    0.01
    403 y         -6.344605     -6.340617     0.003988    Cartesian   -0.06
    403 z          8.882446      8.878459    -0.003988    Cartesian   -0.04
    404 x          6.344605      6.339354    -0.005251    Cartesian   -0.08
    404 y          8.882446      8.873825    -0.008621    Cartesian   -0.10
    404 z          8.882446      8.873825    -0.008621    Cartesian   -0.10
    405 x         -5.075684     -5.082251    -0.006568    Cartesian    0.13
    405 y          5.075684      5.079218     0.003535    Cartesian    0.07
    405 z         10.151367     10.157315     0.005948    Cartesian    0.06
    406 x         -3.806763     -3.801692     0.005071    Cartesian   -0.13
    406 y         -1.268921     -1.267787     0.001134    Cartesian   -0.09
    406 z         11.420288     11.412687    -0.007601    Cartesian   -0.07
    407 x         -3.806763     -3.803134     0.003629    Cartesian   -0.10
    407 y          3.806763      3.804343    -0.002420    Cartesian   -0.06
    407 z         11.420288     11.411887    -0.008401    Cartesian   -0.07
    408 x         -7.613525     -7.621426    -0.007900    Cartesian    0.10
    408 y         -5.075684     -5.079159    -0.003475    Cartesian    0.07
    408 z         -2.537842     -2.539391    -0.001550    Cartesian    0.06
    409 x        -10.151367    -10.159365    -0.007998    Cartesian    0.08
    409 y         -0.000000     -0.003459    -0.003459    Cartesian *******
    409 z         -0.000000     -0.003459    -0.003459    Cartesian *******
    410 x          5.075684      5.081784     0.006100    Cartesian    0.12
    410 y          2.537842      2.543449     0.005608    Cartesian    0.22
    410 z         12.689209     12.698040     0.008831    Cartesian    0.07
    411 x         -8.882446     -8.880163     0.002284    Cartesian   -0.03
    411 y          6.344605      6.341526    -0.003079    Cartesian   -0.05
    411 z          3.806763      3.805446    -0.001317    Cartesian   -0.03
    412 x         -8.882446     -8.876295     0.006152    Cartesian   -0.07
    412 y         -1.268921     -1.266968     0.001953    Cartesian   -0.15
    412 z          6.344605      6.341455    -0.003150    Cartesian   -0.05
--------------------------------------------------------------------------------


  Time to end of optimisation  =      108.1419 seconds


  Peak dynamic memory used =     411.74 MB 


  Timing analysis for GULP :

--------------------------------------------------------------------------------
  Task / Subroutine                                          Time (Seconds)
--------------------------------------------------------------------------------
  Calculation of reciprocal space energy and derivatives          0.0002
  Calculation of reciprocal space energy using symmetry           0.0002
  Calculation of real space energy and derivatives                0.0021
  Calculation of real space energy using symmetry                 0.0072
  Calculation for region 1 energy and derivatives (2-b)          26.3876
  Calculation for region 2a energy                               68.9621
  Calculation for region 2b energy                                0.0063
  Calculation and manipulation of Hessian matrix                 11.4869
  Calculation of matrix inversion                                 0.8699
  Symmetry generation of equivalent positions                     0.0015
--------------------------------------------------------------------------------
  Total CPU time                                                108.1419
--------------------------------------------------------------------------------


  Dump file written as ZrO2.grs


  Job Finished at 12:05.20 14th October    2020                               

