********************************************************************************
*                       GENERAL UTILITY LATTICE PROGRAM                        *
*                                 Julian Gale                                  *
*                       Curtin Institute for Computation                       *
*                    School of Molecular and Life Sciences                     *
*                    Curtin University, Western Australia                      *
********************************************************************************
* Version = 5.2.0 * Last modified =  10th September 2020                       *
********************************************************************************
*  optimise     - perform optimisation run                                     *
*  conp         - constant pressure calculation                                *
*  property     - calculate properties for final geometry                      *
*  defect       - perform defect calculation after bulk run                    *
*  compare      - compare initial and final structures                         *
********************************************************************************

  Job Started  at 14:16.45 30th December   2020                               

  Number of CPUs =     1


  Total number of configurations input =      1

********************************************************************************
*  Input for Configuration =   1                                               *
********************************************************************************

  Formula = ClONa3                                                      

  Number of irreducible atoms/shells =       5


  Total number atoms/shells =       7

  Dimensionality = 3               :  Bulk   


  Symmetry :

  Crystal family                   :  Cubic       
  Crystal class  (Groth - 1921)    :  Cubic Hexakisoctahedral              

  Space group (centrosymmetric)    :  P M 3 M         

  Patterson group                  :  P m -3 m 

  Cartesian lattice vectors (Angstroms) :

        4.504000    0.000000    0.000000
        0.000000    4.504000    0.000000
        0.000000    0.000000    4.504000

  Cell parameters (Angstroms/Degrees):

  a =       4.5040    alpha =  90.0000
  b =       4.5040    beta  =  90.0000
  c =       4.5040    gamma =  90.0000

  Initial cell volume =          91.368216 Angs**3

  Temperature of configuration =   0.00     K 

  Pressure of configuration =         0.000 GPa 

  Fractional coordinates of asymmetric unit :

--------------------------------------------------------------------------------
   No.  Atomic       x           y          z         Charge      Occupancy
        Label      (Frac)      (Frac)     (Frac)        (e)         (Frac)  
--------------------------------------------------------------------------------
      1 Cl    c    0.000000    0.000000    0.000000     0.00000    1.000000    
      2 O     c    0.500000    0.500000    0.500000     0.00000    1.000000    
      3 Na    c    0.500000    0.500000    0.000000     0.00000    1.000000    
      4 Cl    s    0.000000    0.000000    0.000000     0.00000    1.000000    
      5 O     s    0.500000    0.500000    0.500000     0.00000    1.000000    
--------------------------------------------------------------------------------


  Constraints : 

--------------------------------------------------------------------------------
  Constraint no.      Unconstrained     Constrained    Coefficient    Offset
                         Variable         Variable
--------------------------------------------------------------------------------
           1              Strain 1        Strain 2       1.00000      0.0000
           2              Strain 1        Strain 3       1.00000      0.0000
--------------------------------------------------------------------------------


********************************************************************************
*  General input information                                                   *
********************************************************************************

  Species output for all configurations : 

--------------------------------------------------------------------------------
  Species    Type    Atomic    Atomic    Charge       Radii (Angs)     Library
                     Number     Mass       (e)     Cova   Ionic  VDW   Symbol
--------------------------------------------------------------------------------
    Cl       Core       17      35.45   0.000000   0.990  0.000  1.650          
    O        Core        8      16.00   0.000000   0.730  0.000  1.360          
    Cl       Shell      17       0.00   0.000000   0.990  0.000  1.650          
    O        Shell       8       0.00   0.000000   0.730  0.000  1.360          
    Na       Core       11      22.99   0.000000   0.970  0.000  2.300          
--------------------------------------------------------------------------------


  Lattice summation method               =    Ewald          (3-D)
                                         =    Parry          (2-D)
                                         =    Saunders et al (1-D)
  Accuracy factor for lattice sums       =   12.000


  Analytic derivatives to be used

  Time limit = Infinity

********************************************************************************
*  Output for configuration   1                                                *
********************************************************************************


  Components of energy : 

--------------------------------------------------------------------------------
  Interatomic potentials     =           0.00000000 eV    
  Monopole - monopole (real) =           0.00000000 eV    
  Monopole - monopole (recip)=           0.00000000 eV    
  Monopole - monopole (total)=           0.00000000 eV    
--------------------------------------------------------------------------------
  Total lattice energy       =           0.00000000 eV    
--------------------------------------------------------------------------------
  Total lattice energy       =               0.0000 kJ/(mole unit cells)
--------------------------------------------------------------------------------


  Number of variables =        1

  Maximum number of calculations  =          1000
  Maximum Hessian update interval =            10
  Maximum step size               =   1.000000000
  Maximum parameter tolerance     =   0.000010000
  Maximum function  tolerance     =   0.000010000
  Maximum gradient  tolerance     =   0.001000000
  Maximum gradient  component     =   0.010000000

  Symmetry constrained optimisation

  Symmetry used for second derivatives

  Cell parameters to be optimised using strains

  Newton-Raphson optimiser to be used

  BFGS hessian update to be used

  Lower half triangular hessian to be used

  Start of bulk optimisation :

  Cycle:      0 Energy:         0.000000  Gnorm:      0.000000  CPU:    0.006


  **** Optimisation achieved ****


  Final energy =       0.00000000 eV
  Final Gnorm  =       0.00000000

  Components of energy : 

--------------------------------------------------------------------------------
  Interatomic potentials     =           0.00000000 eV    
  Monopole - monopole (real) =           0.00000000 eV    
  Monopole - monopole (recip)=           0.00000000 eV    
  Monopole - monopole (total)=           0.00000000 eV    
--------------------------------------------------------------------------------
  Total lattice energy       =           0.00000000 eV    
--------------------------------------------------------------------------------
  Total lattice energy       =               0.0000 kJ/(mole unit cells)
--------------------------------------------------------------------------------

  Final asymmetric unit coordinates :

--------------------------------------------------------------------------------
   No.  Atomic        x           y           z         Radius
        Label       (Frac)      (Frac)      (Frac)       (Angs) 
--------------------------------------------------------------------------------
     1  Cl    c     0.000000    0.000000    0.000000    0.000000
     2  O     c     0.500000    0.500000    0.500000    0.000000
     3  Na    c     0.500000    0.500000    0.000000    0.000000
     4  Cl    s     0.000000    0.000000    0.000000    0.000000
     5  O     s     0.500000    0.500000    0.500000    0.000000
--------------------------------------------------------------------------------

  Final Cartesian lattice vectors (Angstroms) :

        4.504000    0.000000    0.000000
        0.000000    4.504000    0.000000
        0.000000    0.000000    4.504000


  Final cell parameters and derivatives :

--------------------------------------------------------------------------------
       a            4.504000 Angstrom     dE/de1(xx)     0.000000 eV/strain
       b            4.504000 Angstrom     dE/de2(yy)     0.000000 eV/strain
       c            4.504000 Angstrom     dE/de3(zz)     0.000000 eV/strain
       alpha       90.000000 Degrees      dE/de4(yz)     0.000000 eV/strain
       beta        90.000000 Degrees      dE/de5(xz)     0.000000 eV/strain
       gamma       90.000000 Degrees      dE/de6(xy)     0.000000 eV/strain
--------------------------------------------------------------------------------

  Primitive cell volume =            91.368216 Angs**3

  Density of cell =      2.188565 g/cm**3

  Non-primitive cell volume =            91.368216 Angs**3


  Final internal derivatives :

--------------------------------------------------------------------------------
   No.  Atomic          a             b             c           Radius
        Label          (eV)          (eV)          (eV)        (eV/Angs)
--------------------------------------------------------------------------------
      1 Cl    c       0.000000      0.000000      0.000000      0.000000
      2 O     c       0.000000      0.000000      0.000000      0.000000
      3 Na    c       0.000000      0.000000      0.000000      0.000000
      4 Cl    s       0.000000      0.000000      0.000000      0.000000
      5 O     s       0.000000      0.000000      0.000000      0.000000
--------------------------------------------------------------------------------
  Maximum abs         0.000000      0.000000      0.000000      0.000000
--------------------------------------------------------------------------------

  Comparison of initial and final structures : 

--------------------------------------------------------------------------------
  Parameter   Initial value   Final value   Difference    Units      Percent
--------------------------------------------------------------------------------
    Volume        91.368216     91.368216     0.000000    Angs**3      0.00
    a              4.504000      4.504000     0.000000    Angstroms    0.00
    b              4.504000      4.504000     0.000000    Angstroms    0.00
    c              4.504000      4.504000     0.000000    Angstroms    0.00
    alpha         90.000000     90.000000     0.000000    Degrees      0.00
    beta          90.000000     90.000000     0.000000    Degrees      0.00
    gamma         90.000000     90.000000     0.000000    Degrees      0.00
      1 x          0.000000      0.000000     0.000000    Fractional   0.00
      1 y          0.000000      0.000000     0.000000    Fractional   0.00
      1 z          0.000000      0.000000     0.000000    Fractional   0.00
      2 x          0.500000      0.500000     0.000000    Fractional   0.00
      2 y          0.500000      0.500000     0.000000    Fractional   0.00
      2 z          0.500000      0.500000     0.000000    Fractional   0.00
      3 x          0.500000      0.500000     0.000000    Fractional   0.00
      3 y          0.500000      0.500000     0.000000    Fractional   0.00
      3 z          0.000000      0.000000     0.000000    Fractional   0.00
      4 x          0.000000      0.000000     0.000000    Fractional   0.00
      4 y          0.000000      0.000000     0.000000    Fractional   0.00
      4 z          0.000000      0.000000     0.000000    Fractional   0.00
      5 x          0.500000      0.500000     0.000000    Fractional   0.00
      5 y          0.500000      0.500000     0.000000    Fractional   0.00
      5 z          0.500000      0.500000     0.000000    Fractional   0.00
--------------------------------------------------------------------------------



!!!!!!!!!!!!!!!!!!!!!!!!!!!!!!!!!!!!!!!!!!!!!!!!!!!!!!!!!!!!!!!!!!!!!!!!!!!!!!!!
!! WARNING : Properties cannot be calculated - matrix is singular
!!!!!!!!!!!!!!!!!!!!!!!!!!!!!!!!!!!!!!!!!!!!!!!!!!!!!!!!!!!!!!!!!!!!!!!!!!!!!!!!


  Time to end of optimisation =       0.0059 seconds

********************************************************************************
*  Defect calculation for configuration   1 :                                  *
********************************************************************************

  Total number of defects =      1

  Total charge on defect  =   0.00

  Defect centre is at   0.5000   0.5000   0.0000  Frac

  Region 1 radius =  13.0000      Number of ions =    696

  Number of symmetry inequivalent region 1 ions  =     77

  Region 2 radius =  24.0000      Number of ions =   3702

  Number of symmetry inequivalent region 2a ions =    307

  Region 2a mode = 4 : screened electrostatics due to region 1 
                       neglect correction to region 1 forces from 2a
                       region 2a displacements based on defects only

  Region 2a ions will only interact with defects in region 1

  Vacancies:

--------------------------------------------------------------------------------
    Specification type     Symbol/Number         x          y          z
--------------------------------------------------------------------------------
    Fractional                               0.500000   0.500000   0.000000
--------------------------------------------------------------------------------


  Symmetry reduced region 1 (Relative to defect centre) :

--------------------------------------------------------------------------------
   No.   Atomic       x            y             z       Radius  Multiplicity   
         Label      (Angs)       (Angs)        (Angs)    (Angs)     
--------------------------------------------------------------------------------
     1  O     c      0.0000       0.0000      -2.2520 *  0.0000     2          
     2  Cl    c      2.2520 *     2.2520       0.0000    0.0000     4          
     3  Na    c      2.2520 *     0.0000      -2.2520 *  0.0000     8          
     4  Na    c      0.0000       0.0000       4.5040 *  0.0000     2          
     5  Na    c      0.0000       4.5040 *     0.0000    0.0000     4          
     6  O     c      0.0000       4.5040 *    -2.2520 *  0.0000     8          
     7  Na    c      2.2520 *     4.5040 *    -2.2520 *  0.0000    16          
     8  Cl    c      2.2520 *     2.2520       4.5040 *  0.0000     8          
     9  Na    c      0.0000       4.5040 *     4.5040 *  0.0000     8          
    10  Na    c      4.5040 *     4.5040       0.0000    0.0000     4          
    11  O     c      0.0000       0.0000       6.7560 *  0.0000     2          
    12  O     c      4.5040 *     4.5040      -2.2520 *  0.0000     8          
    13  Cl    c      2.2520 *     6.7560 *     0.0000    0.0000     8          
    14  Na    c      2.2520 *     0.0000       6.7560 *  0.0000     8          
    15  Na    c      6.7560 *     0.0000      -2.2520 *  0.0000     8          
    16  Na    c      4.5040 *     4.5040       4.5040 *  0.0000     8          
    17  O     c      0.0000       4.5040 *     6.7560 *  0.0000     8          
    18  Cl    c      2.2520 *     6.7560 *     4.5040 *  0.0000    16          
    19  Na    c      2.2520 *     4.5040 *     6.7560 *  0.0000    16          
    20  Na    c      6.7560 *     4.5040 *    -2.2520 *  0.0000    16          
    21  Na    c      0.0000       0.0000       9.0080 *  0.0000     2          
    22  Na    c      0.0000       9.0080 *     0.0000    0.0000     4          
    23  O     c      0.0000       9.0080 *    -2.2520 *  0.0000     8          
    24  O     c      4.5040 *     4.5040       6.7560 *  0.0000     8          
    25  Cl    c      2.2520 *     2.2520       9.0080 *  0.0000     8          
    26  Cl    c      6.7560 *     6.7560       0.0000    0.0000     4          
    27  Na    c      6.7560 *     0.0000       6.7560 *  0.0000     8          
    28  Na    c      2.2520 *     9.0080 *    -2.2520 *  0.0000    16          
    29  Na    c      0.0000       4.5040 *     9.0080 *  0.0000     8          
    30  Na    c      0.0000       9.0080 *     4.5040 *  0.0000     8          
    31  Na    c      4.5040 *     9.0080 *     0.0000    0.0000     8          
    32  O     c      4.5040 *     9.0080 *    -2.2520 *  0.0000    16          
    33  Cl    c      6.7560 *     6.7560       4.5040 *  0.0000     8          
    34  Na    c      6.7560 *     4.5040 *     6.7560 *  0.0000    16          
    35  Na    c      4.5040 *     9.0080 *     4.5040 *  0.0000    16          
    36  Na    c      4.5040 *     4.5040       9.0080 *  0.0000     8          
    37  O     c      0.0000       0.0000      11.2600 *  0.0000     2          
    38  O     c      0.0000       9.0080 *     6.7560 *  0.0000     8          
    39  Cl    c      2.2520 *    11.2600 *     0.0000    0.0000     8          
    40  Na    c      2.2520 *     0.0000      11.2600 *  0.0000     8          
    41  Na    c     11.2600 *     0.0000      -2.2520 *  0.0000     8          
    42  Cl    c      2.2520 *     6.7560 *     9.0080 *  0.0000    16          
    43  Na    c      2.2520 *     9.0080 *     6.7560 *  0.0000    16          
    44  Na    c      6.7560 *     9.0080 *    -2.2520 *  0.0000    16          
    45  O     c      0.0000       4.5040 *    11.2600 *  0.0000     8          
    46  O     c      4.5040 *     9.0080 *     6.7560 *  0.0000    16          
    47  Cl    c      2.2520 *    11.2600 *     4.5040 *  0.0000    16          
    48  Na    c      2.2520 *     4.5040 *    11.2600 *  0.0000    16          
    49  Na    c     11.2600 *     4.5040 *    -2.2520 *  0.0000    16          
    50  Na    c      0.0000       9.0080 *     9.0080 *  0.0000     8          
    51  Na    c      9.0080 *     9.0080       0.0000    0.0000     4          
    52  O     c      4.5040 *     4.5040      11.2600 *  0.0000     8          
    53  O     c      9.0080 *     9.0080      -2.2520 *  0.0000     8          
    54  O     s      0.0000       0.0000      -2.2520 *  0.0000     2          
    55  Cl    s      2.2520 *     2.2520       0.0000    0.0000     4          
    56  O     s      0.0000       4.5040 *    -2.2520 *  0.0000     8          
    57  Cl    s      2.2520 *     2.2520       4.5040 *  0.0000     8          
    58  O     s      0.0000       0.0000       6.7560 *  0.0000     2          
    59  O     s      4.5040 *     4.5040      -2.2520 *  0.0000     8          
    60  Cl    s      2.2520 *     6.7560 *     0.0000    0.0000     8          
    61  O     s      0.0000       4.5040 *     6.7560 *  0.0000     8          
    62  Cl    s      2.2520 *     6.7560 *     4.5040 *  0.0000    16          
    63  O     s      0.0000       9.0080 *    -2.2520 *  0.0000     8          
    64  O     s      4.5040 *     4.5040       6.7560 *  0.0000     8          
    65  Cl    s      2.2520 *     2.2520       9.0080 *  0.0000     8          
    66  Cl    s      6.7560 *     6.7560       0.0000    0.0000     4          
    67  O     s      4.5040 *     9.0080 *    -2.2520 *  0.0000    16          
    68  Cl    s      6.7560 *     6.7560       4.5040 *  0.0000     8          
    69  O     s      0.0000       0.0000      11.2600 *  0.0000     2          
    70  O     s      0.0000       9.0080 *     6.7560 *  0.0000     8          
    71  Cl    s      2.2520 *    11.2600 *     0.0000    0.0000     8          
    72  Cl    s      2.2520 *     6.7560 *     9.0080 *  0.0000    16          
    73  O     s      0.0000       4.5040 *    11.2600 *  0.0000     8          
    74  O     s      4.5040 *     9.0080 *     6.7560 *  0.0000    16          
    75  Cl    s      2.2520 *    11.2600 *     4.5040 *  0.0000    16          
    76  O     s      4.5040 *     4.5040      11.2600 *  0.0000     8          
    77  O     s      9.0080 *     9.0080      -2.2520 *  0.0000     8          
--------------------------------------------------------------------------------


  Constraints on symmetry reduced coordinates :

--------------------------------------------------------------------------------
  Constraint no.      Unconstrained     Constrained    Coefficient    
                         Variable         Variable
--------------------------------------------------------------------------------
           1                 2 x             2 y         1.00000
           2                 8 x             8 y         1.00000
           3                10 x            10 y         1.00000
           4                12 x            12 y         1.00000
           5                16 x            16 y         1.00000
           6                24 x            24 y         1.00000
           7                25 x            25 y         1.00000
           8                26 x            26 y         1.00000
           9                33 x            33 y         1.00000
          10                36 x            36 y         1.00000
          11                51 x            51 y         1.00000
          12                52 x            52 y         1.00000
          13                53 x            53 y         1.00000
          14                55 x            55 y         1.00000
          15                57 x            57 y         1.00000
          16                59 x            59 y         1.00000
          17                64 x            64 y         1.00000
          18                65 x            65 y         1.00000
          19                66 x            66 y         1.00000
          20                68 x            68 y         1.00000
          21                76 x            76 y         1.00000
          22                77 x            77 y         1.00000
--------------------------------------------------------------------------------


  Components of defect energy : 

--------------------------------------------------------------------------------
  Region 1 - region 1                   =      0.00000000 eV
  Region 1 - region 2a (unrelaxed)      =      0.00000000 eV
  Region 1 - 2a (relaxed - correction)  =      0.00000000 eV
  Region 1 (Total)                      =      0.00000000 eV
  Region 2a                             =      0.00000000 eV
  Region 2b                             =      0.00000000 eV
--------------------------------------------------------------------------------
  Total defect energy                   =      0.00000000 eV
--------------------------------------------------------------------------------


  Number of variables =      158

  Maximum number of calculations  =        1000
  Maximum Hessian update interval =          10
  Maximum step size               =   1.0000000
  Maximum parameter tolerance     =   0.0000100
  Maximum function  tolerance     =   0.0000100
  Maximum gradient  tolerance     =   0.0010000

  Symmetry adapted optimisation

  Symmetry to be used for second derivatives

  Newton-Raphson optimiser to be used

  BFGS hessian update to be used

  Lower half triangular hessian to be used

  Start of defect optimisation :

  Cycle:      0 Defect Energy:   0.000000  Gnorm:     0.000000  CPU:    1.412


  **** Optimisation achieved ****


  Final defect energy  =        0.00000000
  Final defect Gnorm   =        0.00000000

  Components of defect energy : 

--------------------------------------------------------------------------------
  Region 1 - region 1                   =      0.00000000 eV
  Region 1 - region 2a (unrelaxed)      =      0.00000000 eV
  Region 1 - 2a (relaxed - correction)  =      0.00000000 eV
  Region 1 (Total)                      =      0.00000000 eV
  Region 2a                             =      0.00000000 eV
  Region 2b                             =      0.00000000 eV
--------------------------------------------------------------------------------
  Total defect energy                   =      0.00000000 eV
--------------------------------------------------------------------------------

  Final coordinates of region 1 :

--------------------------------------------------------------------------------
   No.  Atomic        x           y           z          Radius      Charge
        Label       (Angs)      (Angs)      (Angs)       (Angs)       (e) 
--------------------------------------------------------------------------------
     1  O     c     2.252000    2.252000   -2.252000    0.000000    0.000000
     2  O     c     2.252000    2.252000    2.252000    0.000000    0.000000
     3  Cl    c     4.504000    4.504000    0.000000    0.000000    0.000000
     4  Cl    c     4.504000    0.000000    0.000000    0.000000    0.000000
     5  Cl    c     0.000000    4.504000    0.000000    0.000000    0.000000
     6  Cl    c     0.000000    0.000000    0.000000    0.000000    0.000000
     7  Na    c     4.504000    2.252000   -2.252000    0.000000    0.000000
     8  Na    c     4.504000    2.252000    2.252000    0.000000    0.000000
     9  Na    c     0.000000    2.252000   -2.252000    0.000000    0.000000
    10  Na    c     0.000000    2.252000    2.252000    0.000000    0.000000
    11  Na    c     2.252000    4.504000   -2.252000    0.000000    0.000000
    12  Na    c     2.252000    4.504000    2.252000    0.000000    0.000000
    13  Na    c     2.252000    0.000000   -2.252000    0.000000    0.000000
    14  Na    c     2.252000    0.000000    2.252000    0.000000    0.000000
    15  Na    c     2.252000    2.252000    4.504000    0.000000    0.000000
    16  Na    c     2.252000    2.252000   -4.504000    0.000000    0.000000
    17  Na    c     2.252000    6.756000    0.000000    0.000000    0.000000
    18  Na    c     2.252000   -2.252000    0.000000    0.000000    0.000000
    19  Na    c     6.756000    2.252000    0.000000    0.000000    0.000000
    20  Na    c    -2.252000    2.252000    0.000000    0.000000    0.000000
    21  O     c     2.252000    6.756000   -2.252000    0.000000    0.000000
    22  O     c     2.252000    6.756000    2.252000    0.000000    0.000000
    23  O     c     2.252000   -2.252000   -2.252000    0.000000    0.000000
    24  O     c     2.252000   -2.252000    2.252000    0.000000    0.000000
    25  O     c     6.756000    2.252000   -2.252000    0.000000    0.000000
    26  O     c     6.756000    2.252000    2.252000    0.000000    0.000000
    27  O     c    -2.252000    2.252000   -2.252000    0.000000    0.000000
    28  O     c    -2.252000    2.252000    2.252000    0.000000    0.000000
    29  Na    c     4.504000    6.756000   -2.252000    0.000000    0.000000
    30  Na    c     4.504000    6.756000    2.252000    0.000000    0.000000
    31  Na    c     4.504000   -2.252000   -2.252000    0.000000    0.000000
    32  Na    c     4.504000   -2.252000    2.252000    0.000000    0.000000
    33  Na    c     0.000000    6.756000   -2.252000    0.000000    0.000000
    34  Na    c     0.000000    6.756000    2.252000    0.000000    0.000000
    35  Na    c     0.000000   -2.252000   -2.252000    0.000000    0.000000
    36  Na    c     0.000000   -2.252000    2.252000    0.000000    0.000000
    37  Na    c     6.756000    4.504000   -2.252000    0.000000    0.000000
    38  Na    c     6.756000    4.504000    2.252000    0.000000    0.000000
    39  Na    c     6.756000    0.000000   -2.252000    0.000000    0.000000
    40  Na    c     6.756000    0.000000    2.252000    0.000000    0.000000
    41  Na    c    -2.252000    4.504000   -2.252000    0.000000    0.000000
    42  Na    c    -2.252000    4.504000    2.252000    0.000000    0.000000
    43  Na    c    -2.252000    0.000000   -2.252000    0.000000    0.000000
    44  Na    c    -2.252000    0.000000    2.252000    0.000000    0.000000
    45  Cl    c     4.504000    4.504000    4.504000    0.000000    0.000000
    46  Cl    c     4.504000    4.504000   -4.504000    0.000000    0.000000
    47  Cl    c     4.504000    0.000000    4.504000    0.000000    0.000000
    48  Cl    c     4.504000    0.000000   -4.504000    0.000000    0.000000
    49  Cl    c     0.000000    4.504000    4.504000    0.000000    0.000000
    50  Cl    c     0.000000    4.504000   -4.504000    0.000000    0.000000
    51  Cl    c     0.000000    0.000000    4.504000    0.000000    0.000000
    52  Cl    c     0.000000    0.000000   -4.504000    0.000000    0.000000
    53  Na    c     2.252000    6.756000    4.504000    0.000000    0.000000
    54  Na    c     2.252000    6.756000   -4.504000    0.000000    0.000000
    55  Na    c     2.252000   -2.252000    4.504000    0.000000    0.000000
    56  Na    c     2.252000   -2.252000   -4.504000    0.000000    0.000000
    57  Na    c     6.756000    2.252000    4.504000    0.000000    0.000000
    58  Na    c     6.756000    2.252000   -4.504000    0.000000    0.000000
    59  Na    c    -2.252000    2.252000    4.504000    0.000000    0.000000
    60  Na    c    -2.252000    2.252000   -4.504000    0.000000    0.000000
    61  Na    c     6.756000    6.756000    0.000000    0.000000    0.000000
    62  Na    c     6.756000   -2.252000    0.000000    0.000000    0.000000
    63  Na    c    -2.252000    6.756000    0.000000    0.000000    0.000000
    64  Na    c    -2.252000   -2.252000    0.000000    0.000000    0.000000
    65  O     c     2.252000    2.252000    6.756000    0.000000    0.000000
    66  O     c     2.252000    2.252000   -6.756000    0.000000    0.000000
    67  O     c     6.756000    6.756000   -2.252000    0.000000    0.000000
    68  O     c     6.756000    6.756000    2.252000    0.000000    0.000000
    69  O     c     6.756000   -2.252000   -2.252000    0.000000    0.000000
    70  O     c     6.756000   -2.252000    2.252000    0.000000    0.000000
    71  O     c    -2.252000    6.756000   -2.252000    0.000000    0.000000
    72  O     c    -2.252000    6.756000    2.252000    0.000000    0.000000
    73  O     c    -2.252000   -2.252000   -2.252000    0.000000    0.000000
    74  O     c    -2.252000   -2.252000    2.252000    0.000000    0.000000
    75  Cl    c     4.504000    9.008000    0.000000    0.000000    0.000000
    76  Cl    c     4.504000   -4.504000    0.000000    0.000000    0.000000
    77  Cl    c     9.008000    4.504000    0.000000    0.000000    0.000000
    78  Cl    c     9.008000    0.000000    0.000000    0.000000    0.000000
    79  Cl    c     0.000000    9.008000    0.000000    0.000000    0.000000
    80  Cl    c     0.000000   -4.504000    0.000000    0.000000    0.000000
    81  Cl    c    -4.504000    4.504000    0.000000    0.000000    0.000000
    82  Cl    c    -4.504000    0.000000    0.000000    0.000000    0.000000
    83  Na    c     4.504000    2.252000    6.756000    0.000000    0.000000
    84  Na    c     4.504000    2.252000   -6.756000    0.000000    0.000000
    85  Na    c     0.000000    2.252000    6.756000    0.000000    0.000000
    86  Na    c     0.000000    2.252000   -6.756000    0.000000    0.000000
    87  Na    c     2.252000    4.504000    6.756000    0.000000    0.000000
    88  Na    c     2.252000    4.504000   -6.756000    0.000000    0.000000
    89  Na    c     2.252000    0.000000    6.756000    0.000000    0.000000
    90  Na    c     2.252000    0.000000   -6.756000    0.000000    0.000000
    91  Na    c     9.008000    2.252000   -2.252000    0.000000    0.000000
    92  Na    c     9.008000    2.252000    2.252000    0.000000    0.000000
    93  Na    c    -4.504000    2.252000   -2.252000    0.000000    0.000000
    94  Na    c    -4.504000    2.252000    2.252000    0.000000    0.000000
    95  Na    c     2.252000    9.008000   -2.252000    0.000000    0.000000
    96  Na    c     2.252000    9.008000    2.252000    0.000000    0.000000
    97  Na    c     2.252000   -4.504000   -2.252000    0.000000    0.000000
    98  Na    c     2.252000   -4.504000    2.252000    0.000000    0.000000
    99  Na    c     6.756000    6.756000    4.504000    0.000000    0.000000
   100  Na    c     6.756000    6.756000   -4.504000    0.000000    0.000000
   101  Na    c     6.756000   -2.252000    4.504000    0.000000    0.000000
   102  Na    c     6.756000   -2.252000   -4.504000    0.000000    0.000000
   103  Na    c    -2.252000    6.756000    4.504000    0.000000    0.000000
   104  Na    c    -2.252000    6.756000   -4.504000    0.000000    0.000000
   105  Na    c    -2.252000   -2.252000    4.504000    0.000000    0.000000
   106  Na    c    -2.252000   -2.252000   -4.504000    0.000000    0.000000
   107  O     c     2.252000    6.756000    6.756000    0.000000    0.000000
   108  O     c     2.252000    6.756000   -6.756000    0.000000    0.000000
   109  O     c     2.252000   -2.252000    6.756000    0.000000    0.000000
   110  O     c     2.252000   -2.252000   -6.756000    0.000000    0.000000
   111  O     c     6.756000    2.252000    6.756000    0.000000    0.000000
   112  O     c     6.756000    2.252000   -6.756000    0.000000    0.000000
   113  O     c    -2.252000    2.252000    6.756000    0.000000    0.000000
   114  O     c    -2.252000    2.252000   -6.756000    0.000000    0.000000
   115  Cl    c     4.504000    9.008000    4.504000    0.000000    0.000000
   116  Cl    c     4.504000    9.008000   -4.504000    0.000000    0.000000
   117  Cl    c     4.504000   -4.504000    4.504000    0.000000    0.000000
   118  Cl    c     4.504000   -4.504000   -4.504000    0.000000    0.000000
   119  Cl    c     9.008000    4.504000    4.504000    0.000000    0.000000
   120  Cl    c     9.008000    4.504000   -4.504000    0.000000    0.000000
   121  Cl    c     9.008000    0.000000    4.504000    0.000000    0.000000
   122  Cl    c     9.008000    0.000000   -4.504000    0.000000    0.000000
   123  Cl    c     0.000000    9.008000    4.504000    0.000000    0.000000
   124  Cl    c     0.000000    9.008000   -4.504000    0.000000    0.000000
   125  Cl    c     0.000000   -4.504000    4.504000    0.000000    0.000000
   126  Cl    c     0.000000   -4.504000   -4.504000    0.000000    0.000000
   127  Cl    c    -4.504000    4.504000    4.504000    0.000000    0.000000
   128  Cl    c    -4.504000    4.504000   -4.504000    0.000000    0.000000
   129  Cl    c    -4.504000    0.000000    4.504000    0.000000    0.000000
   130  Cl    c    -4.504000    0.000000   -4.504000    0.000000    0.000000
   131  Na    c     4.504000    6.756000    6.756000    0.000000    0.000000
   132  Na    c     4.504000    6.756000   -6.756000    0.000000    0.000000
   133  Na    c     4.504000   -2.252000    6.756000    0.000000    0.000000
   134  Na    c     4.504000   -2.252000   -6.756000    0.000000    0.000000
   135  Na    c     0.000000    6.756000    6.756000    0.000000    0.000000
   136  Na    c     0.000000    6.756000   -6.756000    0.000000    0.000000
   137  Na    c     0.000000   -2.252000    6.756000    0.000000    0.000000
   138  Na    c     0.000000   -2.252000   -6.756000    0.000000    0.000000
   139  Na    c     6.756000    4.504000    6.756000    0.000000    0.000000
   140  Na    c     6.756000    4.504000   -6.756000    0.000000    0.000000
   141  Na    c     6.756000    0.000000    6.756000    0.000000    0.000000
   142  Na    c     6.756000    0.000000   -6.756000    0.000000    0.000000
   143  Na    c    -2.252000    4.504000    6.756000    0.000000    0.000000
   144  Na    c    -2.252000    4.504000   -6.756000    0.000000    0.000000
   145  Na    c    -2.252000    0.000000    6.756000    0.000000    0.000000
   146  Na    c    -2.252000    0.000000   -6.756000    0.000000    0.000000
   147  Na    c     9.008000    6.756000   -2.252000    0.000000    0.000000
   148  Na    c     9.008000    6.756000    2.252000    0.000000    0.000000
   149  Na    c     9.008000   -2.252000   -2.252000    0.000000    0.000000
   150  Na    c     9.008000   -2.252000    2.252000    0.000000    0.000000
   151  Na    c    -4.504000    6.756000   -2.252000    0.000000    0.000000
   152  Na    c    -4.504000    6.756000    2.252000    0.000000    0.000000
   153  Na    c    -4.504000   -2.252000   -2.252000    0.000000    0.000000
   154  Na    c    -4.504000   -2.252000    2.252000    0.000000    0.000000
   155  Na    c     6.756000    9.008000   -2.252000    0.000000    0.000000
   156  Na    c     6.756000    9.008000    2.252000    0.000000    0.000000
   157  Na    c     6.756000   -4.504000   -2.252000    0.000000    0.000000
   158  Na    c     6.756000   -4.504000    2.252000    0.000000    0.000000
   159  Na    c    -2.252000    9.008000   -2.252000    0.000000    0.000000
   160  Na    c    -2.252000    9.008000    2.252000    0.000000    0.000000
   161  Na    c    -2.252000   -4.504000   -2.252000    0.000000    0.000000
   162  Na    c    -2.252000   -4.504000    2.252000    0.000000    0.000000
   163  Na    c     2.252000    2.252000    9.008000    0.000000    0.000000
   164  Na    c     2.252000    2.252000   -9.008000    0.000000    0.000000
   165  Na    c     2.252000   11.260000    0.000000    0.000000    0.000000
   166  Na    c     2.252000   -6.756000    0.000000    0.000000    0.000000
   167  Na    c    11.260000    2.252000    0.000000    0.000000    0.000000
   168  Na    c    -6.756000    2.252000    0.000000    0.000000    0.000000
   169  O     c     2.252000   11.260000   -2.252000    0.000000    0.000000
   170  O     c     2.252000   11.260000    2.252000    0.000000    0.000000
   171  O     c     2.252000   -6.756000   -2.252000    0.000000    0.000000
   172  O     c     2.252000   -6.756000    2.252000    0.000000    0.000000
   173  O     c    11.260000    2.252000   -2.252000    0.000000    0.000000
   174  O     c    11.260000    2.252000    2.252000    0.000000    0.000000
   175  O     c    -6.756000    2.252000   -2.252000    0.000000    0.000000
   176  O     c    -6.756000    2.252000    2.252000    0.000000    0.000000
   177  O     c     6.756000    6.756000    6.756000    0.000000    0.000000
   178  O     c     6.756000    6.756000   -6.756000    0.000000    0.000000
   179  O     c     6.756000   -2.252000    6.756000    0.000000    0.000000
   180  O     c     6.756000   -2.252000   -6.756000    0.000000    0.000000
   181  O     c    -2.252000    6.756000    6.756000    0.000000    0.000000
   182  O     c    -2.252000    6.756000   -6.756000    0.000000    0.000000
   183  O     c    -2.252000   -2.252000    6.756000    0.000000    0.000000
   184  O     c    -2.252000   -2.252000   -6.756000    0.000000    0.000000
   185  Cl    c     4.504000    4.504000    9.008000    0.000000    0.000000
   186  Cl    c     4.504000    4.504000   -9.008000    0.000000    0.000000
   187  Cl    c     4.504000    0.000000    9.008000    0.000000    0.000000
   188  Cl    c     4.504000    0.000000   -9.008000    0.000000    0.000000
   189  Cl    c     0.000000    4.504000    9.008000    0.000000    0.000000
   190  Cl    c     0.000000    4.504000   -9.008000    0.000000    0.000000
   191  Cl    c     0.000000    0.000000    9.008000    0.000000    0.000000
   192  Cl    c     0.000000    0.000000   -9.008000    0.000000    0.000000
   193  Cl    c     9.008000    9.008000    0.000000    0.000000    0.000000
   194  Cl    c     9.008000   -4.504000    0.000000    0.000000    0.000000
   195  Cl    c    -4.504000    9.008000    0.000000    0.000000    0.000000
   196  Cl    c    -4.504000   -4.504000    0.000000    0.000000    0.000000
   197  Na    c     9.008000    2.252000    6.756000    0.000000    0.000000
   198  Na    c     9.008000    2.252000   -6.756000    0.000000    0.000000
   199  Na    c    -4.504000    2.252000    6.756000    0.000000    0.000000
   200  Na    c    -4.504000    2.252000   -6.756000    0.000000    0.000000
   201  Na    c     2.252000    9.008000    6.756000    0.000000    0.000000
   202  Na    c     2.252000    9.008000   -6.756000    0.000000    0.000000
   203  Na    c     2.252000   -4.504000    6.756000    0.000000    0.000000
   204  Na    c     2.252000   -4.504000   -6.756000    0.000000    0.000000
   205  Na    c     4.504000   11.260000   -2.252000    0.000000    0.000000
   206  Na    c     4.504000   11.260000    2.252000    0.000000    0.000000
   207  Na    c     4.504000   -6.756000   -2.252000    0.000000    0.000000
   208  Na    c     4.504000   -6.756000    2.252000    0.000000    0.000000
   209  Na    c     0.000000   11.260000   -2.252000    0.000000    0.000000
   210  Na    c     0.000000   11.260000    2.252000    0.000000    0.000000
   211  Na    c     0.000000   -6.756000   -2.252000    0.000000    0.000000
   212  Na    c     0.000000   -6.756000    2.252000    0.000000    0.000000
   213  Na    c    11.260000    4.504000   -2.252000    0.000000    0.000000
   214  Na    c    11.260000    4.504000    2.252000    0.000000    0.000000
   215  Na    c    11.260000    0.000000   -2.252000    0.000000    0.000000
   216  Na    c    11.260000    0.000000    2.252000    0.000000    0.000000
   217  Na    c    -6.756000    4.504000   -2.252000    0.000000    0.000000
   218  Na    c    -6.756000    4.504000    2.252000    0.000000    0.000000
   219  Na    c    -6.756000    0.000000   -2.252000    0.000000    0.000000
   220  Na    c    -6.756000    0.000000    2.252000    0.000000    0.000000
   221  Na    c     2.252000    6.756000    9.008000    0.000000    0.000000
   222  Na    c     2.252000    6.756000   -9.008000    0.000000    0.000000
   223  Na    c     2.252000   -2.252000    9.008000    0.000000    0.000000
   224  Na    c     2.252000   -2.252000   -9.008000    0.000000    0.000000
   225  Na    c     6.756000    2.252000    9.008000    0.000000    0.000000
   226  Na    c     6.756000    2.252000   -9.008000    0.000000    0.000000
   227  Na    c    -2.252000    2.252000    9.008000    0.000000    0.000000
   228  Na    c    -2.252000    2.252000   -9.008000    0.000000    0.000000
   229  Na    c     2.252000   11.260000    4.504000    0.000000    0.000000
   230  Na    c     2.252000   11.260000   -4.504000    0.000000    0.000000
   231  Na    c     2.252000   -6.756000    4.504000    0.000000    0.000000
   232  Na    c     2.252000   -6.756000   -4.504000    0.000000    0.000000
   233  Na    c    11.260000    2.252000    4.504000    0.000000    0.000000
   234  Na    c    11.260000    2.252000   -4.504000    0.000000    0.000000
   235  Na    c    -6.756000    2.252000    4.504000    0.000000    0.000000
   236  Na    c    -6.756000    2.252000   -4.504000    0.000000    0.000000
   237  Na    c     6.756000   11.260000    0.000000    0.000000    0.000000
   238  Na    c     6.756000   -6.756000    0.000000    0.000000    0.000000
   239  Na    c    11.260000    6.756000    0.000000    0.000000    0.000000
   240  Na    c    11.260000   -2.252000    0.000000    0.000000    0.000000
   241  Na    c    -2.252000   11.260000    0.000000    0.000000    0.000000
   242  Na    c    -2.252000   -6.756000    0.000000    0.000000    0.000000
   243  Na    c    -6.756000    6.756000    0.000000    0.000000    0.000000
   244  Na    c    -6.756000   -2.252000    0.000000    0.000000    0.000000
   245  O     c     6.756000   11.260000   -2.252000    0.000000    0.000000
   246  O     c     6.756000   11.260000    2.252000    0.000000    0.000000
   247  O     c     6.756000   -6.756000   -2.252000    0.000000    0.000000
   248  O     c     6.756000   -6.756000    2.252000    0.000000    0.000000
   249  O     c    11.260000    6.756000   -2.252000    0.000000    0.000000
   250  O     c    11.260000    6.756000    2.252000    0.000000    0.000000
   251  O     c    11.260000   -2.252000   -2.252000    0.000000    0.000000
   252  O     c    11.260000   -2.252000    2.252000    0.000000    0.000000
   253  O     c    -2.252000   11.260000   -2.252000    0.000000    0.000000
   254  O     c    -2.252000   11.260000    2.252000    0.000000    0.000000
   255  O     c    -2.252000   -6.756000   -2.252000    0.000000    0.000000
   256  O     c    -2.252000   -6.756000    2.252000    0.000000    0.000000
   257  O     c    -6.756000    6.756000   -2.252000    0.000000    0.000000
   258  O     c    -6.756000    6.756000    2.252000    0.000000    0.000000
   259  O     c    -6.756000   -2.252000   -2.252000    0.000000    0.000000
   260  O     c    -6.756000   -2.252000    2.252000    0.000000    0.000000
   261  Cl    c     9.008000    9.008000    4.504000    0.000000    0.000000
   262  Cl    c     9.008000    9.008000   -4.504000    0.000000    0.000000
   263  Cl    c     9.008000   -4.504000    4.504000    0.000000    0.000000
   264  Cl    c     9.008000   -4.504000   -4.504000    0.000000    0.000000
   265  Cl    c    -4.504000    9.008000    4.504000    0.000000    0.000000
   266  Cl    c    -4.504000    9.008000   -4.504000    0.000000    0.000000
   267  Cl    c    -4.504000   -4.504000    4.504000    0.000000    0.000000
   268  Cl    c    -4.504000   -4.504000   -4.504000    0.000000    0.000000
   269  Na    c     9.008000    6.756000    6.756000    0.000000    0.000000
   270  Na    c     9.008000    6.756000   -6.756000    0.000000    0.000000
   271  Na    c     9.008000   -2.252000    6.756000    0.000000    0.000000
   272  Na    c     9.008000   -2.252000   -6.756000    0.000000    0.000000
   273  Na    c    -4.504000    6.756000    6.756000    0.000000    0.000000
   274  Na    c    -4.504000    6.756000   -6.756000    0.000000    0.000000
   275  Na    c    -4.504000   -2.252000    6.756000    0.000000    0.000000
   276  Na    c    -4.504000   -2.252000   -6.756000    0.000000    0.000000
   277  Na    c     6.756000    9.008000    6.756000    0.000000    0.000000
   278  Na    c     6.756000    9.008000   -6.756000    0.000000    0.000000
   279  Na    c     6.756000   -4.504000    6.756000    0.000000    0.000000
   280  Na    c     6.756000   -4.504000   -6.756000    0.000000    0.000000
   281  Na    c    -2.252000    9.008000    6.756000    0.000000    0.000000
   282  Na    c    -2.252000    9.008000   -6.756000    0.000000    0.000000
   283  Na    c    -2.252000   -4.504000    6.756000    0.000000    0.000000
   284  Na    c    -2.252000   -4.504000   -6.756000    0.000000    0.000000
   285  Na    c     6.756000   11.260000    4.504000    0.000000    0.000000
   286  Na    c     6.756000   11.260000   -4.504000    0.000000    0.000000
   287  Na    c     6.756000   -6.756000    4.504000    0.000000    0.000000
   288  Na    c     6.756000   -6.756000   -4.504000    0.000000    0.000000
   289  Na    c    11.260000    6.756000    4.504000    0.000000    0.000000
   290  Na    c    11.260000    6.756000   -4.504000    0.000000    0.000000
   291  Na    c    11.260000   -2.252000    4.504000    0.000000    0.000000
   292  Na    c    11.260000   -2.252000   -4.504000    0.000000    0.000000
   293  Na    c    -2.252000   11.260000    4.504000    0.000000    0.000000
   294  Na    c    -2.252000   11.260000   -4.504000    0.000000    0.000000
   295  Na    c    -2.252000   -6.756000    4.504000    0.000000    0.000000
   296  Na    c    -2.252000   -6.756000   -4.504000    0.000000    0.000000
   297  Na    c    -6.756000    6.756000    4.504000    0.000000    0.000000
   298  Na    c    -6.756000    6.756000   -4.504000    0.000000    0.000000
   299  Na    c    -6.756000   -2.252000    4.504000    0.000000    0.000000
   300  Na    c    -6.756000   -2.252000   -4.504000    0.000000    0.000000
   301  Na    c     6.756000    6.756000    9.008000    0.000000    0.000000
   302  Na    c     6.756000    6.756000   -9.008000    0.000000    0.000000
   303  Na    c     6.756000   -2.252000    9.008000    0.000000    0.000000
   304  Na    c     6.756000   -2.252000   -9.008000    0.000000    0.000000
   305  Na    c    -2.252000    6.756000    9.008000    0.000000    0.000000
   306  Na    c    -2.252000    6.756000   -9.008000    0.000000    0.000000
   307  Na    c    -2.252000   -2.252000    9.008000    0.000000    0.000000
   308  Na    c    -2.252000   -2.252000   -9.008000    0.000000    0.000000
   309  O     c     2.252000    2.252000   11.260000    0.000000    0.000000
   310  O     c     2.252000    2.252000  -11.260000    0.000000    0.000000
   311  O     c     2.252000   11.260000    6.756000    0.000000    0.000000
   312  O     c     2.252000   11.260000   -6.756000    0.000000    0.000000
   313  O     c     2.252000   -6.756000    6.756000    0.000000    0.000000
   314  O     c     2.252000   -6.756000   -6.756000    0.000000    0.000000
   315  O     c    11.260000    2.252000    6.756000    0.000000    0.000000
   316  O     c    11.260000    2.252000   -6.756000    0.000000    0.000000
   317  O     c    -6.756000    2.252000    6.756000    0.000000    0.000000
   318  O     c    -6.756000    2.252000   -6.756000    0.000000    0.000000
   319  Cl    c     4.504000   13.512000    0.000000    0.000000    0.000000
   320  Cl    c     4.504000   -9.008000    0.000000    0.000000    0.000000
   321  Cl    c    13.512000    4.504000    0.000000    0.000000    0.000000
   322  Cl    c    13.512000    0.000000    0.000000    0.000000    0.000000
   323  Cl    c     0.000000   13.512000    0.000000    0.000000    0.000000
   324  Cl    c     0.000000   -9.008000    0.000000    0.000000    0.000000
   325  Cl    c    -9.008000    4.504000    0.000000    0.000000    0.000000
   326  Cl    c    -9.008000    0.000000    0.000000    0.000000    0.000000
   327  Na    c     4.504000    2.252000   11.260000    0.000000    0.000000
   328  Na    c     4.504000    2.252000  -11.260000    0.000000    0.000000
   329  Na    c     0.000000    2.252000   11.260000    0.000000    0.000000
   330  Na    c     0.000000    2.252000  -11.260000    0.000000    0.000000
   331  Na    c     2.252000    4.504000   11.260000    0.000000    0.000000
   332  Na    c     2.252000    4.504000  -11.260000    0.000000    0.000000
   333  Na    c     2.252000    0.000000   11.260000    0.000000    0.000000
   334  Na    c     2.252000    0.000000  -11.260000    0.000000    0.000000
   335  Na    c    13.512000    2.252000   -2.252000    0.000000    0.000000
   336  Na    c    13.512000    2.252000    2.252000    0.000000    0.000000
   337  Na    c    -9.008000    2.252000   -2.252000    0.000000    0.000000
   338  Na    c    -9.008000    2.252000    2.252000    0.000000    0.000000
   339  Na    c     2.252000   13.512000   -2.252000    0.000000    0.000000
   340  Na    c     2.252000   13.512000    2.252000    0.000000    0.000000
   341  Na    c     2.252000   -9.008000   -2.252000    0.000000    0.000000
   342  Na    c     2.252000   -9.008000    2.252000    0.000000    0.000000
   343  Cl    c     4.504000    9.008000    9.008000    0.000000    0.000000
   344  Cl    c     4.504000    9.008000   -9.008000    0.000000    0.000000
   345  Cl    c     4.504000   -4.504000    9.008000    0.000000    0.000000
   346  Cl    c     4.504000   -4.504000   -9.008000    0.000000    0.000000
   347  Cl    c     9.008000    4.504000    9.008000    0.000000    0.000000
   348  Cl    c     9.008000    4.504000   -9.008000    0.000000    0.000000
   349  Cl    c     9.008000    0.000000    9.008000    0.000000    0.000000
   350  Cl    c     9.008000    0.000000   -9.008000    0.000000    0.000000
   351  Cl    c     0.000000    9.008000    9.008000    0.000000    0.000000
   352  Cl    c     0.000000    9.008000   -9.008000    0.000000    0.000000
   353  Cl    c     0.000000   -4.504000    9.008000    0.000000    0.000000
   354  Cl    c     0.000000   -4.504000   -9.008000    0.000000    0.000000
   355  Cl    c    -4.504000    4.504000    9.008000    0.000000    0.000000
   356  Cl    c    -4.504000    4.504000   -9.008000    0.000000    0.000000
   357  Cl    c    -4.504000    0.000000    9.008000    0.000000    0.000000
   358  Cl    c    -4.504000    0.000000   -9.008000    0.000000    0.000000
   359  Na    c     4.504000   11.260000    6.756000    0.000000    0.000000
   360  Na    c     4.504000   11.260000   -6.756000    0.000000    0.000000
   361  Na    c     4.504000   -6.756000    6.756000    0.000000    0.000000
   362  Na    c     4.504000   -6.756000   -6.756000    0.000000    0.000000
   363  Na    c     0.000000   11.260000    6.756000    0.000000    0.000000
   364  Na    c     0.000000   11.260000   -6.756000    0.000000    0.000000
   365  Na    c     0.000000   -6.756000    6.756000    0.000000    0.000000
   366  Na    c     0.000000   -6.756000   -6.756000    0.000000    0.000000
   367  Na    c    11.260000    4.504000    6.756000    0.000000    0.000000
   368  Na    c    11.260000    4.504000   -6.756000    0.000000    0.000000
   369  Na    c    11.260000    0.000000    6.756000    0.000000    0.000000
   370  Na    c    11.260000    0.000000   -6.756000    0.000000    0.000000
   371  Na    c    -6.756000    4.504000    6.756000    0.000000    0.000000
   372  Na    c    -6.756000    4.504000   -6.756000    0.000000    0.000000
   373  Na    c    -6.756000    0.000000    6.756000    0.000000    0.000000
   374  Na    c    -6.756000    0.000000   -6.756000    0.000000    0.000000
   375  Na    c     9.008000   11.260000   -2.252000    0.000000    0.000000
   376  Na    c     9.008000   11.260000    2.252000    0.000000    0.000000
   377  Na    c     9.008000   -6.756000   -2.252000    0.000000    0.000000
   378  Na    c     9.008000   -6.756000    2.252000    0.000000    0.000000
   379  Na    c    -4.504000   11.260000   -2.252000    0.000000    0.000000
   380  Na    c    -4.504000   11.260000    2.252000    0.000000    0.000000
   381  Na    c    -4.504000   -6.756000   -2.252000    0.000000    0.000000
   382  Na    c    -4.504000   -6.756000    2.252000    0.000000    0.000000
   383  Na    c    11.260000    9.008000   -2.252000    0.000000    0.000000
   384  Na    c    11.260000    9.008000    2.252000    0.000000    0.000000
   385  Na    c    11.260000   -4.504000   -2.252000    0.000000    0.000000
   386  Na    c    11.260000   -4.504000    2.252000    0.000000    0.000000
   387  Na    c    -6.756000    9.008000   -2.252000    0.000000    0.000000
   388  Na    c    -6.756000    9.008000    2.252000    0.000000    0.000000
   389  Na    c    -6.756000   -4.504000   -2.252000    0.000000    0.000000
   390  Na    c    -6.756000   -4.504000    2.252000    0.000000    0.000000
   391  O     c     2.252000    6.756000   11.260000    0.000000    0.000000
   392  O     c     2.252000    6.756000  -11.260000    0.000000    0.000000
   393  O     c     2.252000   -2.252000   11.260000    0.000000    0.000000
   394  O     c     2.252000   -2.252000  -11.260000    0.000000    0.000000
   395  O     c     6.756000    2.252000   11.260000    0.000000    0.000000
   396  O     c     6.756000    2.252000  -11.260000    0.000000    0.000000
   397  O     c    -2.252000    2.252000   11.260000    0.000000    0.000000
   398  O     c    -2.252000    2.252000  -11.260000    0.000000    0.000000
   399  O     c     6.756000   11.260000    6.756000    0.000000    0.000000
   400  O     c     6.756000   11.260000   -6.756000    0.000000    0.000000
   401  O     c     6.756000   -6.756000    6.756000    0.000000    0.000000
   402  O     c     6.756000   -6.756000   -6.756000    0.000000    0.000000
   403  O     c    11.260000    6.756000    6.756000    0.000000    0.000000
   404  O     c    11.260000    6.756000   -6.756000    0.000000    0.000000
   405  O     c    11.260000   -2.252000    6.756000    0.000000    0.000000
   406  O     c    11.260000   -2.252000   -6.756000    0.000000    0.000000
   407  O     c    -2.252000   11.260000    6.756000    0.000000    0.000000
   408  O     c    -2.252000   11.260000   -6.756000    0.000000    0.000000
   409  O     c    -2.252000   -6.756000    6.756000    0.000000    0.000000
   410  O     c    -2.252000   -6.756000   -6.756000    0.000000    0.000000
   411  O     c    -6.756000    6.756000    6.756000    0.000000    0.000000
   412  O     c    -6.756000    6.756000   -6.756000    0.000000    0.000000
   413  O     c    -6.756000   -2.252000    6.756000    0.000000    0.000000
   414  O     c    -6.756000   -2.252000   -6.756000    0.000000    0.000000
   415  Cl    c     4.504000   13.512000    4.504000    0.000000    0.000000
   416  Cl    c     4.504000   13.512000   -4.504000    0.000000    0.000000
   417  Cl    c     4.504000   -9.008000    4.504000    0.000000    0.000000
   418  Cl    c     4.504000   -9.008000   -4.504000    0.000000    0.000000
   419  Cl    c    13.512000    4.504000    4.504000    0.000000    0.000000
   420  Cl    c    13.512000    4.504000   -4.504000    0.000000    0.000000
   421  Cl    c    13.512000    0.000000    4.504000    0.000000    0.000000
   422  Cl    c    13.512000    0.000000   -4.504000    0.000000    0.000000
   423  Cl    c     0.000000   13.512000    4.504000    0.000000    0.000000
   424  Cl    c     0.000000   13.512000   -4.504000    0.000000    0.000000
   425  Cl    c     0.000000   -9.008000    4.504000    0.000000    0.000000
   426  Cl    c     0.000000   -9.008000   -4.504000    0.000000    0.000000
   427  Cl    c    -9.008000    4.504000    4.504000    0.000000    0.000000
   428  Cl    c    -9.008000    4.504000   -4.504000    0.000000    0.000000
   429  Cl    c    -9.008000    0.000000    4.504000    0.000000    0.000000
   430  Cl    c    -9.008000    0.000000   -4.504000    0.000000    0.000000
   431  Na    c     4.504000    6.756000   11.260000    0.000000    0.000000
   432  Na    c     4.504000    6.756000  -11.260000    0.000000    0.000000
   433  Na    c     4.504000   -2.252000   11.260000    0.000000    0.000000
   434  Na    c     4.504000   -2.252000  -11.260000    0.000000    0.000000
   435  Na    c     0.000000    6.756000   11.260000    0.000000    0.000000
   436  Na    c     0.000000    6.756000  -11.260000    0.000000    0.000000
   437  Na    c     0.000000   -2.252000   11.260000    0.000000    0.000000
   438  Na    c     0.000000   -2.252000  -11.260000    0.000000    0.000000
   439  Na    c     6.756000    4.504000   11.260000    0.000000    0.000000
   440  Na    c     6.756000    4.504000  -11.260000    0.000000    0.000000
   441  Na    c     6.756000    0.000000   11.260000    0.000000    0.000000
   442  Na    c     6.756000    0.000000  -11.260000    0.000000    0.000000
   443  Na    c    -2.252000    4.504000   11.260000    0.000000    0.000000
   444  Na    c    -2.252000    4.504000  -11.260000    0.000000    0.000000
   445  Na    c    -2.252000    0.000000   11.260000    0.000000    0.000000
   446  Na    c    -2.252000    0.000000  -11.260000    0.000000    0.000000
   447  Na    c    13.512000    6.756000   -2.252000    0.000000    0.000000
   448  Na    c    13.512000    6.756000    2.252000    0.000000    0.000000
   449  Na    c    13.512000   -2.252000   -2.252000    0.000000    0.000000
   450  Na    c    13.512000   -2.252000    2.252000    0.000000    0.000000
   451  Na    c    -9.008000    6.756000   -2.252000    0.000000    0.000000
   452  Na    c    -9.008000    6.756000    2.252000    0.000000    0.000000
   453  Na    c    -9.008000   -2.252000   -2.252000    0.000000    0.000000
   454  Na    c    -9.008000   -2.252000    2.252000    0.000000    0.000000
   455  Na    c     6.756000   13.512000   -2.252000    0.000000    0.000000
   456  Na    c     6.756000   13.512000    2.252000    0.000000    0.000000
   457  Na    c     6.756000   -9.008000   -2.252000    0.000000    0.000000
   458  Na    c     6.756000   -9.008000    2.252000    0.000000    0.000000
   459  Na    c    -2.252000   13.512000   -2.252000    0.000000    0.000000
   460  Na    c    -2.252000   13.512000    2.252000    0.000000    0.000000
   461  Na    c    -2.252000   -9.008000   -2.252000    0.000000    0.000000
   462  Na    c    -2.252000   -9.008000    2.252000    0.000000    0.000000
   463  Na    c     2.252000   11.260000    9.008000    0.000000    0.000000
   464  Na    c     2.252000   11.260000   -9.008000    0.000000    0.000000
   465  Na    c     2.252000   -6.756000    9.008000    0.000000    0.000000
   466  Na    c     2.252000   -6.756000   -9.008000    0.000000    0.000000
   467  Na    c    11.260000    2.252000    9.008000    0.000000    0.000000
   468  Na    c    11.260000    2.252000   -9.008000    0.000000    0.000000
   469  Na    c    -6.756000    2.252000    9.008000    0.000000    0.000000
   470  Na    c    -6.756000    2.252000   -9.008000    0.000000    0.000000
   471  Na    c    11.260000   11.260000    0.000000    0.000000    0.000000
   472  Na    c    11.260000   -6.756000    0.000000    0.000000    0.000000
   473  Na    c    -6.756000   11.260000    0.000000    0.000000    0.000000
   474  Na    c    -6.756000   -6.756000    0.000000    0.000000    0.000000
   475  O     c     6.756000    6.756000   11.260000    0.000000    0.000000
   476  O     c     6.756000    6.756000  -11.260000    0.000000    0.000000
   477  O     c     6.756000   -2.252000   11.260000    0.000000    0.000000
   478  O     c     6.756000   -2.252000  -11.260000    0.000000    0.000000
   479  O     c    -2.252000    6.756000   11.260000    0.000000    0.000000
   480  O     c    -2.252000    6.756000  -11.260000    0.000000    0.000000
   481  O     c    -2.252000   -2.252000   11.260000    0.000000    0.000000
   482  O     c    -2.252000   -2.252000  -11.260000    0.000000    0.000000
   483  O     c    11.260000   11.260000   -2.252000    0.000000    0.000000
   484  O     c    11.260000   11.260000    2.252000    0.000000    0.000000
   485  O     c    11.260000   -6.756000   -2.252000    0.000000    0.000000
   486  O     c    11.260000   -6.756000    2.252000    0.000000    0.000000
   487  O     c    -6.756000   11.260000   -2.252000    0.000000    0.000000
   488  O     c    -6.756000   11.260000    2.252000    0.000000    0.000000
   489  O     c    -6.756000   -6.756000   -2.252000    0.000000    0.000000
   490  O     c    -6.756000   -6.756000    2.252000    0.000000    0.000000
   491  O     s     2.252000    2.252000   -2.252000    0.000000    0.000000
   492  O     s     2.252000    2.252000    2.252000    0.000000    0.000000
   493  Cl    s     4.504000    4.504000    0.000000    0.000000    0.000000
   494  Cl    s     4.504000    0.000000    0.000000    0.000000    0.000000
   495  Cl    s     0.000000    4.504000    0.000000    0.000000    0.000000
   496  Cl    s     0.000000    0.000000    0.000000    0.000000    0.000000
   497  O     s     2.252000    6.756000   -2.252000    0.000000    0.000000
   498  O     s     2.252000    6.756000    2.252000    0.000000    0.000000
   499  O     s     2.252000   -2.252000   -2.252000    0.000000    0.000000
   500  O     s     2.252000   -2.252000    2.252000    0.000000    0.000000
   501  O     s     6.756000    2.252000   -2.252000    0.000000    0.000000
   502  O     s     6.756000    2.252000    2.252000    0.000000    0.000000
   503  O     s    -2.252000    2.252000   -2.252000    0.000000    0.000000
   504  O     s    -2.252000    2.252000    2.252000    0.000000    0.000000
   505  Cl    s     4.504000    4.504000    4.504000    0.000000    0.000000
   506  Cl    s     4.504000    4.504000   -4.504000    0.000000    0.000000
   507  Cl    s     4.504000    0.000000    4.504000    0.000000    0.000000
   508  Cl    s     4.504000    0.000000   -4.504000    0.000000    0.000000
   509  Cl    s     0.000000    4.504000    4.504000    0.000000    0.000000
   510  Cl    s     0.000000    4.504000   -4.504000    0.000000    0.000000
   511  Cl    s     0.000000    0.000000    4.504000    0.000000    0.000000
   512  Cl    s     0.000000    0.000000   -4.504000    0.000000    0.000000
   513  O     s     2.252000    2.252000    6.756000    0.000000    0.000000
   514  O     s     2.252000    2.252000   -6.756000    0.000000    0.000000
   515  O     s     6.756000    6.756000   -2.252000    0.000000    0.000000
   516  O     s     6.756000    6.756000    2.252000    0.000000    0.000000
   517  O     s     6.756000   -2.252000   -2.252000    0.000000    0.000000
   518  O     s     6.756000   -2.252000    2.252000    0.000000    0.000000
   519  O     s    -2.252000    6.756000   -2.252000    0.000000    0.000000
   520  O     s    -2.252000    6.756000    2.252000    0.000000    0.000000
   521  O     s    -2.252000   -2.252000   -2.252000    0.000000    0.000000
   522  O     s    -2.252000   -2.252000    2.252000    0.000000    0.000000
   523  Cl    s     4.504000    9.008000    0.000000    0.000000    0.000000
   524  Cl    s     4.504000   -4.504000    0.000000    0.000000    0.000000
   525  Cl    s     9.008000    4.504000    0.000000    0.000000    0.000000
   526  Cl    s     9.008000    0.000000    0.000000    0.000000    0.000000
   527  Cl    s     0.000000    9.008000    0.000000    0.000000    0.000000
   528  Cl    s     0.000000   -4.504000    0.000000    0.000000    0.000000
   529  Cl    s    -4.504000    4.504000    0.000000    0.000000    0.000000
   530  Cl    s    -4.504000    0.000000    0.000000    0.000000    0.000000
   531  O     s     2.252000    6.756000    6.756000    0.000000    0.000000
   532  O     s     2.252000    6.756000   -6.756000    0.000000    0.000000
   533  O     s     2.252000   -2.252000    6.756000    0.000000    0.000000
   534  O     s     2.252000   -2.252000   -6.756000    0.000000    0.000000
   535  O     s     6.756000    2.252000    6.756000    0.000000    0.000000
   536  O     s     6.756000    2.252000   -6.756000    0.000000    0.000000
   537  O     s    -2.252000    2.252000    6.756000    0.000000    0.000000
   538  O     s    -2.252000    2.252000   -6.756000    0.000000    0.000000
   539  Cl    s     4.504000    9.008000    4.504000    0.000000    0.000000
   540  Cl    s     4.504000    9.008000   -4.504000    0.000000    0.000000
   541  Cl    s     4.504000   -4.504000    4.504000    0.000000    0.000000
   542  Cl    s     4.504000   -4.504000   -4.504000    0.000000    0.000000
   543  Cl    s     9.008000    4.504000    4.504000    0.000000    0.000000
   544  Cl    s     9.008000    4.504000   -4.504000    0.000000    0.000000
   545  Cl    s     9.008000    0.000000    4.504000    0.000000    0.000000
   546  Cl    s     9.008000    0.000000   -4.504000    0.000000    0.000000
   547  Cl    s     0.000000    9.008000    4.504000    0.000000    0.000000
   548  Cl    s     0.000000    9.008000   -4.504000    0.000000    0.000000
   549  Cl    s     0.000000   -4.504000    4.504000    0.000000    0.000000
   550  Cl    s     0.000000   -4.504000   -4.504000    0.000000    0.000000
   551  Cl    s    -4.504000    4.504000    4.504000    0.000000    0.000000
   552  Cl    s    -4.504000    4.504000   -4.504000    0.000000    0.000000
   553  Cl    s    -4.504000    0.000000    4.504000    0.000000    0.000000
   554  Cl    s    -4.504000    0.000000   -4.504000    0.000000    0.000000
   555  O     s     2.252000   11.260000   -2.252000    0.000000    0.000000
   556  O     s     2.252000   11.260000    2.252000    0.000000    0.000000
   557  O     s     2.252000   -6.756000   -2.252000    0.000000    0.000000
   558  O     s     2.252000   -6.756000    2.252000    0.000000    0.000000
   559  O     s    11.260000    2.252000   -2.252000    0.000000    0.000000
   560  O     s    11.260000    2.252000    2.252000    0.000000    0.000000
   561  O     s    -6.756000    2.252000   -2.252000    0.000000    0.000000
   562  O     s    -6.756000    2.252000    2.252000    0.000000    0.000000
   563  O     s     6.756000    6.756000    6.756000    0.000000    0.000000
   564  O     s     6.756000    6.756000   -6.756000    0.000000    0.000000
   565  O     s     6.756000   -2.252000    6.756000    0.000000    0.000000
   566  O     s     6.756000   -2.252000   -6.756000    0.000000    0.000000
   567  O     s    -2.252000    6.756000    6.756000    0.000000    0.000000
   568  O     s    -2.252000    6.756000   -6.756000    0.000000    0.000000
   569  O     s    -2.252000   -2.252000    6.756000    0.000000    0.000000
   570  O     s    -2.252000   -2.252000   -6.756000    0.000000    0.000000
   571  Cl    s     4.504000    4.504000    9.008000    0.000000    0.000000
   572  Cl    s     4.504000    4.504000   -9.008000    0.000000    0.000000
   573  Cl    s     4.504000    0.000000    9.008000    0.000000    0.000000
   574  Cl    s     4.504000    0.000000   -9.008000    0.000000    0.000000
   575  Cl    s     0.000000    4.504000    9.008000    0.000000    0.000000
   576  Cl    s     0.000000    4.504000   -9.008000    0.000000    0.000000
   577  Cl    s     0.000000    0.000000    9.008000    0.000000    0.000000
   578  Cl    s     0.000000    0.000000   -9.008000    0.000000    0.000000
   579  Cl    s     9.008000    9.008000    0.000000    0.000000    0.000000
   580  Cl    s     9.008000   -4.504000    0.000000    0.000000    0.000000
   581  Cl    s    -4.504000    9.008000    0.000000    0.000000    0.000000
   582  Cl    s    -4.504000   -4.504000    0.000000    0.000000    0.000000
   583  O     s     6.756000   11.260000   -2.252000    0.000000    0.000000
   584  O     s     6.756000   11.260000    2.252000    0.000000    0.000000
   585  O     s     6.756000   -6.756000   -2.252000    0.000000    0.000000
   586  O     s     6.756000   -6.756000    2.252000    0.000000    0.000000
   587  O     s    11.260000    6.756000   -2.252000    0.000000    0.000000
   588  O     s    11.260000    6.756000    2.252000    0.000000    0.000000
   589  O     s    11.260000   -2.252000   -2.252000    0.000000    0.000000
   590  O     s    11.260000   -2.252000    2.252000    0.000000    0.000000
   591  O     s    -2.252000   11.260000   -2.252000    0.000000    0.000000
   592  O     s    -2.252000   11.260000    2.252000    0.000000    0.000000
   593  O     s    -2.252000   -6.756000   -2.252000    0.000000    0.000000
   594  O     s    -2.252000   -6.756000    2.252000    0.000000    0.000000
   595  O     s    -6.756000    6.756000   -2.252000    0.000000    0.000000
   596  O     s    -6.756000    6.756000    2.252000    0.000000    0.000000
   597  O     s    -6.756000   -2.252000   -2.252000    0.000000    0.000000
   598  O     s    -6.756000   -2.252000    2.252000    0.000000    0.000000
   599  Cl    s     9.008000    9.008000    4.504000    0.000000    0.000000
   600  Cl    s     9.008000    9.008000   -4.504000    0.000000    0.000000
   601  Cl    s     9.008000   -4.504000    4.504000    0.000000    0.000000
   602  Cl    s     9.008000   -4.504000   -4.504000    0.000000    0.000000
   603  Cl    s    -4.504000    9.008000    4.504000    0.000000    0.000000
   604  Cl    s    -4.504000    9.008000   -4.504000    0.000000    0.000000
   605  Cl    s    -4.504000   -4.504000    4.504000    0.000000    0.000000
   606  Cl    s    -4.504000   -4.504000   -4.504000    0.000000    0.000000
   607  O     s     2.252000    2.252000   11.260000    0.000000    0.000000
   608  O     s     2.252000    2.252000  -11.260000    0.000000    0.000000
   609  O     s     2.252000   11.260000    6.756000    0.000000    0.000000
   610  O     s     2.252000   11.260000   -6.756000    0.000000    0.000000
   611  O     s     2.252000   -6.756000    6.756000    0.000000    0.000000
   612  O     s     2.252000   -6.756000   -6.756000    0.000000    0.000000
   613  O     s    11.260000    2.252000    6.756000    0.000000    0.000000
   614  O     s    11.260000    2.252000   -6.756000    0.000000    0.000000
   615  O     s    -6.756000    2.252000    6.756000    0.000000    0.000000
   616  O     s    -6.756000    2.252000   -6.756000    0.000000    0.000000
   617  Cl    s     4.504000   13.512000    0.000000    0.000000    0.000000
   618  Cl    s     4.504000   -9.008000    0.000000    0.000000    0.000000
   619  Cl    s    13.512000    4.504000    0.000000    0.000000    0.000000
   620  Cl    s    13.512000    0.000000    0.000000    0.000000    0.000000
   621  Cl    s     0.000000   13.512000    0.000000    0.000000    0.000000
   622  Cl    s     0.000000   -9.008000    0.000000    0.000000    0.000000
   623  Cl    s    -9.008000    4.504000    0.000000    0.000000    0.000000
   624  Cl    s    -9.008000    0.000000    0.000000    0.000000    0.000000
   625  Cl    s     4.504000    9.008000    9.008000    0.000000    0.000000
   626  Cl    s     4.504000    9.008000   -9.008000    0.000000    0.000000
   627  Cl    s     4.504000   -4.504000    9.008000    0.000000    0.000000
   628  Cl    s     4.504000   -4.504000   -9.008000    0.000000    0.000000
   629  Cl    s     9.008000    4.504000    9.008000    0.000000    0.000000
   630  Cl    s     9.008000    4.504000   -9.008000    0.000000    0.000000
   631  Cl    s     9.008000    0.000000    9.008000    0.000000    0.000000
   632  Cl    s     9.008000    0.000000   -9.008000    0.000000    0.000000
   633  Cl    s     0.000000    9.008000    9.008000    0.000000    0.000000
   634  Cl    s     0.000000    9.008000   -9.008000    0.000000    0.000000
   635  Cl    s     0.000000   -4.504000    9.008000    0.000000    0.000000
   636  Cl    s     0.000000   -4.504000   -9.008000    0.000000    0.000000
   637  Cl    s    -4.504000    4.504000    9.008000    0.000000    0.000000
   638  Cl    s    -4.504000    4.504000   -9.008000    0.000000    0.000000
   639  Cl    s    -4.504000    0.000000    9.008000    0.000000    0.000000
   640  Cl    s    -4.504000    0.000000   -9.008000    0.000000    0.000000
   641  O     s     2.252000    6.756000   11.260000    0.000000    0.000000
   642  O     s     2.252000    6.756000  -11.260000    0.000000    0.000000
   643  O     s     2.252000   -2.252000   11.260000    0.000000    0.000000
   644  O     s     2.252000   -2.252000  -11.260000    0.000000    0.000000
   645  O     s     6.756000    2.252000   11.260000    0.000000    0.000000
   646  O     s     6.756000    2.252000  -11.260000    0.000000    0.000000
   647  O     s    -2.252000    2.252000   11.260000    0.000000    0.000000
   648  O     s    -2.252000    2.252000  -11.260000    0.000000    0.000000
   649  O     s     6.756000   11.260000    6.756000    0.000000    0.000000
   650  O     s     6.756000   11.260000   -6.756000    0.000000    0.000000
   651  O     s     6.756000   -6.756000    6.756000    0.000000    0.000000
   652  O     s     6.756000   -6.756000   -6.756000    0.000000    0.000000
   653  O     s    11.260000    6.756000    6.756000    0.000000    0.000000
   654  O     s    11.260000    6.756000   -6.756000    0.000000    0.000000
   655  O     s    11.260000   -2.252000    6.756000    0.000000    0.000000
   656  O     s    11.260000   -2.252000   -6.756000    0.000000    0.000000
   657  O     s    -2.252000   11.260000    6.756000    0.000000    0.000000
   658  O     s    -2.252000   11.260000   -6.756000    0.000000    0.000000
   659  O     s    -2.252000   -6.756000    6.756000    0.000000    0.000000
   660  O     s    -2.252000   -6.756000   -6.756000    0.000000    0.000000
   661  O     s    -6.756000    6.756000    6.756000    0.000000    0.000000
   662  O     s    -6.756000    6.756000   -6.756000    0.000000    0.000000
   663  O     s    -6.756000   -2.252000    6.756000    0.000000    0.000000
   664  O     s    -6.756000   -2.252000   -6.756000    0.000000    0.000000
   665  Cl    s     4.504000   13.512000    4.504000    0.000000    0.000000
   666  Cl    s     4.504000   13.512000   -4.504000    0.000000    0.000000
   667  Cl    s     4.504000   -9.008000    4.504000    0.000000    0.000000
   668  Cl    s     4.504000   -9.008000   -4.504000    0.000000    0.000000
   669  Cl    s    13.512000    4.504000    4.504000    0.000000    0.000000
   670  Cl    s    13.512000    4.504000   -4.504000    0.000000    0.000000
   671  Cl    s    13.512000    0.000000    4.504000    0.000000    0.000000
   672  Cl    s    13.512000    0.000000   -4.504000    0.000000    0.000000
   673  Cl    s     0.000000   13.512000    4.504000    0.000000    0.000000
   674  Cl    s     0.000000   13.512000   -4.504000    0.000000    0.000000
   675  Cl    s     0.000000   -9.008000    4.504000    0.000000    0.000000
   676  Cl    s     0.000000   -9.008000   -4.504000    0.000000    0.000000
   677  Cl    s    -9.008000    4.504000    4.504000    0.000000    0.000000
   678  Cl    s    -9.008000    4.504000   -4.504000    0.000000    0.000000
   679  Cl    s    -9.008000    0.000000    4.504000    0.000000    0.000000
   680  Cl    s    -9.008000    0.000000   -4.504000    0.000000    0.000000
   681  O     s     6.756000    6.756000   11.260000    0.000000    0.000000
   682  O     s     6.756000    6.756000  -11.260000    0.000000    0.000000
   683  O     s     6.756000   -2.252000   11.260000    0.000000    0.000000
   684  O     s     6.756000   -2.252000  -11.260000    0.000000    0.000000
   685  O     s    -2.252000    6.756000   11.260000    0.000000    0.000000
   686  O     s    -2.252000    6.756000  -11.260000    0.000000    0.000000
   687  O     s    -2.252000   -2.252000   11.260000    0.000000    0.000000
   688  O     s    -2.252000   -2.252000  -11.260000    0.000000    0.000000
   689  O     s    11.260000   11.260000   -2.252000    0.000000    0.000000
   690  O     s    11.260000   11.260000    2.252000    0.000000    0.000000
   691  O     s    11.260000   -6.756000   -2.252000    0.000000    0.000000
   692  O     s    11.260000   -6.756000    2.252000    0.000000    0.000000
   693  O     s    -6.756000   11.260000   -2.252000    0.000000    0.000000
   694  O     s    -6.756000   11.260000    2.252000    0.000000    0.000000
   695  O     s    -6.756000   -6.756000   -2.252000    0.000000    0.000000
   696  O     s    -6.756000   -6.756000    2.252000    0.000000    0.000000
--------------------------------------------------------------------------------

  Final coordinates of symmetry reduced region 1 (relative to defect centre):

--------------------------------------------------------------------------------
   No.  Atomic        x           y           z          Charge
        Label       (Angs)      (Angs)      (Angs)         (e) 
--------------------------------------------------------------------------------
     1  O     c     0.000000    0.000000   -2.252000    0.000000
     2  Cl    c     2.252000    2.252000    0.000000    0.000000
     3  Na    c     2.252000    0.000000   -2.252000    0.000000
     4  Na    c     0.000000    0.000000    4.504000    0.000000
     5  Na    c     0.000000    4.504000    0.000000    0.000000
     6  O     c     0.000000    4.504000   -2.252000    0.000000
     7  Na    c     2.252000    4.504000   -2.252000    0.000000
     8  Cl    c     2.252000    2.252000    4.504000    0.000000
     9  Na    c     0.000000    4.504000    4.504000    0.000000
    10  Na    c     4.504000    4.504000    0.000000    0.000000
    11  O     c     0.000000    0.000000    6.756000    0.000000
    12  O     c     4.504000    4.504000   -2.252000    0.000000
[...]
    64  O     s       0.000000      0.000000      0.000000      0.000000
    65  Cl    s       0.000000      0.000000      0.000000      0.000000
    66  Cl    s       0.000000      0.000000      0.000000      0.000000
    67  O     s       0.000000      0.000000      0.000000      0.000000
    68  Cl    s       0.000000      0.000000      0.000000      0.000000
    69  O     s       0.000000      0.000000      0.000000      0.000000
    70  O     s       0.000000      0.000000      0.000000      0.000000
    71  Cl    s       0.000000      0.000000      0.000000      0.000000
    72  Cl    s       0.000000      0.000000      0.000000      0.000000
    73  O     s       0.000000      0.000000      0.000000      0.000000
    74  O     s       0.000000      0.000000      0.000000      0.000000
    75  Cl    s       0.000000      0.000000      0.000000      0.000000
    76  O     s       0.000000      0.000000      0.000000      0.000000
    77  O     s       0.000000      0.000000      0.000000      0.000000
--------------------------------------------------------------------------------

  Comparison of initial and final region 1 : 

--------------------------------------------------------------------------------
  Parameter   Initial value   Final value   Difference    Units      Percent
--------------------------------------------------------------------------------
      1 x          2.252000      2.252000     0.000000    Cartesian    0.00
      1 y          2.252000      2.252000     0.000000    Cartesian    0.00
      1 z         -2.252000     -2.252000     0.000000    Cartesian   -0.00
      2 x          4.504000      4.504000     0.000000    Cartesian    0.00
      2 y          4.504000      4.504000     0.000000    Cartesian    0.00
      2 z          0.000000      0.000000     0.000000    Cartesian    0.00
      3 x          4.504000      4.504000     0.000000    Cartesian    0.00
      3 y          2.252000      2.252000     0.000000    Cartesian    0.00
      3 z         -2.252000     -2.252000     0.000000    Cartesian   -0.00
      4 x          2.252000      2.252000     0.000000    Cartesian    0.00
      4 y          2.252000      2.252000     0.000000    Cartesian    0.00
      4 z          4.504000      4.504000     0.000000    Cartesian    0.00
      5 x          2.252000      2.252000     0.000000    Cartesian    0.00
      5 y          6.756000      6.756000     0.000000    Cartesian    0.00
      5 z          0.000000      0.000000     0.000000    Cartesian    0.00
      6 x          2.252000      2.252000     0.000000    Cartesian    0.00
      6 y          6.756000      6.756000     0.000000    Cartesian    0.00
      6 z         -2.252000     -2.252000     0.000000    Cartesian   -0.00
      7 x          4.504000      4.504000     0.000000    Cartesian    0.00
      7 y          6.756000      6.756000     0.000000    Cartesian    0.00
      7 z         -2.252000     -2.252000     0.000000    Cartesian   -0.00
      8 x          4.504000      4.504000     0.000000    Cartesian    0.00
      8 y          4.504000      4.504000     0.000000    Cartesian    0.00
      8 z          4.504000      4.504000     0.000000    Cartesian    0.00
      9 x          2.252000      2.252000     0.000000    Cartesian    0.00
      9 y          6.756000      6.756000     0.000000    Cartesian    0.00
      9 z          4.504000      4.504000     0.000000    Cartesian    0.00
     10 x          6.756000      6.756000     0.000000    Cartesian    0.00
     10 y          6.756000      6.756000     0.000000    Cartesian    0.00
     10 z          0.000000      0.000000     0.000000    Cartesian    0.00
     11 x          2.252000      2.252000     0.000000    Cartesian    0.00
     11 y          2.252000      2.252000     0.000000    Cartesian    0.00
     11 z          6.756000      6.756000     0.000000    Cartesian    0.00
     12 x          6.756000      6.756000     0.000000    Cartesian    0.00
     12 y          6.756000      6.756000     0.000000    Cartesian    0.00
     12 z         -2.252000     -2.252000     0.000000    Cartesian   -0.00
     13 x          4.504000      4.504000     0.000000    Cartesian    0.00
     13 y          9.008000      9.008000     0.000000    Cartesian    0.00
     13 z          0.000000      0.000000     0.000000    Cartesian    0.00
     14 x          4.504000      4.504000     0.000000    Cartesian    0.00
     14 y          2.252000      2.252000     0.000000    Cartesian    0.00
     14 z          6.756000      6.756000     0.000000    Cartesian    0.00
     15 x          9.008000      9.008000     0.000000    Cartesian    0.00
     15 y          2.252000      2.252000     0.000000    Cartesian    0.00
     15 z         -2.252000     -2.252000     0.000000    Cartesian   -0.00
     16 x          6.756000      6.756000     0.000000    Cartesian    0.00
     16 y          6.756000      6.756000     0.000000    Cartesian    0.00
     16 z          4.504000      4.504000     0.000000    Cartesian    0.00
     17 x          2.252000      2.252000     0.000000    Cartesian    0.00
     17 y          6.756000      6.756000     0.000000    Cartesian    0.00
     17 z          6.756000      6.756000     0.000000    Cartesian    0.00
     18 x          4.504000      4.504000     0.000000    Cartesian    0.00
     18 y          9.008000      9.008000     0.000000    Cartesian    0.00
     18 z          4.504000      4.504000     0.000000    Cartesian    0.00
     19 x          4.504000      4.504000     0.000000    Cartesian    0.00
     19 y          6.756000      6.756000     0.000000    Cartesian    0.00
     19 z          6.756000      6.756000     0.000000    Cartesian    0.00
     20 x          9.008000      9.008000     0.000000    Cartesian    0.00
     20 y          6.756000      6.756000     0.000000    Cartesian    0.00
     20 z         -2.252000     -2.252000     0.000000    Cartesian   -0.00
     21 x          2.252000      2.252000     0.000000    Cartesian    0.00
     21 y          2.252000      2.252000     0.000000    Cartesian    0.00
     21 z          9.008000      9.008000     0.000000    Cartesian    0.00
     22 x          2.252000      2.252000     0.000000    Cartesian    0.00
     22 y         11.260000     11.260000     0.000000    Cartesian    0.00
     22 z          0.000000      0.000000     0.000000    Cartesian    0.00
     23 x          2.252000      2.252000     0.000000    Cartesian    0.00
     23 y         11.260000     11.260000     0.000000    Cartesian    0.00
     23 z         -2.252000     -2.252000     0.000000    Cartesian   -0.00
     24 x          6.756000      6.756000     0.000000    Cartesian    0.00
     24 y          6.756000      6.756000     0.000000    Cartesian    0.00
     24 z          6.756000      6.756000     0.000000    Cartesian    0.00
     25 x          4.504000      4.504000     0.000000    Cartesian    0.00
     25 y          4.504000      4.504000     0.000000    Cartesian    0.00
     25 z          9.008000      9.008000     0.000000    Cartesian    0.00
     26 x          9.008000      9.008000     0.000000    Cartesian    0.00
     26 y          9.008000      9.008000     0.000000    Cartesian    0.00
     26 z          0.000000      0.000000     0.000000    Cartesian    0.00
     27 x          9.008000      9.008000     0.000000    Cartesian    0.00
     27 y          2.252000      2.252000     0.000000    Cartesian    0.00
     27 z          6.756000      6.756000     0.000000    Cartesian    0.00
     28 x          4.504000      4.504000     0.000000    Cartesian    0.00
     28 y         11.260000     11.260000     0.000000    Cartesian    0.00
     28 z         -2.252000     -2.252000     0.000000    Cartesian   -0.00
     29 x          2.252000      2.252000     0.000000    Cartesian    0.00
     29 y          6.756000      6.756000     0.000000    Cartesian    0.00
     29 z          9.008000      9.008000     0.000000    Cartesian    0.00
     30 x          2.252000      2.252000     0.000000    Cartesian    0.00
     30 y         11.260000     11.260000     0.000000    Cartesian    0.00
     30 z          4.504000      4.504000     0.000000    Cartesian    0.00
     31 x          6.756000      6.756000     0.000000    Cartesian    0.00
     31 y         11.260000     11.260000     0.000000    Cartesian    0.00
     31 z          0.000000      0.000000     0.000000    Cartesian    0.00
     32 x          6.756000      6.756000     0.000000    Cartesian    0.00
     32 y         11.260000     11.260000     0.000000    Cartesian    0.00
     32 z         -2.252000     -2.252000     0.000000    Cartesian   -0.00
     33 x          9.008000      9.008000     0.000000    Cartesian    0.00
     33 y          9.008000      9.008000     0.000000    Cartesian    0.00
     33 z          4.504000      4.504000     0.000000    Cartesian    0.00
     34 x          9.008000      9.008000     0.000000    Cartesian    0.00
     34 y          6.756000      6.756000     0.000000    Cartesian    0.00
     34 z          6.756000      6.756000     0.000000    Cartesian    0.00
     35 x          6.756000      6.756000     0.000000    Cartesian    0.00
     35 y         11.260000     11.260000     0.000000    Cartesian    0.00
     35 z          4.504000      4.504000     0.000000    Cartesian    0.00
     36 x          6.756000      6.756000     0.000000    Cartesian    0.00
     36 y          6.756000      6.756000     0.000000    Cartesian    0.00
     36 z          9.008000      9.008000     0.000000    Cartesian    0.00
     37 x          2.252000      2.252000     0.000000    Cartesian    0.00
     37 y          2.252000      2.252000     0.000000    Cartesian    0.00
     37 z         11.260000     11.260000     0.000000    Cartesian    0.00
     38 x          2.252000      2.252000     0.000000    Cartesian    0.00
     38 y         11.260000     11.260000     0.000000    Cartesian    0.00
     38 z          6.756000      6.756000     0.000000    Cartesian    0.00
     39 x          4.504000      4.504000     0.000000    Cartesian    0.00
     39 y         13.512000     13.512000     0.000000    Cartesian    0.00
     39 z          0.000000      0.000000     0.000000    Cartesian    0.00
     40 x          4.504000      4.504000     0.000000    Cartesian    0.00
     40 y          2.252000      2.252000     0.000000    Cartesian    0.00
     40 z         11.260000     11.260000     0.000000    Cartesian    0.00
     41 x         13.512000     13.512000     0.000000    Cartesian    0.00
     41 y          2.252000      2.252000     0.000000    Cartesian    0.00
     41 z         -2.252000     -2.252000     0.000000    Cartesian   -0.00
     42 x          4.504000      4.504000     0.000000    Cartesian    0.00
     42 y          9.008000      9.008000     0.000000    Cartesian    0.00
     42 z          9.008000      9.008000     0.000000    Cartesian    0.00
     43 x          4.504000      4.504000     0.000000    Cartesian    0.00
     43 y         11.260000     11.260000     0.000000    Cartesian    0.00
     43 z          6.756000      6.756000     0.000000    Cartesian    0.00
     44 x          9.008000      9.008000     0.000000    Cartesian    0.00
     44 y         11.260000     11.260000     0.000000    Cartesian    0.00
     44 z         -2.252000     -2.252000     0.000000    Cartesian   -0.00
     45 x          2.252000      2.252000     0.000000    Cartesian    0.00
     45 y          6.756000      6.756000     0.000000    Cartesian    0.00
     45 z         11.260000     11.260000     0.000000    Cartesian    0.00
     46 x          6.756000      6.756000     0.000000    Cartesian    0.00
     46 y         11.260000     11.260000     0.000000    Cartesian    0.00
     46 z          6.756000      6.756000     0.000000    Cartesian    0.00
     47 x          4.504000      4.504000     0.000000    Cartesian    0.00
     47 y         13.512000     13.512000     0.000000    Cartesian    0.00
     47 z          4.504000      4.504000     0.000000    Cartesian    0.00
     48 x          4.504000      4.504000     0.000000    Cartesian    0.00
     48 y          6.756000      6.756000     0.000000    Cartesian    0.00
     48 z         11.260000     11.260000     0.000000    Cartesian    0.00
     49 x         13.512000     13.512000     0.000000    Cartesian    0.00
     49 y          6.756000      6.756000     0.000000    Cartesian    0.00
     49 z         -2.252000     -2.252000     0.000000    Cartesian   -0.00
     50 x          2.252000      2.252000     0.000000    Cartesian    0.00
     50 y         11.260000     11.260000     0.000000    Cartesian    0.00
     50 z          9.008000      9.008000     0.000000    Cartesian    0.00
     51 x         11.260000     11.260000     0.000000    Cartesian    0.00
     51 y         11.260000     11.260000     0.000000    Cartesian    0.00
     51 z          0.000000      0.000000     0.000000    Cartesian    0.00
     52 x          6.756000      6.756000     0.000000    Cartesian    0.00
     52 y          6.756000      6.756000     0.000000    Cartesian    0.00
     52 z         11.260000     11.260000     0.000000    Cartesian    0.00
     53 x         11.260000     11.260000     0.000000    Cartesian    0.00
     53 y         11.260000     11.260000     0.000000    Cartesian    0.00
     53 z         -2.252000     -2.252000     0.000000    Cartesian   -0.00
     54 x          2.252000      2.252000     0.000000    Cartesian    0.00
     54 y          2.252000      2.252000     0.000000    Cartesian    0.00
     54 z         -2.252000     -2.252000     0.000000    Cartesian   -0.00
     55 x          4.504000      4.504000     0.000000    Cartesian    0.00
     55 y          4.504000      4.504000     0.000000    Cartesian    0.00
     55 z          0.000000      0.000000     0.000000    Cartesian    0.00
     56 x          2.252000      2.252000     0.000000    Cartesian    0.00
     56 y          6.756000      6.756000     0.000000    Cartesian    0.00
     56 z         -2.252000     -2.252000     0.000000    Cartesian   -0.00
     57 x          4.504000      4.504000     0.000000    Cartesian    0.00
     57 y          4.504000      4.504000     0.000000    Cartesian    0.00
     57 z          4.504000      4.504000     0.000000    Cartesian    0.00
     58 x          2.252000      2.252000     0.000000    Cartesian    0.00
     58 y          2.252000      2.252000     0.000000    Cartesian    0.00
     58 z          6.756000      6.756000     0.000000    Cartesian    0.00
     59 x          6.756000      6.756000     0.000000    Cartesian    0.00
     59 y          6.756000      6.756000     0.000000    Cartesian    0.00
     59 z         -2.252000     -2.252000     0.000000    Cartesian   -0.00
     60 x          4.504000      4.504000     0.000000    Cartesian    0.00
     60 y          9.008000      9.008000     0.000000    Cartesian    0.00
     60 z          0.000000      0.000000     0.000000    Cartesian    0.00
     61 x          2.252000      2.252000     0.000000    Cartesian    0.00
     61 y          6.756000      6.756000     0.000000    Cartesian    0.00
     61 z          6.756000      6.756000     0.000000    Cartesian    0.00
     62 x          4.504000      4.504000     0.000000    Cartesian    0.00
     62 y          9.008000      9.008000     0.000000    Cartesian    0.00
     62 z          4.504000      4.504000     0.000000    Cartesian    0.00
     63 x          2.252000      2.252000     0.000000    Cartesian    0.00
     63 y         11.260000     11.260000     0.000000    Cartesian    0.00
     63 z         -2.252000     -2.252000     0.000000    Cartesian   -0.00
     64 x          6.756000      6.756000     0.000000    Cartesian    0.00
     64 y          6.756000      6.756000     0.000000    Cartesian    0.00
     64 z          6.756000      6.756000     0.000000    Cartesian    0.00
     65 x          4.504000      4.504000     0.000000    Cartesian    0.00
     65 y          4.504000      4.504000     0.000000    Cartesian    0.00
     65 z          9.008000      9.008000     0.000000    Cartesian    0.00
     66 x          9.008000      9.008000     0.000000    Cartesian    0.00
     66 y          9.008000      9.008000     0.000000    Cartesian    0.00
     66 z          0.000000      0.000000     0.000000    Cartesian    0.00
     67 x          6.756000      6.756000     0.000000    Cartesian    0.00
     67 y         11.260000     11.260000     0.000000    Cartesian    0.00
     67 z         -2.252000     -2.252000     0.000000    Cartesian   -0.00
     68 x          9.008000      9.008000     0.000000    Cartesian    0.00
     68 y          9.008000      9.008000     0.000000    Cartesian    0.00
     68 z          4.504000      4.504000     0.000000    Cartesian    0.00
     69 x          2.252000      2.252000     0.000000    Cartesian    0.00
     69 y          2.252000      2.252000     0.000000    Cartesian    0.00
     69 z         11.260000     11.260000     0.000000    Cartesian    0.00
     70 x          2.252000      2.252000     0.000000    Cartesian    0.00
     70 y         11.260000     11.260000     0.000000    Cartesian    0.00
     70 z          6.756000      6.756000     0.000000    Cartesian    0.00
     71 x          4.504000      4.504000     0.000000    Cartesian    0.00
     71 y         13.512000     13.512000     0.000000    Cartesian    0.00
     71 z          0.000000      0.000000     0.000000    Cartesian    0.00
     72 x          4.504000      4.504000     0.000000    Cartesian    0.00
     72 y          9.008000      9.008000     0.000000    Cartesian    0.00
     72 z          9.008000      9.008000     0.000000    Cartesian    0.00
     73 x          2.252000      2.252000     0.000000    Cartesian    0.00
     73 y          6.756000      6.756000     0.000000    Cartesian    0.00
     73 z         11.260000     11.260000     0.000000    Cartesian    0.00
     74 x          6.756000      6.756000     0.000000    Cartesian    0.00
     74 y         11.260000     11.260000     0.000000    Cartesian    0.00
     74 z          6.756000      6.756000     0.000000    Cartesian    0.00
     75 x          4.504000      4.504000     0.000000    Cartesian    0.00
     75 y         13.512000     13.512000     0.000000    Cartesian    0.00
     75 z          4.504000      4.504000     0.000000    Cartesian    0.00
     76 x          6.756000      6.756000     0.000000    Cartesian    0.00
     76 y          6.756000      6.756000     0.000000    Cartesian    0.00
     76 z         11.260000     11.260000     0.000000    Cartesian    0.00
     77 x         11.260000     11.260000     0.000000    Cartesian    0.00
     77 y         11.260000     11.260000     0.000000    Cartesian    0.00
     77 z         -2.252000     -2.252000     0.000000    Cartesian   -0.00
--------------------------------------------------------------------------------


  Time to end of optimisation  =        1.4220 seconds


  Peak dynamic memory used =      18.46 MB 


  Timing analysis for GULP :

--------------------------------------------------------------------------------
  Task / Subroutine                                          Time (Seconds)
--------------------------------------------------------------------------------
  Calculation for region 1 energy and derivatives (2-b)           0.8581
  Calculation for region 2a energy                                0.4463
  Symmetry generation of equivalent positions                     0.0026
--------------------------------------------------------------------------------
  Total CPU time                                                  1.4220
--------------------------------------------------------------------------------



  **** GULP has completed with 1 warning - beware! ****

  Job Finished at 14:16.47 30th December   2020                               

