********************************************************************************
*                       GENERAL UTILITY LATTICE PROGRAM                        *
*                                 Julian Gale                                  *
*                       Curtin Institute for Computation                       *
*                    School of Molecular and Life Sciences                     *
*                    Curtin University, Western Australia                      *
********************************************************************************
* Version = 5.2.0 * Last modified =  10th September 2020                       *
********************************************************************************
*  optimise     - perform optimisation run                                     *
*  conp         - constant pressure calculation                                *
*  property     - calculate properties for final geometry                      *
*  defect       - perform defect calculation after bulk run                    *
*  compare      - compare initial and final structures                         *
********************************************************************************

  Job Started  at 14:16.45 30th December   2020                               

  Number of CPUs =     1


  Total number of configurations input =      1

********************************************************************************
*  Input for Configuration =   1                                               *
********************************************************************************

  Formula = ClONa3                                                      

  Number of irreducible atoms/shells =       5


  Total number atoms/shells =       7

  Dimensionality = 3               :  Bulk   


  Symmetry :

  Crystal family                   :  Cubic       
  Crystal class  (Groth - 1921)    :  Cubic Hexakisoctahedral              

  Space group (centrosymmetric)    :  P M 3 M         

  Patterson group                  :  P m -3 m 

  Cartesian lattice vectors (Angstroms) :

        4.504000    0.000000    0.000000
        0.000000    4.504000    0.000000
        0.000000    0.000000    4.504000

  Cell parameters (Angstroms/Degrees):

  a =       4.5040    alpha =  90.0000
  b =       4.5040    beta  =  90.0000
  c =       4.5040    gamma =  90.0000

  Initial cell volume =          91.368216 Angs**3

  Temperature of configuration =   0.00     K 

  Pressure of configuration =         0.000 GPa 

  Fractional coordinates of asymmetric unit :

--------------------------------------------------------------------------------
   No.  Atomic       x           y          z         Charge      Occupancy
        Label      (Frac)      (Frac)     (Frac)        (e)         (Frac)  
--------------------------------------------------------------------------------
      1 Cl    c    0.000000    0.000000    0.000000     0.00000    1.000000    
      2 O     c    0.500000    0.500000    0.500000     0.00000    1.000000    
      3 Na    c    0.500000    0.500000    0.000000     0.00000    1.000000    
      4 Cl    s    0.000000    0.000000    0.000000     0.00000    1.000000    
      5 O     s    0.500000    0.500000    0.500000     0.00000    1.000000    
--------------------------------------------------------------------------------


  Constraints : 

--------------------------------------------------------------------------------
  Constraint no.      Unconstrained     Constrained    Coefficient    Offset
                         Variable         Variable
--------------------------------------------------------------------------------
           1              Strain 1        Strain 2       1.00000      0.0000
           2              Strain 1        Strain 3       1.00000      0.0000
--------------------------------------------------------------------------------


********************************************************************************
*  General input information                                                   *
********************************************************************************

  Species output for all configurations : 

--------------------------------------------------------------------------------
  Species    Type    Atomic    Atomic    Charge       Radii (Angs)     Library
                     Number     Mass       (e)     Cova   Ionic  VDW   Symbol
--------------------------------------------------------------------------------
    Cl       Core       17      35.45   0.000000   0.990  0.000  1.650          
    O        Core        8      16.00   0.000000   0.730  0.000  1.360          
    Cl       Shell      17       0.00   0.000000   0.990  0.000  1.650          
    O        Shell       8       0.00   0.000000   0.730  0.000  1.360          
    Na       Core       11      22.99   0.000000   0.970  0.000  2.300          
--------------------------------------------------------------------------------


  Lattice summation method               =    Ewald          (3-D)
                                         =    Parry          (2-D)
                                         =    Saunders et al (1-D)
  Accuracy factor for lattice sums       =   12.000


  Analytic derivatives to be used

  Time limit = Infinity

********************************************************************************
*  Output for configuration   1                                                *
********************************************************************************


  Components of energy : 

--------------------------------------------------------------------------------
  Interatomic potentials     =           0.00000000 eV    
  Monopole - monopole (real) =           0.00000000 eV    
  Monopole - monopole (recip)=           0.00000000 eV    
  Monopole - monopole (total)=           0.00000000 eV    
--------------------------------------------------------------------------------
  Total lattice energy       =           0.00000000 eV    
--------------------------------------------------------------------------------
  Total lattice energy       =               0.0000 kJ/(mole unit cells)
--------------------------------------------------------------------------------


  Number of variables =        1

  Maximum number of calculations  =          1000
  Maximum Hessian update interval =            10
  Maximum step size               =   1.000000000
  Maximum parameter tolerance     =   0.000010000
  Maximum function  tolerance     =   0.000010000
  Maximum gradient  tolerance     =   0.001000000
  Maximum gradient  component     =   0.010000000

  Symmetry constrained optimisation

  Symmetry used for second derivatives

  Cell parameters to be optimised using strains

  Newton-Raphson optimiser to be used

  BFGS hessian update to be used

  Lower half triangular hessian to be used

  Start of bulk optimisation :

  Cycle:      0 Energy:         0.000000  Gnorm:      0.000000  CPU:    0.004


  **** Optimisation achieved ****


  Final energy =       0.00000000 eV
  Final Gnorm  =       0.00000000

  Components of energy : 

--------------------------------------------------------------------------------
  Interatomic potentials     =           0.00000000 eV    
  Monopole - monopole (real) =           0.00000000 eV    
  Monopole - monopole (recip)=           0.00000000 eV    
  Monopole - monopole (total)=           0.00000000 eV    
--------------------------------------------------------------------------------
  Total lattice energy       =           0.00000000 eV    
--------------------------------------------------------------------------------
  Total lattice energy       =               0.0000 kJ/(mole unit cells)
--------------------------------------------------------------------------------

  Final asymmetric unit coordinates :

--------------------------------------------------------------------------------
   No.  Atomic        x           y           z         Radius
        Label       (Frac)      (Frac)      (Frac)       (Angs) 
--------------------------------------------------------------------------------
     1  Cl    c     0.000000    0.000000    0.000000    0.000000
     2  O     c     0.500000    0.500000    0.500000    0.000000
     3  Na    c     0.500000    0.500000    0.000000    0.000000
     4  Cl    s     0.000000    0.000000    0.000000    0.000000
     5  O     s     0.500000    0.500000    0.500000    0.000000
--------------------------------------------------------------------------------

  Final Cartesian lattice vectors (Angstroms) :

        4.504000    0.000000    0.000000
        0.000000    4.504000    0.000000
        0.000000    0.000000    4.504000


  Final cell parameters and derivatives :

--------------------------------------------------------------------------------
       a            4.504000 Angstrom     dE/de1(xx)     0.000000 eV/strain
       b            4.504000 Angstrom     dE/de2(yy)     0.000000 eV/strain
       c            4.504000 Angstrom     dE/de3(zz)     0.000000 eV/strain
       alpha       90.000000 Degrees      dE/de4(yz)     0.000000 eV/strain
       beta        90.000000 Degrees      dE/de5(xz)     0.000000 eV/strain
       gamma       90.000000 Degrees      dE/de6(xy)     0.000000 eV/strain
--------------------------------------------------------------------------------

  Primitive cell volume =            91.368216 Angs**3

  Density of cell =      2.188565 g/cm**3

  Non-primitive cell volume =            91.368216 Angs**3


  Final internal derivatives :

--------------------------------------------------------------------------------
   No.  Atomic          a             b             c           Radius
        Label          (eV)          (eV)          (eV)        (eV/Angs)
--------------------------------------------------------------------------------
      1 Cl    c       0.000000      0.000000      0.000000      0.000000
      2 O     c       0.000000      0.000000      0.000000      0.000000
      3 Na    c       0.000000      0.000000      0.000000      0.000000
      4 Cl    s       0.000000      0.000000      0.000000      0.000000
      5 O     s       0.000000      0.000000      0.000000      0.000000
--------------------------------------------------------------------------------
  Maximum abs         0.000000      0.000000      0.000000      0.000000
--------------------------------------------------------------------------------

  Comparison of initial and final structures : 

--------------------------------------------------------------------------------
  Parameter   Initial value   Final value   Difference    Units      Percent
--------------------------------------------------------------------------------
    Volume        91.368216     91.368216     0.000000    Angs**3      0.00
    a              4.504000      4.504000     0.000000    Angstroms    0.00
    b              4.504000      4.504000     0.000000    Angstroms    0.00
    c              4.504000      4.504000     0.000000    Angstroms    0.00
    alpha         90.000000     90.000000     0.000000    Degrees      0.00
    beta          90.000000     90.000000     0.000000    Degrees      0.00
    gamma         90.000000     90.000000     0.000000    Degrees      0.00
      1 x          0.000000      0.000000     0.000000    Fractional   0.00
      1 y          0.000000      0.000000     0.000000    Fractional   0.00
      1 z          0.000000      0.000000     0.000000    Fractional   0.00
      2 x          0.500000      0.500000     0.000000    Fractional   0.00
      2 y          0.500000      0.500000     0.000000    Fractional   0.00
      2 z          0.500000      0.500000     0.000000    Fractional   0.00
      3 x          0.500000      0.500000     0.000000    Fractional   0.00
      3 y          0.500000      0.500000     0.000000    Fractional   0.00
      3 z          0.000000      0.000000     0.000000    Fractional   0.00
      4 x          0.000000      0.000000     0.000000    Fractional   0.00
      4 y          0.000000      0.000000     0.000000    Fractional   0.00
      4 z          0.000000      0.000000     0.000000    Fractional   0.00
      5 x          0.500000      0.500000     0.000000    Fractional   0.00
      5 y          0.500000      0.500000     0.000000    Fractional   0.00
      5 z          0.500000      0.500000     0.000000    Fractional   0.00
--------------------------------------------------------------------------------



!!!!!!!!!!!!!!!!!!!!!!!!!!!!!!!!!!!!!!!!!!!!!!!!!!!!!!!!!!!!!!!!!!!!!!!!!!!!!!!!
!! WARNING : Properties cannot be calculated - matrix is singular
!!!!!!!!!!!!!!!!!!!!!!!!!!!!!!!!!!!!!!!!!!!!!!!!!!!!!!!!!!!!!!!!!!!!!!!!!!!!!!!!


  Time to end of optimisation =       0.0039 seconds

********************************************************************************
*  Defect calculation for configuration   1 :                                  *
********************************************************************************

  Total number of defects =      1

  Total charge on defect  =   0.00

  Defect centre is at   0.5000   0.5000   0.0000  Frac

  Region 1 radius =  18.0000      Number of ions =   1834

  Number of symmetry inequivalent region 1 ions  =    176

  Region 2 radius =  24.0000      Number of ions =   2564

  Number of symmetry inequivalent region 2a ions =    208

  Region 2a mode = 4 : screened electrostatics due to region 1 
                       neglect correction to region 1 forces from 2a
                       region 2a displacements based on defects only

  Region 2a ions will only interact with defects in region 1

  Vacancies:

--------------------------------------------------------------------------------
    Specification type     Symbol/Number         x          y          z
--------------------------------------------------------------------------------
    Fractional                               0.500000   0.500000   0.000000
--------------------------------------------------------------------------------


  Symmetry reduced region 1 (Relative to defect centre) :

--------------------------------------------------------------------------------
   No.   Atomic       x            y             z       Radius  Multiplicity   
         Label      (Angs)       (Angs)        (Angs)    (Angs)     
--------------------------------------------------------------------------------
     1  O     c      0.0000       0.0000      -2.2520 *  0.0000     2          
     2  Cl    c      2.2520 *     2.2520       0.0000    0.0000     4          
     3  Na    c      2.2520 *     0.0000      -2.2520 *  0.0000     8          
     4  Na    c      0.0000       0.0000       4.5040 *  0.0000     2          
     5  Na    c      0.0000       4.5040 *     0.0000    0.0000     4          
     6  O     c      0.0000       4.5040 *    -2.2520 *  0.0000     8          
     7  Na    c      2.2520 *     4.5040 *    -2.2520 *  0.0000    16          
     8  Cl    c      2.2520 *     2.2520       4.5040 *  0.0000     8          
     9  Na    c      0.0000       4.5040 *     4.5040 *  0.0000     8          
    10  Na    c      4.5040 *     4.5040       0.0000    0.0000     4          
    11  O     c      0.0000       0.0000       6.7560 *  0.0000     2          
    12  O     c      4.5040 *     4.5040      -2.2520 *  0.0000     8          
    13  Cl    c      2.2520 *     6.7560 *     0.0000    0.0000     8          
    14  Na    c      2.2520 *     0.0000       6.7560 *  0.0000     8          
    15  Na    c      6.7560 *     0.0000      -2.2520 *  0.0000     8          
    16  Na    c      4.5040 *     4.5040       4.5040 *  0.0000     8          
    17  O     c      0.0000       4.5040 *     6.7560 *  0.0000     8          
    18  Cl    c      2.2520 *     6.7560 *     4.5040 *  0.0000    16          
    19  Na    c      2.2520 *     4.5040 *     6.7560 *  0.0000    16          
    20  Na    c      6.7560 *     4.5040 *    -2.2520 *  0.0000    16          
    21  Na    c      0.0000       0.0000       9.0080 *  0.0000     2          
    22  Na    c      0.0000       9.0080 *     0.0000    0.0000     4          
    23  O     c      0.0000       9.0080 *    -2.2520 *  0.0000     8          
    24  O     c      4.5040 *     4.5040       6.7560 *  0.0000     8          
    25  Cl    c      2.2520 *     2.2520       9.0080 *  0.0000     8          
    26  Cl    c      6.7560 *     6.7560       0.0000    0.0000     4          
    27  Na    c      6.7560 *     0.0000       6.7560 *  0.0000     8          
    28  Na    c      2.2520 *     9.0080 *    -2.2520 *  0.0000    16          
    29  Na    c      0.0000       4.5040 *     9.0080 *  0.0000     8          
    30  Na    c      0.0000       9.0080 *     4.5040 *  0.0000     8          
    31  Na    c      4.5040 *     9.0080 *     0.0000    0.0000     8          
    32  O     c      4.5040 *     9.0080 *    -2.2520 *  0.0000    16          
    33  Cl    c      6.7560 *     6.7560       4.5040 *  0.0000     8          
    34  Na    c      6.7560 *     4.5040 *     6.7560 *  0.0000    16          
    35  Na    c      4.5040 *     9.0080 *     4.5040 *  0.0000    16          
    36  Na    c      4.5040 *     4.5040       9.0080 *  0.0000     8          
    37  O     c      0.0000       0.0000      11.2600 *  0.0000     2          
    38  O     c      0.0000       9.0080 *     6.7560 *  0.0000     8          
    39  Cl    c      2.2520 *    11.2600 *     0.0000    0.0000     8          
    40  Na    c      2.2520 *     0.0000      11.2600 *  0.0000     8          
    41  Na    c     11.2600 *     0.0000      -2.2520 *  0.0000     8          
    42  Cl    c      2.2520 *     6.7560 *     9.0080 *  0.0000    16          
    43  Na    c      2.2520 *     9.0080 *     6.7560 *  0.0000    16          
    44  Na    c      6.7560 *     9.0080 *    -2.2520 *  0.0000    16          
    45  O     c      0.0000       4.5040 *    11.2600 *  0.0000     8          
    46  O     c      4.5040 *     9.0080 *     6.7560 *  0.0000    16          
    47  Cl    c      2.2520 *    11.2600 *     4.5040 *  0.0000    16          
    48  Na    c      2.2520 *     4.5040 *    11.2600 *  0.0000    16          
    49  Na    c     11.2600 *     4.5040 *    -2.2520 *  0.0000    16          
    50  Na    c      0.0000       9.0080 *     9.0080 *  0.0000     8          
    51  Na    c      9.0080 *     9.0080       0.0000    0.0000     4          
    52  O     c      4.5040 *     4.5040      11.2600 *  0.0000     8          
    53  O     c      9.0080 *     9.0080      -2.2520 *  0.0000     8          
    54  Cl    c      6.7560 *    11.2600 *     0.0000    0.0000     8          
    55  Na    c      6.7560 *     0.0000      11.2600 *  0.0000     8          
    56  Na    c      6.7560 *     9.0080 *     6.7560 *  0.0000    16          
    57  Na    c     11.2600 *     0.0000       6.7560 *  0.0000     8          
    58  Cl    c      6.7560 *     6.7560       9.0080 *  0.0000     8          
    59  Na    c      0.0000     -13.5120 *     0.0000    0.0000     4          
    60  Na    c      0.0000       0.0000      13.5120 *  0.0000     2          
    61  Na    c      4.5040 *     9.0080 *     9.0080 *  0.0000    16          
    62  Na    c      9.0080 *     9.0080       4.5040 *  0.0000     8          
    63  O     c      0.0000     -13.5120 *    -2.2520 *  0.0000     8          
    64  Na    c      2.2520 *   -13.5120 *    -2.2520 *  0.0000    16          
    65  Cl    c      6.7560 *    11.2600 *     4.5040 *  0.0000    16          
    66  Na    c      6.7560 *     4.5040 *    11.2600 *  0.0000    16          
    67  Na    c     11.2600 *     4.5040 *     6.7560 *  0.0000    16          
    68  Cl    c      2.2520 *     2.2520      13.5120 *  0.0000     8          
    69  Na    c      0.0000     -13.5120 *     4.5040 *  0.0000     8          
    70  Na    c      4.5040 *   -13.5120 *     0.0000    0.0000     8          
    71  Na    c      0.0000       4.5040 *    13.5120 *  0.0000     8          
    72  O     c      4.5040 *   -13.5120 *    -2.2520 *  0.0000    16          
    73  O     c      0.0000       9.0080 *    11.2600 *  0.0000     8          
    74  O     c      9.0080 *     9.0080       6.7560 *  0.0000     8          
    75  Cl    c      2.2520 *    11.2600 *     9.0080 *  0.0000    16          
    76  Na    c      2.2520 *     9.0080 *    11.2600 *  0.0000    16          
    77  Na    c     11.2600 *     9.0080 *    -2.2520 *  0.0000    16          
    78  Na    c      4.5040 *   -13.5120 *     4.5040 *  0.0000    16          
    79  Na    c      4.5040 *     4.5040      13.5120 *  0.0000     8          
    80  O     c      0.0000     -13.5120 *     6.7560 *  0.0000     8          
    81  O     c      4.5040 *     9.0080 *    11.2600 *  0.0000    16          
    82  Na    c      2.2520 *   -13.5120 *     6.7560 *  0.0000    16          
    83  Na    c      6.7560 *   -13.5120 *    -2.2520 *  0.0000    16          
    84  Cl    c      2.2520 *     6.7560 *    13.5120 *  0.0000    16          
    85  Na    c      9.0080 *     9.0080       9.0080 *  0.0000     8          
    86  O     c      4.5040 *   -13.5120 *     6.7560 *  0.0000    16          
    87  O     c      0.0000       0.0000      15.7640 *  0.0000     2          
    88  Cl    c      2.2520 *   -15.7640 *     0.0000    0.0000     8          
    89  Na    c    -15.7640 *     0.0000      -2.2520 *  0.0000     8          
    90  Cl    c     11.2600 *    11.2600       0.0000    0.0000     4          
    91  Na    c     11.2600 *     0.0000      11.2600 *  0.0000     8          
    92  Cl    c      6.7560 *    11.2600 *     9.0080 *  0.0000    16          
    93  Na    c      2.2520 *     0.0000      15.7640 *  0.0000     8          
    94  Na    c      6.7560 *     9.0080 *    11.2600 *  0.0000    16          
    95  Na    c     11.2600 *     9.0080 *     6.7560 *  0.0000    16          
    96  Na    c      0.0000     -13.5120 *     9.0080 *  0.0000     8          
    97  Na    c      9.0080 *   -13.5120 *     0.0000    0.0000     8          
    98  Na    c      0.0000       9.0080 *    13.5120 *  0.0000     8          
    99  O     c      9.0080 *   -13.5120 *    -2.2520 *  0.0000    16          
   100  O     c      0.0000       4.5040 *    15.7640 *  0.0000     8          
   101  Cl    c      2.2520 *   -15.7640 *     4.5040 *  0.0000    16          
   102  Cl    c     11.2600 *    11.2600       4.5040 *  0.0000     8          
   103  Na    c      2.2520 *     4.5040 *    15.7640 *  0.0000    16          
   104  Na    c      6.7560 *   -13.5120 *     6.7560 *  0.0000    16          
   105  Na    c     11.2600 *     4.5040 *    11.2600 *  0.0000    16          
   106  Na    c    -15.7640 *     4.5040 *    -2.2520 *  0.0000    16          
   107  Cl    c      6.7560 *     6.7560      13.5120 *  0.0000     8          
   108  Na    c      4.5040 *     9.0080 *    13.5120 *  0.0000    16          
   109  Na    c      4.5040 *   -13.5120 *     9.0080 *  0.0000    16          
   110  Na    c      9.0080 *   -13.5120 *     4.5040 *  0.0000    16          
   111  O     c      4.5040 *     4.5040      15.7640 *  0.0000     8          
   112  O     c      9.0080 *     9.0080      11.2600 *  0.0000     8          
   113  Cl    c      6.7560 *   -15.7640 *     0.0000    0.0000     8          
   114  Na    c    -15.7640 *     0.0000       6.7560 *  0.0000     8          
   115  Na    c      6.7560 *     0.0000      15.7640 *  0.0000     8          
   116  O     c      0.0000     -13.5120 *    11.2600 *  0.0000     8          
   117  O     c      9.0080 *   -13.5120 *     6.7560 *  0.0000    16          
   118  Cl    c      6.7560 *   -15.7640 *     4.5040 *  0.0000    16          
   119  Na    c      2.2520 *   -13.5120 *    11.2600 *  0.0000    16          
   120  Na    c     11.2600 *   -13.5120 *    -2.2520 *  0.0000    16          
   121  Na    c    -15.7640 *     4.5040 *     6.7560 *  0.0000    16          
   122  Cl    c      2.2520 *    11.2600 *    13.5120 *  0.0000    16          
   123  Na    c      6.7560 *     4.5040 *    15.7640 *  0.0000    16          
   124  O     s      0.0000       0.0000      -2.2520 *  0.0000     2          
   125  Cl    s      2.2520 *     2.2520       0.0000    0.0000     4          
   126  O     s      0.0000       4.5040 *    -2.2520 *  0.0000     8          
   127  Cl    s      2.2520 *     2.2520       4.5040 *  0.0000     8          
   128  O     s      0.0000       0.0000       6.7560 *  0.0000     2          
   129  O     s      4.5040 *     4.5040      -2.2520 *  0.0000     8          
   130  Cl    s      2.2520 *     6.7560 *     0.0000    0.0000     8          
   131  O     s      0.0000       4.5040 *     6.7560 *  0.0000     8          
   132  Cl    s      2.2520 *     6.7560 *     4.5040 *  0.0000    16          
   133  O     s      0.0000       9.0080 *    -2.2520 *  0.0000     8          
   134  O     s      4.5040 *     4.5040       6.7560 *  0.0000     8          
   135  Cl    s      2.2520 *     2.2520       9.0080 *  0.0000     8          
   136  Cl    s      6.7560 *     6.7560       0.0000    0.0000     4          
   137  O     s      4.5040 *     9.0080 *    -2.2520 *  0.0000    16          
   138  Cl    s      6.7560 *     6.7560       4.5040 *  0.0000     8          
   139  O     s      0.0000       0.0000      11.2600 *  0.0000     2          
   140  O     s      0.0000       9.0080 *     6.7560 *  0.0000     8          
   141  Cl    s      2.2520 *    11.2600 *     0.0000    0.0000     8          
   142  Cl    s      2.2520 *     6.7560 *     9.0080 *  0.0000    16          
   143  O     s      0.0000       4.5040 *    11.2600 *  0.0000     8          
   144  O     s      4.5040 *     9.0080 *     6.7560 *  0.0000    16          
   145  Cl    s      2.2520 *    11.2600 *     4.5040 *  0.0000    16          
   146  O     s      4.5040 *     4.5040      11.2600 *  0.0000     8          
   147  O     s      9.0080 *     9.0080      -2.2520 *  0.0000     8          
   148  Cl    s      6.7560 *    11.2600 *     0.0000    0.0000     8          
   149  Cl    s      6.7560 *     6.7560       9.0080 *  0.0000     8          
   150  O     s      0.0000     -13.5120 *    -2.2520 *  0.0000     8          
   151  Cl    s      6.7560 *    11.2600 *     4.5040 *  0.0000    16          
   152  Cl    s      2.2520 *     2.2520      13.5120 *  0.0000     8          
   153  O     s      4.5040 *   -13.5120 *    -2.2520 *  0.0000    16          
   154  O     s      0.0000       9.0080 *    11.2600 *  0.0000     8          
   155  O     s      9.0080 *     9.0080       6.7560 *  0.0000     8          
   156  Cl    s      2.2520 *    11.2600 *     9.0080 *  0.0000    16          
   157  O     s      0.0000     -13.5120 *     6.7560 *  0.0000     8          
   158  O     s      4.5040 *     9.0080 *    11.2600 *  0.0000    16          
   159  Cl    s      2.2520 *     6.7560 *    13.5120 *  0.0000    16          
   160  O     s      4.5040 *   -13.5120 *     6.7560 *  0.0000    16          
   161  O     s      0.0000       0.0000      15.7640 *  0.0000     2          
   162  Cl    s      2.2520 *   -15.7640 *     0.0000    0.0000     8          
   163  Cl    s     11.2600 *    11.2600       0.0000    0.0000     4          
   164  Cl    s      6.7560 *    11.2600 *     9.0080 *  0.0000    16          
   165  O     s      9.0080 *   -13.5120 *    -2.2520 *  0.0000    16          
   166  O     s      0.0000       4.5040 *    15.7640 *  0.0000     8          
   167  Cl    s      2.2520 *   -15.7640 *     4.5040 *  0.0000    16          
   168  Cl    s     11.2600 *    11.2600       4.5040 *  0.0000     8          
   169  Cl    s      6.7560 *     6.7560      13.5120 *  0.0000     8          
   170  O     s      4.5040 *     4.5040      15.7640 *  0.0000     8          
   171  O     s      9.0080 *     9.0080      11.2600 *  0.0000     8          
   172  Cl    s      6.7560 *   -15.7640 *     0.0000    0.0000     8          
   173  O     s      0.0000     -13.5120 *    11.2600 *  0.0000     8          
   174  O     s      9.0080 *   -13.5120 *     6.7560 *  0.0000    16          
   175  Cl    s      6.7560 *   -15.7640 *     4.5040 *  0.0000    16          
   176  Cl    s      2.2520 *    11.2600 *    13.5120 *  0.0000    16          
--------------------------------------------------------------------------------


  Constraints on symmetry reduced coordinates :

--------------------------------------------------------------------------------
  Constraint no.      Unconstrained     Constrained    Coefficient    
                         Variable         Variable
--------------------------------------------------------------------------------
           1                 2 x             2 y         1.00000
           2                 8 x             8 y         1.00000
           3                10 x            10 y         1.00000
           4                12 x            12 y         1.00000
           5                16 x            16 y         1.00000
           6                24 x            24 y         1.00000
           7                25 x            25 y         1.00000
           8                26 x            26 y         1.00000
           9                33 x            33 y         1.00000
          10                36 x            36 y         1.00000
          11                51 x            51 y         1.00000
          12                52 x            52 y         1.00000
          13                53 x            53 y         1.00000
          14                58 x            58 y         1.00000
          15                62 x            62 y         1.00000
          16                68 x            68 y         1.00000
          17                74 x            74 y         1.00000
          18                79 x            79 y         1.00000
          19                85 x            85 y         1.00000
          20                90 x            90 y         1.00000
          21               102 x           102 y         1.00000
          22               107 x           107 y         1.00000
          23               111 x           111 y         1.00000
          24               112 x           112 y         1.00000
          25               125 x           125 y         1.00000
          26               127 x           127 y         1.00000
          27               129 x           129 y         1.00000
          28               134 x           134 y         1.00000
          29               135 x           135 y         1.00000
          30               136 x           136 y         1.00000
          31               138 x           138 y         1.00000
          32               146 x           146 y         1.00000
          33               147 x           147 y         1.00000
          34               149 x           149 y         1.00000
          35               152 x           152 y         1.00000
          36               155 x           155 y         1.00000
          37               163 x           163 y         1.00000
          38               168 x           168 y         1.00000
          39               169 x           169 y         1.00000
          40               170 x           170 y         1.00000
          41               171 x           171 y         1.00000
--------------------------------------------------------------------------------


  Components of defect energy : 

--------------------------------------------------------------------------------
  Region 1 - region 1                   =      0.00000000 eV
  Region 1 - region 2a (unrelaxed)      =      0.00000000 eV
  Region 1 - 2a (relaxed - correction)  =      0.00000000 eV
  Region 1 (Total)                      =      0.00000000 eV
  Region 2a                             =      0.00000000 eV
  Region 2b                             =      0.00000000 eV
--------------------------------------------------------------------------------
  Total defect energy                   =      0.00000000 eV
--------------------------------------------------------------------------------


  Number of variables =      397

  Maximum number of calculations  =        1000
  Maximum Hessian update interval =          10
  Maximum step size               =   1.0000000
  Maximum parameter tolerance     =   0.0000100
  Maximum function  tolerance     =   0.0000100
  Maximum gradient  tolerance     =   0.0010000

  Symmetry adapted optimisation

  Symmetry to be used for second derivatives

  Newton-Raphson optimiser to be used

  BFGS hessian update to be used

  Lower half triangular hessian to be used

  Start of defect optimisation :

  Cycle:      0 Defect Energy:   0.000000  Gnorm:     0.000000  CPU:    5.521


  **** Optimisation achieved ****


  Final defect energy  =        0.00000000
  Final defect Gnorm   =        0.00000000

  Components of defect energy : 

--------------------------------------------------------------------------------
  Region 1 - region 1                   =      0.00000000 eV
  Region 1 - region 2a (unrelaxed)      =      0.00000000 eV
  Region 1 - 2a (relaxed - correction)  =      0.00000000 eV
  Region 1 (Total)                      =      0.00000000 eV
  Region 2a                             =      0.00000000 eV
  Region 2b                             =      0.00000000 eV
--------------------------------------------------------------------------------
  Total defect energy                   =      0.00000000 eV
--------------------------------------------------------------------------------

  Final coordinates of region 1 :

--------------------------------------------------------------------------------
   No.  Atomic        x           y           z          Radius      Charge
        Label       (Angs)      (Angs)      (Angs)       (Angs)       (e) 
--------------------------------------------------------------------------------
     1  O     c     2.252000    2.252000   -2.252000    0.000000    0.000000
     2  O     c     2.252000    2.252000    2.252000    0.000000    0.000000
     3  Cl    c     4.504000    4.504000    0.000000    0.000000    0.000000
     4  Cl    c     4.504000    0.000000    0.000000    0.000000    0.000000
     5  Cl    c     0.000000    4.504000    0.000000    0.000000    0.000000
     6  Cl    c     0.000000    0.000000    0.000000    0.000000    0.000000
     7  Na    c     4.504000    2.252000   -2.252000    0.000000    0.000000
     8  Na    c     4.504000    2.252000    2.252000    0.000000    0.000000
     9  Na    c     0.000000    2.252000   -2.252000    0.000000    0.000000
    10  Na    c     0.000000    2.252000    2.252000    0.000000    0.000000
    11  Na    c     2.252000    4.504000   -2.252000    0.000000    0.000000
    12  Na    c     2.252000    4.504000    2.252000    0.000000    0.000000
    13  Na    c     2.252000    0.000000   -2.252000    0.000000    0.000000
    14  Na    c     2.252000    0.000000    2.252000    0.000000    0.000000
    15  Na    c     2.252000    2.252000    4.504000    0.000000    0.000000
    16  Na    c     2.252000    2.252000   -4.504000    0.000000    0.000000
    17  Na    c     2.252000    6.756000    0.000000    0.000000    0.000000
    18  Na    c     2.252000   -2.252000    0.000000    0.000000    0.000000
    19  Na    c     6.756000    2.252000    0.000000    0.000000    0.000000
    20  Na    c    -2.252000    2.252000    0.000000    0.000000    0.000000
    21  O     c     2.252000    6.756000   -2.252000    0.000000    0.000000
    22  O     c     2.252000    6.756000    2.252000    0.000000    0.000000
    23  O     c     2.252000   -2.252000   -2.252000    0.000000    0.000000
    24  O     c     2.252000   -2.252000    2.252000    0.000000    0.000000
    25  O     c     6.756000    2.252000   -2.252000    0.000000    0.000000
    26  O     c     6.756000    2.252000    2.252000    0.000000    0.000000
    27  O     c    -2.252000    2.252000   -2.252000    0.000000    0.000000
    28  O     c    -2.252000    2.252000    2.252000    0.000000    0.000000
    29  Na    c     4.504000    6.756000   -2.252000    0.000000    0.000000
    30  Na    c     4.504000    6.756000    2.252000    0.000000    0.000000
    31  Na    c     4.504000   -2.252000   -2.252000    0.000000    0.000000
    32  Na    c     4.504000   -2.252000    2.252000    0.000000    0.000000
    33  Na    c     0.000000    6.756000   -2.252000    0.000000    0.000000
    34  Na    c     0.000000    6.756000    2.252000    0.000000    0.000000
    35  Na    c     0.000000   -2.252000   -2.252000    0.000000    0.000000
    36  Na    c     0.000000   -2.252000    2.252000    0.000000    0.000000
    37  Na    c     6.756000    4.504000   -2.252000    0.000000    0.000000
    38  Na    c     6.756000    4.504000    2.252000    0.000000    0.000000
    39  Na    c     6.756000    0.000000   -2.252000    0.000000    0.000000
    40  Na    c     6.756000    0.000000    2.252000    0.000000    0.000000
    41  Na    c    -2.252000    4.504000   -2.252000    0.000000    0.000000
    42  Na    c    -2.252000    4.504000    2.252000    0.000000    0.000000
    43  Na    c    -2.252000    0.000000   -2.252000    0.000000    0.000000
    44  Na    c    -2.252000    0.000000    2.252000    0.000000    0.000000
    45  Cl    c     4.504000    4.504000    4.504000    0.000000    0.000000
    46  Cl    c     4.504000    4.504000   -4.504000    0.000000    0.000000
    47  Cl    c     4.504000    0.000000    4.504000    0.000000    0.000000
    48  Cl    c     4.504000    0.000000   -4.504000    0.000000    0.000000
    49  Cl    c     0.000000    4.504000    4.504000    0.000000    0.000000
    50  Cl    c     0.000000    4.504000   -4.504000    0.000000    0.000000
    51  Cl    c     0.000000    0.000000    4.504000    0.000000    0.000000
    52  Cl    c     0.000000    0.000000   -4.504000    0.000000    0.000000
    53  Na    c     2.252000    6.756000    4.504000    0.000000    0.000000
    54  Na    c     2.252000    6.756000   -4.504000    0.000000    0.000000
    55  Na    c     2.252000   -2.252000    4.504000    0.000000    0.000000
    56  Na    c     2.252000   -2.252000   -4.504000    0.000000    0.000000
    57  Na    c     6.756000    2.252000    4.504000    0.000000    0.000000
    58  Na    c     6.756000    2.252000   -4.504000    0.000000    0.000000
    59  Na    c    -2.252000    2.252000    4.504000    0.000000    0.000000
    60  Na    c    -2.252000    2.252000   -4.504000    0.000000    0.000000
    61  Na    c     6.756000    6.756000    0.000000    0.000000    0.000000
    62  Na    c     6.756000   -2.252000    0.000000    0.000000    0.000000
    63  Na    c    -2.252000    6.756000    0.000000    0.000000    0.000000
    64  Na    c    -2.252000   -2.252000    0.000000    0.000000    0.000000
    65  O     c     2.252000    2.252000    6.756000    0.000000    0.000000
    66  O     c     2.252000    2.252000   -6.756000    0.000000    0.000000
    67  O     c     6.756000    6.756000   -2.252000    0.000000    0.000000
    68  O     c     6.756000    6.756000    2.252000    0.000000    0.000000
    69  O     c     6.756000   -2.252000   -2.252000    0.000000    0.000000
    70  O     c     6.756000   -2.252000    2.252000    0.000000    0.000000
    71  O     c    -2.252000    6.756000   -2.252000    0.000000    0.000000
    72  O     c    -2.252000    6.756000    2.252000    0.000000    0.000000
    73  O     c    -2.252000   -2.252000   -2.252000    0.000000    0.000000
    74  O     c    -2.252000   -2.252000    2.252000    0.000000    0.000000
    75  Cl    c     4.504000    9.008000    0.000000    0.000000    0.000000
    76  Cl    c     4.504000   -4.504000    0.000000    0.000000    0.000000
    77  Cl    c     9.008000    4.504000    0.000000    0.000000    0.000000
    78  Cl    c     9.008000    0.000000    0.000000    0.000000    0.000000
    79  Cl    c     0.000000    9.008000    0.000000    0.000000    0.000000
    80  Cl    c     0.000000   -4.504000    0.000000    0.000000    0.000000
    81  Cl    c    -4.504000    4.504000    0.000000    0.000000    0.000000
    82  Cl    c    -4.504000    0.000000    0.000000    0.000000    0.000000
    83  Na    c     4.504000    2.252000    6.756000    0.000000    0.000000
    84  Na    c     4.504000    2.252000   -6.756000    0.000000    0.000000
    85  Na    c     0.000000    2.252000    6.756000    0.000000    0.000000
    86  Na    c     0.000000    2.252000   -6.756000    0.000000    0.000000
    87  Na    c     2.252000    4.504000    6.756000    0.000000    0.000000
    88  Na    c     2.252000    4.504000   -6.756000    0.000000    0.000000
    89  Na    c     2.252000    0.000000    6.756000    0.000000    0.000000
    90  Na    c     2.252000    0.000000   -6.756000    0.000000    0.000000
    91  Na    c     9.008000    2.252000   -2.252000    0.000000    0.000000
    92  Na    c     9.008000    2.252000    2.252000    0.000000    0.000000
    93  Na    c    -4.504000    2.252000   -2.252000    0.000000    0.000000
    94  Na    c    -4.504000    2.252000    2.252000    0.000000    0.000000
    95  Na    c     2.252000    9.008000   -2.252000    0.000000    0.000000
    96  Na    c     2.252000    9.008000    2.252000    0.000000    0.000000
    97  Na    c     2.252000   -4.504000   -2.252000    0.000000    0.000000
    98  Na    c     2.252000   -4.504000    2.252000    0.000000    0.000000
    99  Na    c     6.756000    6.756000    4.504000    0.000000    0.000000
   100  Na    c     6.756000    6.756000   -4.504000    0.000000    0.000000
   101  Na    c     6.756000   -2.252000    4.504000    0.000000    0.000000
   102  Na    c     6.756000   -2.252000   -4.504000    0.000000    0.000000
   103  Na    c    -2.252000    6.756000    4.504000    0.000000    0.000000
   104  Na    c    -2.252000    6.756000   -4.504000    0.000000    0.000000
   105  Na    c    -2.252000   -2.252000    4.504000    0.000000    0.000000
   106  Na    c    -2.252000   -2.252000   -4.504000    0.000000    0.000000
   107  O     c     2.252000    6.756000    6.756000    0.000000    0.000000
   108  O     c     2.252000    6.756000   -6.756000    0.000000    0.000000
   109  O     c     2.252000   -2.252000    6.756000    0.000000    0.000000
   110  O     c     2.252000   -2.252000   -6.756000    0.000000    0.000000
   111  O     c     6.756000    2.252000    6.756000    0.000000    0.000000
   112  O     c     6.756000    2.252000   -6.756000    0.000000    0.000000
   113  O     c    -2.252000    2.252000    6.756000    0.000000    0.000000
   114  O     c    -2.252000    2.252000   -6.756000    0.000000    0.000000
   115  Cl    c     4.504000    9.008000    4.504000    0.000000    0.000000
   116  Cl    c     4.504000    9.008000   -4.504000    0.000000    0.000000
   117  Cl    c     4.504000   -4.504000    4.504000    0.000000    0.000000
   118  Cl    c     4.504000   -4.504000   -4.504000    0.000000    0.000000
   119  Cl    c     9.008000    4.504000    4.504000    0.000000    0.000000
   120  Cl    c     9.008000    4.504000   -4.504000    0.000000    0.000000
   121  Cl    c     9.008000    0.000000    4.504000    0.000000    0.000000
   122  Cl    c     9.008000    0.000000   -4.504000    0.000000    0.000000
   123  Cl    c     0.000000    9.008000    4.504000    0.000000    0.000000
   124  Cl    c     0.000000    9.008000   -4.504000    0.000000    0.000000
   125  Cl    c     0.000000   -4.504000    4.504000    0.000000    0.000000
   126  Cl    c     0.000000   -4.504000   -4.504000    0.000000    0.000000
   127  Cl    c    -4.504000    4.504000    4.504000    0.000000    0.000000
   128  Cl    c    -4.504000    4.504000   -4.504000    0.000000    0.000000
   129  Cl    c    -4.504000    0.000000    4.504000    0.000000    0.000000
   130  Cl    c    -4.504000    0.000000   -4.504000    0.000000    0.000000
   131  Na    c     4.504000    6.756000    6.756000    0.000000    0.000000
   132  Na    c     4.504000    6.756000   -6.756000    0.000000    0.000000
   133  Na    c     4.504000   -2.252000    6.756000    0.000000    0.000000
   134  Na    c     4.504000   -2.252000   -6.756000    0.000000    0.000000
   135  Na    c     0.000000    6.756000    6.756000    0.000000    0.000000
   136  Na    c     0.000000    6.756000   -6.756000    0.000000    0.000000
   137  Na    c     0.000000   -2.252000    6.756000    0.000000    0.000000
   138  Na    c     0.000000   -2.252000   -6.756000    0.000000    0.000000
   139  Na    c     6.756000    4.504000    6.756000    0.000000    0.000000
   140  Na    c     6.756000    4.504000   -6.756000    0.000000    0.000000
   141  Na    c     6.756000    0.000000    6.756000    0.000000    0.000000
   142  Na    c     6.756000    0.000000   -6.756000    0.000000    0.000000
   143  Na    c    -2.252000    4.504000    6.756000    0.000000    0.000000
   144  Na    c    -2.252000    4.504000   -6.756000    0.000000    0.000000
   145  Na    c    -2.252000    0.000000    6.756000    0.000000    0.000000
   146  Na    c    -2.252000    0.000000   -6.756000    0.000000    0.000000
   147  Na    c     9.008000    6.756000   -2.252000    0.000000    0.000000
   148  Na    c     9.008000    6.756000    2.252000    0.000000    0.000000
   149  Na    c     9.008000   -2.252000   -2.252000    0.000000    0.000000
   150  Na    c     9.008000   -2.252000    2.252000    0.000000    0.000000
   151  Na    c    -4.504000    6.756000   -2.252000    0.000000    0.000000
   152  Na    c    -4.504000    6.756000    2.252000    0.000000    0.000000
   153  Na    c    -4.504000   -2.252000   -2.252000    0.000000    0.000000
   154  Na    c    -4.504000   -2.252000    2.252000    0.000000    0.000000
   155  Na    c     6.756000    9.008000   -2.252000    0.000000    0.000000
   156  Na    c     6.756000    9.008000    2.252000    0.000000    0.000000
   157  Na    c     6.756000   -4.504000   -2.252000    0.000000    0.000000
   158  Na    c     6.756000   -4.504000    2.252000    0.000000    0.000000
   159  Na    c    -2.252000    9.008000   -2.252000    0.000000    0.000000
   160  Na    c    -2.252000    9.008000    2.252000    0.000000    0.000000
   161  Na    c    -2.252000   -4.504000   -2.252000    0.000000    0.000000
   162  Na    c    -2.252000   -4.504000    2.252000    0.000000    0.000000
   163  Na    c     2.252000    2.252000    9.008000    0.000000    0.000000
   164  Na    c     2.252000    2.252000   -9.008000    0.000000    0.000000
   165  Na    c     2.252000   11.260000    0.000000    0.000000    0.000000
   166  Na    c     2.252000   -6.756000    0.000000    0.000000    0.000000
   167  Na    c    11.260000    2.252000    0.000000    0.000000    0.000000
   168  Na    c    -6.756000    2.252000    0.000000    0.000000    0.000000
   169  O     c     2.252000   11.260000   -2.252000    0.000000    0.000000
   170  O     c     2.252000   11.260000    2.252000    0.000000    0.000000
   171  O     c     2.252000   -6.756000   -2.252000    0.000000    0.000000
   172  O     c     2.252000   -6.756000    2.252000    0.000000    0.000000
   173  O     c    11.260000    2.252000   -2.252000    0.000000    0.000000
   174  O     c    11.260000    2.252000    2.252000    0.000000    0.000000
   175  O     c    -6.756000    2.252000   -2.252000    0.000000    0.000000
   176  O     c    -6.756000    2.252000    2.252000    0.000000    0.000000
   177  O     c     6.756000    6.756000    6.756000    0.000000    0.000000
   178  O     c     6.756000    6.756000   -6.756000    0.000000    0.000000
   179  O     c     6.756000   -2.252000    6.756000    0.000000    0.000000
   180  O     c     6.756000   -2.252000   -6.756000    0.000000    0.000000
   181  O     c    -2.252000    6.756000    6.756000    0.000000    0.000000
   182  O     c    -2.252000    6.756000   -6.756000    0.000000    0.000000
   183  O     c    -2.252000   -2.252000    6.756000    0.000000    0.000000
   184  O     c    -2.252000   -2.252000   -6.756000    0.000000    0.000000
   185  Cl    c     4.504000    4.504000    9.008000    0.000000    0.000000
   186  Cl    c     4.504000    4.504000   -9.008000    0.000000    0.000000
   187  Cl    c     4.504000    0.000000    9.008000    0.000000    0.000000
   188  Cl    c     4.504000    0.000000   -9.008000    0.000000    0.000000
   189  Cl    c     0.000000    4.504000    9.008000    0.000000    0.000000
   190  Cl    c     0.000000    4.504000   -9.008000    0.000000    0.000000
   191  Cl    c     0.000000    0.000000    9.008000    0.000000    0.000000
   192  Cl    c     0.000000    0.000000   -9.008000    0.000000    0.000000
   193  Cl    c     9.008000    9.008000    0.000000    0.000000    0.000000
   194  Cl    c     9.008000   -4.504000    0.000000    0.000000    0.000000
   195  Cl    c    -4.504000    9.008000    0.000000    0.000000    0.000000
   196  Cl    c    -4.504000   -4.504000    0.000000    0.000000    0.000000
   197  Na    c     9.008000    2.252000    6.756000    0.000000    0.000000
   198  Na    c     9.008000    2.252000   -6.756000    0.000000    0.000000
   199  Na    c    -4.504000    2.252000    6.756000    0.000000    0.000000
   200  Na    c    -4.504000    2.252000   -6.756000    0.000000    0.000000
   201  Na    c     2.252000    9.008000    6.756000    0.000000    0.000000
   202  Na    c     2.252000    9.008000   -6.756000    0.000000    0.000000
   203  Na    c     2.252000   -4.504000    6.756000    0.000000    0.000000
   204  Na    c     2.252000   -4.504000   -6.756000    0.000000    0.000000
   205  Na    c     4.504000   11.260000   -2.252000    0.000000    0.000000
   206  Na    c     4.504000   11.260000    2.252000    0.000000    0.000000
   207  Na    c     4.504000   -6.756000   -2.252000    0.000000    0.000000
   208  Na    c     4.504000   -6.756000    2.252000    0.000000    0.000000
   209  Na    c     0.000000   11.260000   -2.252000    0.000000    0.000000
   210  Na    c     0.000000   11.260000    2.252000    0.000000    0.000000
   211  Na    c     0.000000   -6.756000   -2.252000    0.000000    0.000000
   212  Na    c     0.000000   -6.756000    2.252000    0.000000    0.000000
   213  Na    c    11.260000    4.504000   -2.252000    0.000000    0.000000
   214  Na    c    11.260000    4.504000    2.252000    0.000000    0.000000
   215  Na    c    11.260000    0.000000   -2.252000    0.000000    0.000000
   216  Na    c    11.260000    0.000000    2.252000    0.000000    0.000000
   217  Na    c    -6.756000    4.504000   -2.252000    0.000000    0.000000
   218  Na    c    -6.756000    4.504000    2.252000    0.000000    0.000000
   219  Na    c    -6.756000    0.000000   -2.252000    0.000000    0.000000
   220  Na    c    -6.756000    0.000000    2.252000    0.000000    0.000000
   221  Na    c     2.252000    6.756000    9.008000    0.000000    0.000000
   222  Na    c     2.252000    6.756000   -9.008000    0.000000    0.000000
   223  Na    c     2.252000   -2.252000    9.008000    0.000000    0.000000
   224  Na    c     2.252000   -2.252000   -9.008000    0.000000    0.000000
   225  Na    c     6.756000    2.252000    9.008000    0.000000    0.000000
   226  Na    c     6.756000    2.252000   -9.008000    0.000000    0.000000
   227  Na    c    -2.252000    2.252000    9.008000    0.000000    0.000000
   228  Na    c    -2.252000    2.252000   -9.008000    0.000000    0.000000
   229  Na    c     2.252000   11.260000    4.504000    0.000000    0.000000
   230  Na    c     2.252000   11.260000   -4.504000    0.000000    0.000000
   231  Na    c     2.252000   -6.756000    4.504000    0.000000    0.000000
   232  Na    c     2.252000   -6.756000   -4.504000    0.000000    0.000000
   233  Na    c    11.260000    2.252000    4.504000    0.000000    0.000000
   234  Na    c    11.260000    2.252000   -4.504000    0.000000    0.000000
   235  Na    c    -6.756000    2.252000    4.504000    0.000000    0.000000
   236  Na    c    -6.756000    2.252000   -4.504000    0.000000    0.000000
   237  Na    c     6.756000   11.260000    0.000000    0.000000    0.000000
   238  Na    c     6.756000   -6.756000    0.000000    0.000000    0.000000
   239  Na    c    11.260000    6.756000    0.000000    0.000000    0.000000
   240  Na    c    11.260000   -2.252000    0.000000    0.000000    0.000000
   241  Na    c    -2.252000   11.260000    0.000000    0.000000    0.000000
   242  Na    c    -2.252000   -6.756000    0.000000    0.000000    0.000000
   243  Na    c    -6.756000    6.756000    0.000000    0.000000    0.000000
   244  Na    c    -6.756000   -2.252000    0.000000    0.000000    0.000000
   245  O     c     6.756000   11.260000   -2.252000    0.000000    0.000000
   246  O     c     6.756000   11.260000    2.252000    0.000000    0.000000
   247  O     c     6.756000   -6.756000   -2.252000    0.000000    0.000000
   248  O     c     6.756000   -6.756000    2.252000    0.000000    0.000000
   249  O     c    11.260000    6.756000   -2.252000    0.000000    0.000000
   250  O     c    11.260000    6.756000    2.252000    0.000000    0.000000
   251  O     c    11.260000   -2.252000   -2.252000    0.000000    0.000000
   252  O     c    11.260000   -2.252000    2.252000    0.000000    0.000000
   253  O     c    -2.252000   11.260000   -2.252000    0.000000    0.000000
   254  O     c    -2.252000   11.260000    2.252000    0.000000    0.000000
   255  O     c    -2.252000   -6.756000   -2.252000    0.000000    0.000000
   256  O     c    -2.252000   -6.756000    2.252000    0.000000    0.000000
   257  O     c    -6.756000    6.756000   -2.252000    0.000000    0.000000
   258  O     c    -6.756000    6.756000    2.252000    0.000000    0.000000
   259  O     c    -6.756000   -2.252000   -2.252000    0.000000    0.000000
   260  O     c    -6.756000   -2.252000    2.252000    0.000000    0.000000
   261  Cl    c     9.008000    9.008000    4.504000    0.000000    0.000000
   262  Cl    c     9.008000    9.008000   -4.504000    0.000000    0.000000
   263  Cl    c     9.008000   -4.504000    4.504000    0.000000    0.000000
   264  Cl    c     9.008000   -4.504000   -4.504000    0.000000    0.000000
   265  Cl    c    -4.504000    9.008000    4.504000    0.000000    0.000000
   266  Cl    c    -4.504000    9.008000   -4.504000    0.000000    0.000000
   267  Cl    c    -4.504000   -4.504000    4.504000    0.000000    0.000000
   268  Cl    c    -4.504000   -4.504000   -4.504000    0.000000    0.000000
   269  Na    c     9.008000    6.756000    6.756000    0.000000    0.000000
   270  Na    c     9.008000    6.756000   -6.756000    0.000000    0.000000
   271  Na    c     9.008000   -2.252000    6.756000    0.000000    0.000000
   272  Na    c     9.008000   -2.252000   -6.756000    0.000000    0.000000
   273  Na    c    -4.504000    6.756000    6.756000    0.000000    0.000000
   274  Na    c    -4.504000    6.756000   -6.756000    0.000000    0.000000
   275  Na    c    -4.504000   -2.252000    6.756000    0.000000    0.000000
   276  Na    c    -4.504000   -2.252000   -6.756000    0.000000    0.000000
   277  Na    c     6.756000    9.008000    6.756000    0.000000    0.000000
   278  Na    c     6.756000    9.008000   -6.756000    0.000000    0.000000
   279  Na    c     6.756000   -4.504000    6.756000    0.000000    0.000000
   280  Na    c     6.756000   -4.504000   -6.756000    0.000000    0.000000
   281  Na    c    -2.252000    9.008000    6.756000    0.000000    0.000000
   282  Na    c    -2.252000    9.008000   -6.756000    0.000000    0.000000
   283  Na    c    -2.252000   -4.504000    6.756000    0.000000    0.000000
   284  Na    c    -2.252000   -4.504000   -6.756000    0.000000    0.000000
   285  Na    c     6.756000   11.260000    4.504000    0.000000    0.000000
   286  Na    c     6.756000   11.260000   -4.504000    0.000000    0.000000
   287  Na    c     6.756000   -6.756000    4.504000    0.000000    0.000000
   288  Na    c     6.756000   -6.756000   -4.504000    0.000000    0.000000
   289  Na    c    11.260000    6.756000    4.504000    0.000000    0.000000
   290  Na    c    11.260000    6.756000   -4.504000    0.000000    0.000000
   291  Na    c    11.260000   -2.252000    4.504000    0.000000    0.000000
   292  Na    c    11.260000   -2.252000   -4.504000    0.000000    0.000000
   293  Na    c    -2.252000   11.260000    4.504000    0.000000    0.000000
   294  Na    c    -2.252000   11.260000   -4.504000    0.000000    0.000000
   295  Na    c    -2.252000   -6.756000    4.504000    0.000000    0.000000
   296  Na    c    -2.252000   -6.756000   -4.504000    0.000000    0.000000
   297  Na    c    -6.756000    6.756000    4.504000    0.000000    0.000000
   298  Na    c    -6.756000    6.756000   -4.504000    0.000000    0.000000
   299  Na    c    -6.756000   -2.252000    4.504000    0.000000    0.000000
   300  Na    c    -6.756000   -2.252000   -4.504000    0.000000    0.000000
   301  Na    c     6.756000    6.756000    9.008000    0.000000    0.000000
   302  Na    c     6.756000    6.756000   -9.008000    0.000000    0.000000
   303  Na    c     6.756000   -2.252000    9.008000    0.000000    0.000000
   304  Na    c     6.756000   -2.252000   -9.008000    0.000000    0.000000
   305  Na    c    -2.252000    6.756000    9.008000    0.000000    0.000000
   306  Na    c    -2.252000    6.756000   -9.008000    0.000000    0.000000
   307  Na    c    -2.252000   -2.252000    9.008000    0.000000    0.000000
   308  Na    c    -2.252000   -2.252000   -9.008000    0.000000    0.000000
   309  O     c     2.252000    2.252000   11.260000    0.000000    0.000000
   310  O     c     2.252000    2.252000  -11.260000    0.000000    0.000000
   311  O     c     2.252000   11.260000    6.756000    0.000000    0.000000
   312  O     c     2.252000   11.260000   -6.756000    0.000000    0.000000
   313  O     c     2.252000   -6.756000    6.756000    0.000000    0.000000
   314  O     c     2.252000   -6.756000   -6.756000    0.000000    0.000000
   315  O     c    11.260000    2.252000    6.756000    0.000000    0.000000
   316  O     c    11.260000    2.252000   -6.756000    0.000000    0.000000
   317  O     c    -6.756000    2.252000    6.756000    0.000000    0.000000
   318  O     c    -6.756000    2.252000   -6.756000    0.000000    0.000000
   319  Cl    c     4.504000   13.512000    0.000000    0.000000    0.000000
   320  Cl    c     4.504000   -9.008000    0.000000    0.000000    0.000000
   321  Cl    c    13.512000    4.504000    0.000000    0.000000    0.000000
   322  Cl    c    13.512000    0.000000    0.000000    0.000000    0.000000
   323  Cl    c     0.000000   13.512000    0.000000    0.000000    0.000000
   324  Cl    c     0.000000   -9.008000    0.000000    0.000000    0.000000
   325  Cl    c    -9.008000    4.504000    0.000000    0.000000    0.000000
   326  Cl    c    -9.008000    0.000000    0.000000    0.000000    0.000000
   327  Na    c     4.504000    2.252000   11.260000    0.000000    0.000000
   328  Na    c     4.504000    2.252000  -11.260000    0.000000    0.000000
   329  Na    c     0.000000    2.252000   11.260000    0.000000    0.000000
   330  Na    c     0.000000    2.252000  -11.260000    0.000000    0.000000
   331  Na    c     2.252000    4.504000   11.260000    0.000000    0.000000
   332  Na    c     2.252000    4.504000  -11.260000    0.000000    0.000000
   333  Na    c     2.252000    0.000000   11.260000    0.000000    0.000000
   334  Na    c     2.252000    0.000000  -11.260000    0.000000    0.000000
   335  Na    c    13.512000    2.252000   -2.252000    0.000000    0.000000
   336  Na    c    13.512000    2.252000    2.252000    0.000000    0.000000
   337  Na    c    -9.008000    2.252000   -2.252000    0.000000    0.000000
   338  Na    c    -9.008000    2.252000    2.252000    0.000000    0.000000
   339  Na    c     2.252000   13.512000   -2.252000    0.000000    0.000000
   340  Na    c     2.252000   13.512000    2.252000    0.000000    0.000000
   341  Na    c     2.252000   -9.008000   -2.252000    0.000000    0.000000
   342  Na    c     2.252000   -9.008000    2.252000    0.000000    0.000000
   343  Cl    c     4.504000    9.008000    9.008000    0.000000    0.000000
   344  Cl    c     4.504000    9.008000   -9.008000    0.000000    0.000000
   345  Cl    c     4.504000   -4.504000    9.008000    0.000000    0.000000
   346  Cl    c     4.504000   -4.504000   -9.008000    0.000000    0.000000
   347  Cl    c     9.008000    4.504000    9.008000    0.000000    0.000000
   348  Cl    c     9.008000    4.504000   -9.008000    0.000000    0.000000
   349  Cl    c     9.008000    0.000000    9.008000    0.000000    0.000000
   350  Cl    c     9.008000    0.000000   -9.008000    0.000000    0.000000
   351  Cl    c     0.000000    9.008000    9.008000    0.000000    0.000000
   352  Cl    c     0.000000    9.008000   -9.008000    0.000000    0.000000
   353  Cl    c     0.000000   -4.504000    9.008000    0.000000    0.000000
   354  Cl    c     0.000000   -4.504000   -9.008000    0.000000    0.000000
   355  Cl    c    -4.504000    4.504000    9.008000    0.000000    0.000000
   356  Cl    c    -4.504000    4.504000   -9.008000    0.000000    0.000000
   357  Cl    c    -4.504000    0.000000    9.008000    0.000000    0.000000
   358  Cl    c    -4.504000    0.000000   -9.008000    0.000000    0.000000
   359  Na    c     4.504000   11.260000    6.756000    0.000000    0.000000
   360  Na    c     4.504000   11.260000   -6.756000    0.000000    0.000000
   361  Na    c     4.504000   -6.756000    6.756000    0.000000    0.000000
   362  Na    c     4.504000   -6.756000   -6.756000    0.000000    0.000000
   363  Na    c     0.000000   11.260000    6.756000    0.000000    0.000000
   364  Na    c     0.000000   11.260000   -6.756000    0.000000    0.000000
   365  Na    c     0.000000   -6.756000    6.756000    0.000000    0.000000
   366  Na    c     0.000000   -6.756000   -6.756000    0.000000    0.000000
   367  Na    c    11.260000    4.504000    6.756000    0.000000    0.000000
   368  Na    c    11.260000    4.504000   -6.756000    0.000000    0.000000
   369  Na    c    11.260000    0.000000    6.756000    0.000000    0.000000
   370  Na    c    11.260000    0.000000   -6.756000    0.000000    0.000000
   371  Na    c    -6.756000    4.504000    6.756000    0.000000    0.000000
   372  Na    c    -6.756000    4.504000   -6.756000    0.000000    0.000000
   373  Na    c    -6.756000    0.000000    6.756000    0.000000    0.000000
   374  Na    c    -6.756000    0.000000   -6.756000    0.000000    0.000000
   375  Na    c     9.008000   11.260000   -2.252000    0.000000    0.000000
   376  Na    c     9.008000   11.260000    2.252000    0.000000    0.000000
   377  Na    c     9.008000   -6.756000   -2.252000    0.000000    0.000000
   378  Na    c     9.008000   -6.756000    2.252000    0.000000    0.000000
   379  Na    c    -4.504000   11.260000   -2.252000    0.000000    0.000000
   380  Na    c    -4.504000   11.260000    2.252000    0.000000    0.000000
   381  Na    c    -4.504000   -6.756000   -2.252000    0.000000    0.000000
   382  Na    c    -4.504000   -6.756000    2.252000    0.000000    0.000000
   383  Na    c    11.260000    9.008000   -2.252000    0.000000    0.000000
   384  Na    c    11.260000    9.008000    2.252000    0.000000    0.000000
   385  Na    c    11.260000   -4.504000   -2.252000    0.000000    0.000000
   386  Na    c    11.260000   -4.504000    2.252000    0.000000    0.000000
   387  Na    c    -6.756000    9.008000   -2.252000    0.000000    0.000000
   388  Na    c    -6.756000    9.008000    2.252000    0.000000    0.000000
   389  Na    c    -6.756000   -4.504000   -2.252000    0.000000    0.000000
   390  Na    c    -6.756000   -4.504000    2.252000    0.000000    0.000000
   391  O     c     2.252000    6.756000   11.260000    0.000000    0.000000
   392  O     c     2.252000    6.756000  -11.260000    0.000000    0.000000
   393  O     c     2.252000   -2.252000   11.260000    0.000000    0.000000
   394  O     c     2.252000   -2.252000  -11.260000    0.000000    0.000000
   395  O     c     6.756000    2.252000   11.260000    0.000000    0.000000
   396  O     c     6.756000    2.252000  -11.260000    0.000000    0.000000
   397  O     c    -2.252000    2.252000   11.260000    0.000000    0.000000
   398  O     c    -2.252000    2.252000  -11.260000    0.000000    0.000000
   399  O     c     6.756000   11.260000    6.756000    0.000000    0.000000
   400  O     c     6.756000   11.260000   -6.756000    0.000000    0.000000
   401  O     c     6.756000   -6.756000    6.756000    0.000000    0.000000
   402  O     c     6.756000   -6.756000   -6.756000    0.000000    0.000000
   403  O     c    11.260000    6.756000    6.756000    0.000000    0.000000
   404  O     c    11.260000    6.756000   -6.756000    0.000000    0.000000
   405  O     c    11.260000   -2.252000    6.756000    0.000000    0.000000
   406  O     c    11.260000   -2.252000   -6.756000    0.000000    0.000000
   407  O     c    -2.252000   11.260000    6.756000    0.000000    0.000000
   408  O     c    -2.252000   11.260000   -6.756000    0.000000    0.000000
   409  O     c    -2.252000   -6.756000    6.756000    0.000000    0.000000
   410  O     c    -2.252000   -6.756000   -6.756000    0.000000    0.000000
   411  O     c    -6.756000    6.756000    6.756000    0.000000    0.000000
   412  O     c    -6.756000    6.756000   -6.756000    0.000000    0.000000
   413  O     c    -6.756000   -2.252000    6.756000    0.000000    0.000000
   414  O     c    -6.756000   -2.252000   -6.756000    0.000000    0.000000
   415  Cl    c     4.504000   13.512000    4.504000    0.000000    0.000000
   416  Cl    c     4.504000   13.512000   -4.504000    0.000000    0.000000
   417  Cl    c     4.504000   -9.008000    4.504000    0.000000    0.000000
   418  Cl    c     4.504000   -9.008000   -4.504000    0.000000    0.000000
   419  Cl    c    13.512000    4.504000    4.504000    0.000000    0.000000
   420  Cl    c    13.512000    4.504000   -4.504000    0.000000    0.000000
   421  Cl    c    13.512000    0.000000    4.504000    0.000000    0.000000
   422  Cl    c    13.512000    0.000000   -4.504000    0.000000    0.000000
   423  Cl    c     0.000000   13.512000    4.504000    0.000000    0.000000
   424  Cl    c     0.000000   13.512000   -4.504000    0.000000    0.000000
   425  Cl    c     0.000000   -9.008000    4.504000    0.000000    0.000000
   426  Cl    c     0.000000   -9.008000   -4.504000    0.000000    0.000000
   427  Cl    c    -9.008000    4.504000    4.504000    0.000000    0.000000
   428  Cl    c    -9.008000    4.504000   -4.504000    0.000000    0.000000
   429  Cl    c    -9.008000    0.000000    4.504000    0.000000    0.000000
   430  Cl    c    -9.008000    0.000000   -4.504000    0.000000    0.000000
   431  Na    c     4.504000    6.756000   11.260000    0.000000    0.000000
   432  Na    c     4.504000    6.756000  -11.260000    0.000000    0.000000
   433  Na    c     4.504000   -2.252000   11.260000    0.000000    0.000000
   434  Na    c     4.504000   -2.252000  -11.260000    0.000000    0.000000
   435  Na    c     0.000000    6.756000   11.260000    0.000000    0.000000
   436  Na    c     0.000000    6.756000  -11.260000    0.000000    0.000000
   437  Na    c     0.000000   -2.252000   11.260000    0.000000    0.000000
   438  Na    c     0.000000   -2.252000  -11.260000    0.000000    0.000000
   439  Na    c     6.756000    4.504000   11.260000    0.000000    0.000000
   440  Na    c     6.756000    4.504000  -11.260000    0.000000    0.000000
   441  Na    c     6.756000    0.000000   11.260000    0.000000    0.000000
   442  Na    c     6.756000    0.000000  -11.260000    0.000000    0.000000
   443  Na    c    -2.252000    4.504000   11.260000    0.000000    0.000000
   444  Na    c    -2.252000    4.504000  -11.260000    0.000000    0.000000
   445  Na    c    -2.252000    0.000000   11.260000    0.000000    0.000000
   446  Na    c    -2.252000    0.000000  -11.260000    0.000000    0.000000
   447  Na    c    13.512000    6.756000   -2.252000    0.000000    0.000000
   448  Na    c    13.512000    6.756000    2.252000    0.000000    0.000000
   449  Na    c    13.512000   -2.252000   -2.252000    0.000000    0.000000
   450  Na    c    13.512000   -2.252000    2.252000    0.000000    0.000000
   451  Na    c    -9.008000    6.756000   -2.252000    0.000000    0.000000
   452  Na    c    -9.008000    6.756000    2.252000    0.000000    0.000000
   453  Na    c    -9.008000   -2.252000   -2.252000    0.000000    0.000000
   454  Na    c    -9.008000   -2.252000    2.252000    0.000000    0.000000
   455  Na    c     6.756000   13.512000   -2.252000    0.000000    0.000000
   456  Na    c     6.756000   13.512000    2.252000    0.000000    0.000000
   457  Na    c     6.756000   -9.008000   -2.252000    0.000000    0.000000
   458  Na    c     6.756000   -9.008000    2.252000    0.000000    0.000000
   459  Na    c    -2.252000   13.512000   -2.252000    0.000000    0.000000
   460  Na    c    -2.252000   13.512000    2.252000    0.000000    0.000000
   461  Na    c    -2.252000   -9.008000   -2.252000    0.000000    0.000000
   462  Na    c    -2.252000   -9.008000    2.252000    0.000000    0.000000
   463  Na    c     2.252000   11.260000    9.008000    0.000000    0.000000
   464  Na    c     2.252000   11.260000   -9.008000    0.000000    0.000000
   465  Na    c     2.252000   -6.756000    9.008000    0.000000    0.000000
   466  Na    c     2.252000   -6.756000   -9.008000    0.000000    0.000000
   467  Na    c    11.260000    2.252000    9.008000    0.000000    0.000000
   468  Na    c    11.260000    2.252000   -9.008000    0.000000    0.000000
   469  Na    c    -6.756000    2.252000    9.008000    0.000000    0.000000
   470  Na    c    -6.756000    2.252000   -9.008000    0.000000    0.000000
   471  Na    c    11.260000   11.260000    0.000000    0.000000    0.000000
   472  Na    c    11.260000   -6.756000    0.000000    0.000000    0.000000
   473  Na    c    -6.756000   11.260000    0.000000    0.000000    0.000000
   474  Na    c    -6.756000   -6.756000    0.000000    0.000000    0.000000
   475  O     c     6.756000    6.756000   11.260000    0.000000    0.000000
   476  O     c     6.756000    6.756000  -11.260000    0.000000    0.000000
   477  O     c     6.756000   -2.252000   11.260000    0.000000    0.000000
   478  O     c     6.756000   -2.252000  -11.260000    0.000000    0.000000
   479  O     c    -2.252000    6.756000   11.260000    0.000000    0.000000
   480  O     c    -2.252000    6.756000  -11.260000    0.000000    0.000000
   481  O     c    -2.252000   -2.252000   11.260000    0.000000    0.000000
   482  O     c    -2.252000   -2.252000  -11.260000    0.000000    0.000000
   483  O     c    11.260000   11.260000   -2.252000    0.000000    0.000000
   484  O     c    11.260000   11.260000    2.252000    0.000000    0.000000
   485  O     c    11.260000   -6.756000   -2.252000    0.000000    0.000000
   486  O     c    11.260000   -6.756000    2.252000    0.000000    0.000000
   487  O     c    -6.756000   11.260000   -2.252000    0.000000    0.000000
   488  O     c    -6.756000   11.260000    2.252000    0.000000    0.000000
   489  O     c    -6.756000   -6.756000   -2.252000    0.000000    0.000000
   490  O     c    -6.756000   -6.756000    2.252000    0.000000    0.000000
   491  Cl    c     9.008000   13.512000    0.000000    0.000000    0.000000
   492  Cl    c     9.008000   -9.008000    0.000000    0.000000    0.000000
   493  Cl    c    13.512000    9.008000    0.000000    0.000000    0.000000
   494  Cl    c    13.512000   -4.504000    0.000000    0.000000    0.000000
   495  Cl    c    -4.504000   13.512000    0.000000    0.000000    0.000000
   496  Cl    c    -4.504000   -9.008000    0.000000    0.000000    0.000000
   497  Cl    c    -9.008000    9.008000    0.000000    0.000000    0.000000
   498  Cl    c    -9.008000   -4.504000    0.000000    0.000000    0.000000
   499  Na    c     9.008000    2.252000   11.260000    0.000000    0.000000
   500  Na    c     9.008000    2.252000  -11.260000    0.000000    0.000000
   501  Na    c    -4.504000    2.252000   11.260000    0.000000    0.000000
   502  Na    c    -4.504000    2.252000  -11.260000    0.000000    0.000000
   503  Na    c     2.252000    9.008000   11.260000    0.000000    0.000000
   504  Na    c     2.252000    9.008000  -11.260000    0.000000    0.000000
   505  Na    c     2.252000   -4.504000   11.260000    0.000000    0.000000
   506  Na    c     2.252000   -4.504000  -11.260000    0.000000    0.000000
   507  Na    c     9.008000   11.260000    6.756000    0.000000    0.000000
   508  Na    c     9.008000   11.260000   -6.756000    0.000000    0.000000
   509  Na    c     9.008000   -6.756000    6.756000    0.000000    0.000000
   510  Na    c     9.008000   -6.756000   -6.756000    0.000000    0.000000
   511  Na    c    -4.504000   11.260000    6.756000    0.000000    0.000000
   512  Na    c    -4.504000   11.260000   -6.756000    0.000000    0.000000
   513  Na    c    -4.504000   -6.756000    6.756000    0.000000    0.000000
   514  Na    c    -4.504000   -6.756000   -6.756000    0.000000    0.000000
   515  Na    c    11.260000    9.008000    6.756000    0.000000    0.000000
   516  Na    c    11.260000    9.008000   -6.756000    0.000000    0.000000
   517  Na    c    11.260000   -4.504000    6.756000    0.000000    0.000000
   518  Na    c    11.260000   -4.504000   -6.756000    0.000000    0.000000
   519  Na    c    -6.756000    9.008000    6.756000    0.000000    0.000000
   520  Na    c    -6.756000    9.008000   -6.756000    0.000000    0.000000
   521  Na    c    -6.756000   -4.504000    6.756000    0.000000    0.000000
   522  Na    c    -6.756000   -4.504000   -6.756000    0.000000    0.000000
   523  Na    c    13.512000    2.252000    6.756000    0.000000    0.000000
   524  Na    c    13.512000    2.252000   -6.756000    0.000000    0.000000
   525  Na    c    -9.008000    2.252000    6.756000    0.000000    0.000000
   526  Na    c    -9.008000    2.252000   -6.756000    0.000000    0.000000
   527  Na    c     2.252000   13.512000    6.756000    0.000000    0.000000
   528  Na    c     2.252000   13.512000   -6.756000    0.000000    0.000000
   529  Na    c     2.252000   -9.008000    6.756000    0.000000    0.000000
   530  Na    c     2.252000   -9.008000   -6.756000    0.000000    0.000000
   531  Cl    c     9.008000    9.008000    9.008000    0.000000    0.000000
   532  Cl    c     9.008000    9.008000   -9.008000    0.000000    0.000000
   533  Cl    c     9.008000   -4.504000    9.008000    0.000000    0.000000
   534  Cl    c     9.008000   -4.504000   -9.008000    0.000000    0.000000
   535  Cl    c    -4.504000    9.008000    9.008000    0.000000    0.000000
   536  Cl    c    -4.504000    9.008000   -9.008000    0.000000    0.000000
   537  Cl    c    -4.504000   -4.504000    9.008000    0.000000    0.000000
   538  Cl    c    -4.504000   -4.504000   -9.008000    0.000000    0.000000
   539  Na    c     2.252000  -11.260000    0.000000    0.000000    0.000000
   540  Na    c   -11.260000    2.252000    0.000000    0.000000    0.000000
   541  Na    c     2.252000   15.764000    0.000000    0.000000    0.000000
   542  Na    c    15.764000    2.252000    0.000000    0.000000    0.000000
   543  Na    c     2.252000    2.252000   13.512000    0.000000    0.000000
   544  Na    c     2.252000    2.252000  -13.512000    0.000000    0.000000
   545  Na    c     6.756000   11.260000    9.008000    0.000000    0.000000
   546  Na    c     6.756000   11.260000   -9.008000    0.000000    0.000000
   547  Na    c     6.756000   -6.756000    9.008000    0.000000    0.000000
   548  Na    c     6.756000   -6.756000   -9.008000    0.000000    0.000000
   549  Na    c    11.260000    6.756000    9.008000    0.000000    0.000000
   550  Na    c    11.260000    6.756000   -9.008000    0.000000    0.000000
   551  Na    c    11.260000   -2.252000    9.008000    0.000000    0.000000
   552  Na    c    11.260000   -2.252000   -9.008000    0.000000    0.000000
   553  Na    c    -2.252000   11.260000    9.008000    0.000000    0.000000
   554  Na    c    -2.252000   11.260000   -9.008000    0.000000    0.000000
   555  Na    c    -2.252000   -6.756000    9.008000    0.000000    0.000000
   556  Na    c    -2.252000   -6.756000   -9.008000    0.000000    0.000000
   557  Na    c    -6.756000    6.756000    9.008000    0.000000    0.000000
   558  Na    c    -6.756000    6.756000   -9.008000    0.000000    0.000000
   559  Na    c    -6.756000   -2.252000    9.008000    0.000000    0.000000
   560  Na    c    -6.756000   -2.252000   -9.008000    0.000000    0.000000
   561  Na    c    11.260000   11.260000    4.504000    0.000000    0.000000
   562  Na    c    11.260000   11.260000   -4.504000    0.000000    0.000000
   563  Na    c    11.260000   -6.756000    4.504000    0.000000    0.000000
   564  Na    c    11.260000   -6.756000   -4.504000    0.000000    0.000000
   565  Na    c    -6.756000   11.260000    4.504000    0.000000    0.000000
   566  Na    c    -6.756000   11.260000   -4.504000    0.000000    0.000000
   567  Na    c    -6.756000   -6.756000    4.504000    0.000000    0.000000
   568  Na    c    -6.756000   -6.756000   -4.504000    0.000000    0.000000
   569  O     c     2.252000  -11.260000   -2.252000    0.000000    0.000000
   570  O     c     2.252000  -11.260000    2.252000    0.000000    0.000000
   571  O     c   -11.260000    2.252000   -2.252000    0.000000    0.000000
   572  O     c   -11.260000    2.252000    2.252000    0.000000    0.000000
   573  O     c     2.252000   15.764000   -2.252000    0.000000    0.000000
   574  O     c     2.252000   15.764000    2.252000    0.000000    0.000000
   575  O     c    15.764000    2.252000   -2.252000    0.000000    0.000000
   576  O     c    15.764000    2.252000    2.252000    0.000000    0.000000
   577  Na    c     4.504000  -11.260000   -2.252000    0.000000    0.000000
   578  Na    c     4.504000  -11.260000    2.252000    0.000000    0.000000
   579  Na    c     0.000000  -11.260000   -2.252000    0.000000    0.000000
   580  Na    c     0.000000  -11.260000    2.252000    0.000000    0.000000
   581  Na    c   -11.260000    4.504000   -2.252000    0.000000    0.000000
   582  Na    c   -11.260000    4.504000    2.252000    0.000000    0.000000
   583  Na    c   -11.260000    0.000000   -2.252000    0.000000    0.000000
   584  Na    c   -11.260000    0.000000    2.252000    0.000000    0.000000
   585  Na    c     4.504000   15.764000   -2.252000    0.000000    0.000000
   586  Na    c     4.504000   15.764000    2.252000    0.000000    0.000000
   587  Na    c     0.000000   15.764000   -2.252000    0.000000    0.000000
   588  Na    c     0.000000   15.764000    2.252000    0.000000    0.000000
   589  Na    c    15.764000    4.504000   -2.252000    0.000000    0.000000
   590  Na    c    15.764000    4.504000    2.252000    0.000000    0.000000
   591  Na    c    15.764000    0.000000   -2.252000    0.000000    0.000000
   592  Na    c    15.764000    0.000000    2.252000    0.000000    0.000000
   593  Cl    c     9.008000   13.512000    4.504000    0.000000    0.000000
[...]
     94 x          9.008000      9.008000     0.000000    Cartesian    0.00
     94 y         11.260000     11.260000     0.000000    Cartesian    0.00
     94 z         11.260000     11.260000     0.000000    Cartesian    0.00
     95 x         13.512000     13.512000     0.000000    Cartesian    0.00
     95 y         11.260000     11.260000     0.000000    Cartesian    0.00
     95 z          6.756000      6.756000     0.000000    Cartesian    0.00
     96 x          2.252000      2.252000     0.000000    Cartesian    0.00
     96 y        -11.260000    -11.260000     0.000000    Cartesian   -0.00
     96 z          9.008000      9.008000     0.000000    Cartesian    0.00
     97 x         11.260000     11.260000     0.000000    Cartesian    0.00
     97 y        -11.260000    -11.260000     0.000000    Cartesian   -0.00
     97 z          0.000000      0.000000     0.000000    Cartesian    0.00
     98 x          2.252000      2.252000     0.000000    Cartesian    0.00
     98 y         11.260000     11.260000     0.000000    Cartesian    0.00
     98 z         13.512000     13.512000     0.000000    Cartesian    0.00
     99 x         11.260000     11.260000     0.000000    Cartesian    0.00
     99 y        -11.260000    -11.260000     0.000000    Cartesian   -0.00
     99 z         -2.252000     -2.252000     0.000000    Cartesian   -0.00
    100 x          2.252000      2.252000     0.000000    Cartesian    0.00
    100 y          6.756000      6.756000     0.000000    Cartesian    0.00
    100 z         15.764000     15.764000     0.000000    Cartesian    0.00
    101 x          4.504000      4.504000     0.000000    Cartesian    0.00
    101 y        -13.512000    -13.512000     0.000000    Cartesian   -0.00
    101 z          4.504000      4.504000     0.000000    Cartesian    0.00
    102 x         13.512000     13.512000     0.000000    Cartesian    0.00
    102 y         13.512000     13.512000     0.000000    Cartesian    0.00
    102 z          4.504000      4.504000     0.000000    Cartesian    0.00
    103 x          4.504000      4.504000     0.000000    Cartesian    0.00
    103 y          6.756000      6.756000     0.000000    Cartesian    0.00
    103 z         15.764000     15.764000     0.000000    Cartesian    0.00
    104 x          9.008000      9.008000     0.000000    Cartesian    0.00
    104 y        -11.260000    -11.260000     0.000000    Cartesian   -0.00
    104 z          6.756000      6.756000     0.000000    Cartesian    0.00
    105 x         13.512000     13.512000     0.000000    Cartesian    0.00
    105 y          6.756000      6.756000     0.000000    Cartesian    0.00
    105 z         11.260000     11.260000     0.000000    Cartesian    0.00
    106 x        -13.512000    -13.512000     0.000000    Cartesian   -0.00
    106 y          6.756000      6.756000     0.000000    Cartesian    0.00
    106 z         -2.252000     -2.252000     0.000000    Cartesian   -0.00
    107 x          9.008000      9.008000     0.000000    Cartesian    0.00
    107 y          9.008000      9.008000     0.000000    Cartesian    0.00
    107 z         13.512000     13.512000     0.000000    Cartesian    0.00
    108 x          6.756000      6.756000     0.000000    Cartesian    0.00
    108 y         11.260000     11.260000     0.000000    Cartesian    0.00
    108 z         13.512000     13.512000     0.000000    Cartesian    0.00
    109 x          6.756000      6.756000     0.000000    Cartesian    0.00
    109 y        -11.260000    -11.260000     0.000000    Cartesian   -0.00
    109 z          9.008000      9.008000     0.000000    Cartesian    0.00
    110 x         11.260000     11.260000     0.000000    Cartesian    0.00
    110 y        -11.260000    -11.260000     0.000000    Cartesian   -0.00
    110 z          4.504000      4.504000     0.000000    Cartesian    0.00
    111 x          6.756000      6.756000     0.000000    Cartesian    0.00
    111 y          6.756000      6.756000     0.000000    Cartesian    0.00
    111 z         15.764000     15.764000     0.000000    Cartesian    0.00
    112 x         11.260000     11.260000     0.000000    Cartesian    0.00
    112 y         11.260000     11.260000     0.000000    Cartesian    0.00
    112 z         11.260000     11.260000     0.000000    Cartesian    0.00
    113 x          9.008000      9.008000     0.000000    Cartesian    0.00
    113 y        -13.512000    -13.512000     0.000000    Cartesian   -0.00
    113 z          0.000000      0.000000     0.000000    Cartesian    0.00
    114 x        -13.512000    -13.512000     0.000000    Cartesian   -0.00
    114 y          2.252000      2.252000     0.000000    Cartesian    0.00
    114 z          6.756000      6.756000     0.000000    Cartesian    0.00
    115 x          9.008000      9.008000     0.000000    Cartesian    0.00
    115 y          2.252000      2.252000     0.000000    Cartesian    0.00
    115 z         15.764000     15.764000     0.000000    Cartesian    0.00
    116 x          2.252000      2.252000     0.000000    Cartesian    0.00
    116 y        -11.260000    -11.260000     0.000000    Cartesian   -0.00
    116 z         11.260000     11.260000     0.000000    Cartesian    0.00
    117 x         11.260000     11.260000     0.000000    Cartesian    0.00
    117 y        -11.260000    -11.260000     0.000000    Cartesian   -0.00
    117 z          6.756000      6.756000     0.000000    Cartesian    0.00
    118 x          9.008000      9.008000     0.000000    Cartesian    0.00
    118 y        -13.512000    -13.512000     0.000000    Cartesian   -0.00
    118 z          4.504000      4.504000     0.000000    Cartesian    0.00
    119 x          4.504000      4.504000     0.000000    Cartesian    0.00
    119 y        -11.260000    -11.260000     0.000000    Cartesian   -0.00
    119 z         11.260000     11.260000     0.000000    Cartesian    0.00
    120 x         13.512000     13.512000     0.000000    Cartesian    0.00
    120 y        -11.260000    -11.260000     0.000000    Cartesian   -0.00
    120 z         -2.252000     -2.252000     0.000000    Cartesian   -0.00
    121 x        -13.512000    -13.512000     0.000000    Cartesian   -0.00
    121 y          6.756000      6.756000     0.000000    Cartesian    0.00
    121 z          6.756000      6.756000     0.000000    Cartesian    0.00
    122 x          4.504000      4.504000     0.000000    Cartesian    0.00
    122 y         13.512000     13.512000     0.000000    Cartesian    0.00
    122 z         13.512000     13.512000     0.000000    Cartesian    0.00
    123 x          9.008000      9.008000     0.000000    Cartesian    0.00
    123 y          6.756000      6.756000     0.000000    Cartesian    0.00
    123 z         15.764000     15.764000     0.000000    Cartesian    0.00
    124 x          2.252000      2.252000     0.000000    Cartesian    0.00
    124 y          2.252000      2.252000     0.000000    Cartesian    0.00
    124 z         -2.252000     -2.252000     0.000000    Cartesian   -0.00
    125 x          4.504000      4.504000     0.000000    Cartesian    0.00
    125 y          4.504000      4.504000     0.000000    Cartesian    0.00
    125 z          0.000000      0.000000     0.000000    Cartesian    0.00
    126 x          2.252000      2.252000     0.000000    Cartesian    0.00
    126 y          6.756000      6.756000     0.000000    Cartesian    0.00
    126 z         -2.252000     -2.252000     0.000000    Cartesian   -0.00
    127 x          4.504000      4.504000     0.000000    Cartesian    0.00
    127 y          4.504000      4.504000     0.000000    Cartesian    0.00
    127 z          4.504000      4.504000     0.000000    Cartesian    0.00
    128 x          2.252000      2.252000     0.000000    Cartesian    0.00
    128 y          2.252000      2.252000     0.000000    Cartesian    0.00
    128 z          6.756000      6.756000     0.000000    Cartesian    0.00
    129 x          6.756000      6.756000     0.000000    Cartesian    0.00
    129 y          6.756000      6.756000     0.000000    Cartesian    0.00
    129 z         -2.252000     -2.252000     0.000000    Cartesian   -0.00
    130 x          4.504000      4.504000     0.000000    Cartesian    0.00
    130 y          9.008000      9.008000     0.000000    Cartesian    0.00
    130 z          0.000000      0.000000     0.000000    Cartesian    0.00
    131 x          2.252000      2.252000     0.000000    Cartesian    0.00
    131 y          6.756000      6.756000     0.000000    Cartesian    0.00
    131 z          6.756000      6.756000     0.000000    Cartesian    0.00
    132 x          4.504000      4.504000     0.000000    Cartesian    0.00
    132 y          9.008000      9.008000     0.000000    Cartesian    0.00
    132 z          4.504000      4.504000     0.000000    Cartesian    0.00
    133 x          2.252000      2.252000     0.000000    Cartesian    0.00
    133 y         11.260000     11.260000     0.000000    Cartesian    0.00
    133 z         -2.252000     -2.252000     0.000000    Cartesian   -0.00
    134 x          6.756000      6.756000     0.000000    Cartesian    0.00
    134 y          6.756000      6.756000     0.000000    Cartesian    0.00
    134 z          6.756000      6.756000     0.000000    Cartesian    0.00
    135 x          4.504000      4.504000     0.000000    Cartesian    0.00
    135 y          4.504000      4.504000     0.000000    Cartesian    0.00
    135 z          9.008000      9.008000     0.000000    Cartesian    0.00
    136 x          9.008000      9.008000     0.000000    Cartesian    0.00
    136 y          9.008000      9.008000     0.000000    Cartesian    0.00
    136 z          0.000000      0.000000     0.000000    Cartesian    0.00
    137 x          6.756000      6.756000     0.000000    Cartesian    0.00
    137 y         11.260000     11.260000     0.000000    Cartesian    0.00
    137 z         -2.252000     -2.252000     0.000000    Cartesian   -0.00
    138 x          9.008000      9.008000     0.000000    Cartesian    0.00
    138 y          9.008000      9.008000     0.000000    Cartesian    0.00
    138 z          4.504000      4.504000     0.000000    Cartesian    0.00
    139 x          2.252000      2.252000     0.000000    Cartesian    0.00
    139 y          2.252000      2.252000     0.000000    Cartesian    0.00
    139 z         11.260000     11.260000     0.000000    Cartesian    0.00
    140 x          2.252000      2.252000     0.000000    Cartesian    0.00
    140 y         11.260000     11.260000     0.000000    Cartesian    0.00
    140 z          6.756000      6.756000     0.000000    Cartesian    0.00
    141 x          4.504000      4.504000     0.000000    Cartesian    0.00
    141 y         13.512000     13.512000     0.000000    Cartesian    0.00
    141 z          0.000000      0.000000     0.000000    Cartesian    0.00
    142 x          4.504000      4.504000     0.000000    Cartesian    0.00
    142 y          9.008000      9.008000     0.000000    Cartesian    0.00
    142 z          9.008000      9.008000     0.000000    Cartesian    0.00
    143 x          2.252000      2.252000     0.000000    Cartesian    0.00
    143 y          6.756000      6.756000     0.000000    Cartesian    0.00
    143 z         11.260000     11.260000     0.000000    Cartesian    0.00
    144 x          6.756000      6.756000     0.000000    Cartesian    0.00
    144 y         11.260000     11.260000     0.000000    Cartesian    0.00
    144 z          6.756000      6.756000     0.000000    Cartesian    0.00
    145 x          4.504000      4.504000     0.000000    Cartesian    0.00
    145 y         13.512000     13.512000     0.000000    Cartesian    0.00
    145 z          4.504000      4.504000     0.000000    Cartesian    0.00
    146 x          6.756000      6.756000     0.000000    Cartesian    0.00
    146 y          6.756000      6.756000     0.000000    Cartesian    0.00
    146 z         11.260000     11.260000     0.000000    Cartesian    0.00
    147 x         11.260000     11.260000     0.000000    Cartesian    0.00
    147 y         11.260000     11.260000     0.000000    Cartesian    0.00
    147 z         -2.252000     -2.252000     0.000000    Cartesian   -0.00
    148 x          9.008000      9.008000     0.000000    Cartesian    0.00
    148 y         13.512000     13.512000     0.000000    Cartesian    0.00
    148 z          0.000000      0.000000     0.000000    Cartesian    0.00
    149 x          9.008000      9.008000     0.000000    Cartesian    0.00
    149 y          9.008000      9.008000     0.000000    Cartesian    0.00
    149 z          9.008000      9.008000     0.000000    Cartesian    0.00
    150 x          2.252000      2.252000     0.000000    Cartesian    0.00
    150 y        -11.260000    -11.260000     0.000000    Cartesian   -0.00
    150 z         -2.252000     -2.252000     0.000000    Cartesian   -0.00
    151 x          9.008000      9.008000     0.000000    Cartesian    0.00
    151 y         13.512000     13.512000     0.000000    Cartesian    0.00
    151 z          4.504000      4.504000     0.000000    Cartesian    0.00
    152 x          4.504000      4.504000     0.000000    Cartesian    0.00
    152 y          4.504000      4.504000     0.000000    Cartesian    0.00
    152 z         13.512000     13.512000     0.000000    Cartesian    0.00
    153 x          6.756000      6.756000     0.000000    Cartesian    0.00
    153 y        -11.260000    -11.260000     0.000000    Cartesian   -0.00
    153 z         -2.252000     -2.252000     0.000000    Cartesian   -0.00
    154 x          2.252000      2.252000     0.000000    Cartesian    0.00
    154 y         11.260000     11.260000     0.000000    Cartesian    0.00
    154 z         11.260000     11.260000     0.000000    Cartesian    0.00
    155 x         11.260000     11.260000     0.000000    Cartesian    0.00
    155 y         11.260000     11.260000     0.000000    Cartesian    0.00
    155 z          6.756000      6.756000     0.000000    Cartesian    0.00
    156 x          4.504000      4.504000     0.000000    Cartesian    0.00
    156 y         13.512000     13.512000     0.000000    Cartesian    0.00
    156 z          9.008000      9.008000     0.000000    Cartesian    0.00
    157 x          2.252000      2.252000     0.000000    Cartesian    0.00
    157 y        -11.260000    -11.260000     0.000000    Cartesian   -0.00
    157 z          6.756000      6.756000     0.000000    Cartesian    0.00
    158 x          6.756000      6.756000     0.000000    Cartesian    0.00
    158 y         11.260000     11.260000     0.000000    Cartesian    0.00
    158 z         11.260000     11.260000     0.000000    Cartesian    0.00
    159 x          4.504000      4.504000     0.000000    Cartesian    0.00
    159 y          9.008000      9.008000     0.000000    Cartesian    0.00
    159 z         13.512000     13.512000     0.000000    Cartesian    0.00
    160 x          6.756000      6.756000     0.000000    Cartesian    0.00
    160 y        -11.260000    -11.260000     0.000000    Cartesian   -0.00
    160 z          6.756000      6.756000     0.000000    Cartesian    0.00
    161 x          2.252000      2.252000     0.000000    Cartesian    0.00
    161 y          2.252000      2.252000     0.000000    Cartesian    0.00
    161 z         15.764000     15.764000     0.000000    Cartesian    0.00
    162 x          4.504000      4.504000     0.000000    Cartesian    0.00
    162 y        -13.512000    -13.512000     0.000000    Cartesian   -0.00
    162 z          0.000000      0.000000     0.000000    Cartesian    0.00
    163 x         13.512000     13.512000     0.000000    Cartesian    0.00
    163 y         13.512000     13.512000     0.000000    Cartesian    0.00
    163 z          0.000000      0.000000     0.000000    Cartesian    0.00
    164 x          9.008000      9.008000     0.000000    Cartesian    0.00
    164 y         13.512000     13.512000     0.000000    Cartesian    0.00
    164 z          9.008000      9.008000     0.000000    Cartesian    0.00
    165 x         11.260000     11.260000     0.000000    Cartesian    0.00
    165 y        -11.260000    -11.260000     0.000000    Cartesian   -0.00
    165 z         -2.252000     -2.252000     0.000000    Cartesian   -0.00
    166 x          2.252000      2.252000     0.000000    Cartesian    0.00
    166 y          6.756000      6.756000     0.000000    Cartesian    0.00
    166 z         15.764000     15.764000     0.000000    Cartesian    0.00
    167 x          4.504000      4.504000     0.000000    Cartesian    0.00
    167 y        -13.512000    -13.512000     0.000000    Cartesian   -0.00
    167 z          4.504000      4.504000     0.000000    Cartesian    0.00
    168 x         13.512000     13.512000     0.000000    Cartesian    0.00
    168 y         13.512000     13.512000     0.000000    Cartesian    0.00
    168 z          4.504000      4.504000     0.000000    Cartesian    0.00
    169 x          9.008000      9.008000     0.000000    Cartesian    0.00
    169 y          9.008000      9.008000     0.000000    Cartesian    0.00
    169 z         13.512000     13.512000     0.000000    Cartesian    0.00
    170 x          6.756000      6.756000     0.000000    Cartesian    0.00
    170 y          6.756000      6.756000     0.000000    Cartesian    0.00
    170 z         15.764000     15.764000     0.000000    Cartesian    0.00
    171 x         11.260000     11.260000     0.000000    Cartesian    0.00
    171 y         11.260000     11.260000     0.000000    Cartesian    0.00
    171 z         11.260000     11.260000     0.000000    Cartesian    0.00
    172 x          9.008000      9.008000     0.000000    Cartesian    0.00
    172 y        -13.512000    -13.512000     0.000000    Cartesian   -0.00
    172 z          0.000000      0.000000     0.000000    Cartesian    0.00
    173 x          2.252000      2.252000     0.000000    Cartesian    0.00
    173 y        -11.260000    -11.260000     0.000000    Cartesian   -0.00
    173 z         11.260000     11.260000     0.000000    Cartesian    0.00
    174 x         11.260000     11.260000     0.000000    Cartesian    0.00
    174 y        -11.260000    -11.260000     0.000000    Cartesian   -0.00
    174 z          6.756000      6.756000     0.000000    Cartesian    0.00
    175 x          9.008000      9.008000     0.000000    Cartesian    0.00
    175 y        -13.512000    -13.512000     0.000000    Cartesian   -0.00
    175 z          4.504000      4.504000     0.000000    Cartesian    0.00
    176 x          4.504000      4.504000     0.000000    Cartesian    0.00
    176 y         13.512000     13.512000     0.000000    Cartesian    0.00
    176 z         13.512000     13.512000     0.000000    Cartesian    0.00
--------------------------------------------------------------------------------


  Time to end of optimisation  =        5.5322 seconds


  Peak dynamic memory used =      91.83 MB 


  Timing analysis for GULP :

--------------------------------------------------------------------------------
  Task / Subroutine                                          Time (Seconds)
--------------------------------------------------------------------------------
  Calculation for region 1 energy and derivatives (2-b)           4.9265
  Calculation for region 2a energy                                0.3395
  Symmetry generation of equivalent positions                     0.0016
--------------------------------------------------------------------------------
  Total CPU time                                                  5.5322
--------------------------------------------------------------------------------



  **** GULP has completed with 1 warning - beware! ****

  Job Finished at 14:16.51 30th December   2020                               

