********************************************************************************
*                       GENERAL UTILITY LATTICE PROGRAM                        *
*                                 Julian Gale                                  *
*                       Curtin Institute for Computation                       *
*                    School of Molecular and Life Sciences                     *
*                    Curtin University, Western Australia                      *
********************************************************************************
* Version = 5.2.0 * Last modified =  10th September 2020                       *
********************************************************************************
*  optimise     - perform optimisation run                                     *
*  conp         - constant pressure calculation                                *
*  property     - calculate properties for final geometry                      *
*  defect       - perform defect calculation after bulk run                    *
*  compare      - compare initial and final structures                         *
********************************************************************************

  Job Started  at 13:16.09 21st October    2020                               

  Number of CPUs =     1


  Total number of configurations input =      1

********************************************************************************
*  Input for Configuration =   1                                               *
********************************************************************************

  Formula = ClOLi3                                                      

  Number of irreducible atoms/shells =       5


  Total number atoms/shells =       7

  Dimensionality = 3               :  Bulk   


  Symmetry :

  Crystal family                   :  Cubic       
  Crystal class  (Groth - 1921)    :  Cubic Hexakisoctahedral              

  Space group (centrosymmetric)    :  P M 3 M         

  Patterson group                  :  P m -3 m 

  Cartesian lattice vectors (Angstroms) :

        3.918873    0.000000    0.000000
        0.000000    3.918873    0.000000
        0.000000    0.000000    3.918873

  Cell parameters (Angstroms/Degrees):

  a =       3.9189    alpha =  90.0000
  b =       3.9189    beta  =  90.0000
  c =       3.9189    gamma =  90.0000

  Initial cell volume =          60.184349 Angs**3

  Temperature of configuration =   0.00     K 

  Pressure of configuration =         0.000 GPa 

  Fractional coordinates of asymmetric unit :

--------------------------------------------------------------------------------
   No.  Atomic       x           y          z         Charge      Occupancy
        Label      (Frac)      (Frac)     (Frac)        (e)         (Frac)  
--------------------------------------------------------------------------------
      1 Cl    c    0.000000    0.000000    0.000000     1.48500    1.000000    
      2 O     c    0.500000    0.500000    0.500000     0.18300    1.000000    
      3 Li    c    0.500000    0.500000    0.000000     1.00000    1.000000    
      4 Cl    s    0.000000    0.000000    0.000000    -2.48500    1.000000    
      5 O     s    0.500000    0.500000    0.500000    -2.18300    1.000000    
--------------------------------------------------------------------------------


  Constraints : 

--------------------------------------------------------------------------------
  Constraint no.      Unconstrained     Constrained    Coefficient    Offset
                         Variable         Variable
--------------------------------------------------------------------------------
           1              Strain 1        Strain 2       1.00000      0.0000
           2              Strain 1        Strain 3       1.00000      0.0000
--------------------------------------------------------------------------------


********************************************************************************
*  General input information                                                   *
********************************************************************************

  Species output for all configurations : 

--------------------------------------------------------------------------------
  Species    Type    Atomic    Atomic    Charge       Radii (Angs)     Library
                     Number     Mass       (e)     Cova   Ionic  VDW   Symbol
--------------------------------------------------------------------------------
    Li       Core        3       6.94   1.000000   0.680  0.000  1.800          
    O        Core        8      16.00   0.183000   0.730  0.000  1.360          
    O        Shell       8       0.00  -2.183000   0.730  0.000  1.360          
    Cl       Core       17      35.45   1.485000   0.990  0.000  1.650          
    Cl       Shell      17       0.00  -2.485000   0.990  0.000  1.650          
--------------------------------------------------------------------------------


  Lattice summation method               =    Ewald          (3-D)
                                         =    Parry          (2-D)
                                         =    Saunders et al (1-D)
  Accuracy factor for lattice sums       =   12.000


  Analytic derivatives to be used

  Time limit = Infinity

  Maximum range for interatomic potentials =    100000.000000 Angstroms

  General interatomic potentials :

--------------------------------------------------------------------------------
Atom  Types   Potential      Parameter       Value         Units   Cutoffs(Ang)
  1     2                                                            Min /  Max 
--------------------------------------------------------------------------------
O    c O    s Spring (c-s)  Spring k 2       593.72000    eV*Ang^-2 0.000  0.800
                            Spring k 4       0.0000000    eV*Ang^-4 
--------------------------------------------------------------------------------
Cl   c Cl   s Spring (c-s)  Spring k 2       29.380000    eV*Ang^-2 0.000  0.800
                            Spring k 4       0.0000000    eV*Ang^-4 
--------------------------------------------------------------------------------
Li   c Li   c Buckingham    Buckingham A     360.53000    eV        0.000 12.000
                            Buckingham rho  0.16100000    Ang       
                            Buckingham C     0.0000000    eV*Ang^6  
--------------------------------------------------------------------------------
Li   c O    s Buckingham    Buckingham A     292.30000    eV        0.000 12.000
                            Buckingham rho  0.34720000    Ang       
                            Buckingham C     0.0000000    eV*Ang^6  
--------------------------------------------------------------------------------
Li   c Cl   s Buckingham    Buckingham A     421.04000    eV        0.000 12.000
                            Buckingham rho  0.33400000    Ang       
                            Buckingham C     0.0000000    eV*Ang^6  
--------------------------------------------------------------------------------
O    s O    s Buckingham    Buckingham A     22764.300    eV        0.000 12.000
                            Buckingham rho  0.14900000    Ang       
                            Buckingham C     13.190000    eV*Ang^6  
--------------------------------------------------------------------------------
O    s Cl   s Buckingham    Buckingham A     8286.9100    eV        0.000 12.000
                            Buckingham rho  0.25900000    Ang       
                            Buckingham C     62.200000    eV*Ang^6  
--------------------------------------------------------------------------------
Cl   s Cl   s Buckingham    Buckingham A     1227.2000    eV        0.000 12.000
                            Buckingham rho  0.32100000    Ang       
                            Buckingham C     14.530000    eV*Ang^6  
--------------------------------------------------------------------------------

********************************************************************************
*  Output for configuration   1                                                *
********************************************************************************


  Components of energy : 

--------------------------------------------------------------------------------
  Interatomic potentials     =           7.26836263 eV    
  Monopole - monopole (real) =         -11.53475722 eV    
  Monopole - monopole (recip)=         -33.94580548 eV    
  Monopole - monopole (total)=         -45.48056271 eV    
--------------------------------------------------------------------------------
  Total lattice energy       =         -38.21220008 eV    
--------------------------------------------------------------------------------
  Total lattice energy       =           -3686.8932 kJ/(mole unit cells)
--------------------------------------------------------------------------------


  Number of variables =        1

  Maximum number of calculations  =          1000
  Maximum Hessian update interval =            10
  Maximum step size               =   1.000000000
  Maximum parameter tolerance     =   0.000010000
  Maximum function  tolerance     =   0.000010000
  Maximum gradient  tolerance     =   0.001000000
  Maximum gradient  component     =   0.010000000

  Symmetry constrained optimisation

  Symmetry used for second derivatives

  Cell parameters to be optimised using strains

  Newton-Raphson optimiser to be used

  BFGS hessian update to be used

  Lower half triangular hessian to be used

  Start of bulk optimisation :

  Cycle:      0 Energy:       -38.212200  Gnorm:      0.095699  CPU:    0.006
  ** Hessian calculated **
  Cycle:      1 Energy:       -38.212222  Gnorm:      0.000105  CPU:    0.008


  **** Optimisation achieved ****


  Final energy =     -38.21222207 eV
  Final Gnorm  =       0.00000016

  Components of energy : 

--------------------------------------------------------------------------------
  Interatomic potentials     =           7.24743141 eV    
  Monopole - monopole (real) =         -11.52945423 eV    
  Monopole - monopole (recip)=         -33.93019924 eV    
  Monopole - monopole (total)=         -45.45965348 eV    
--------------------------------------------------------------------------------
  Total lattice energy       =         -38.21222207 eV    
--------------------------------------------------------------------------------
  Total lattice energy       =           -3686.8953 kJ/(mole unit cells)
--------------------------------------------------------------------------------

  Final asymmetric unit coordinates :

--------------------------------------------------------------------------------
   No.  Atomic        x           y           z         Radius
        Label       (Frac)      (Frac)      (Frac)       (Angs) 
--------------------------------------------------------------------------------
     1  Cl    c     0.000000    0.000000    0.000000    0.000000
     2  O     c     0.500000    0.500000    0.500000    0.000000
     3  Li    c     0.500000    0.500000    0.000000    0.000000
     4  Cl    s     0.000000    0.000000    0.000000    0.000000
     5  O     s     0.500000    0.500000    0.500000    0.000000
--------------------------------------------------------------------------------

  Final Cartesian lattice vectors (Angstroms) :

        3.920675    0.000000    0.000000
        0.000000    3.920675    0.000000
        0.000000    0.000000    3.920675


  Final cell parameters and derivatives :

--------------------------------------------------------------------------------
       a            3.920675 Angstrom     dE/de1(xx)    -0.000000 eV/strain
       b            3.920675 Angstrom     dE/de2(yy)     0.000000 eV/strain
       c            3.920675 Angstrom     dE/de3(zz)     0.000000 eV/strain
       alpha       90.000000 Degrees      dE/de4(yz)     0.000000 eV/strain
       beta        90.000000 Degrees      dE/de5(xz)     0.000000 eV/strain
       gamma       90.000000 Degrees      dE/de6(xy)     0.000000 eV/strain
--------------------------------------------------------------------------------

  Primitive cell volume =            60.267433 Angs**3

  Density of cell =      1.991276 g/cm**3

  Non-primitive cell volume =            60.267433 Angs**3


  Final internal derivatives :

--------------------------------------------------------------------------------
   No.  Atomic          a             b             c           Radius
        Label          (eV)          (eV)          (eV)        (eV/Angs)
--------------------------------------------------------------------------------
      1 Cl    c       0.000000      0.000000      0.000000      0.000000
      2 O     c       0.000000      0.000000      0.000000      0.000000
      3 Li    c       0.000000      0.000000      0.000000      0.000000
      4 Cl    s       0.000000      0.000000      0.000000      0.000000
      5 O     s       0.000000      0.000000      0.000000      0.000000
--------------------------------------------------------------------------------
  Maximum abs         0.000000      0.000000      0.000000      0.000000
--------------------------------------------------------------------------------

  Comparison of initial and final structures : 

--------------------------------------------------------------------------------
  Parameter   Initial value   Final value   Difference    Units      Percent
--------------------------------------------------------------------------------
    Volume        60.184349     60.267433     0.083084    Angs**3      0.14
    a              3.918873      3.920675     0.001802    Angstroms    0.05
    b              3.918873      3.920675     0.001802    Angstroms    0.05
    c              3.918873      3.920675     0.001802    Angstroms    0.05
    alpha         90.000000     90.000000     0.000000    Degrees      0.00
    beta          90.000000     90.000000     0.000000    Degrees      0.00
    gamma         90.000000     90.000000     0.000000    Degrees      0.00
      1 x          0.000000      0.000000     0.000000    Fractional   0.00
      1 y          0.000000      0.000000     0.000000    Fractional   0.00
      1 z          0.000000      0.000000     0.000000    Fractional   0.00
      2 x          0.500000      0.500000     0.000000    Fractional   0.00
      2 y          0.500000      0.500000     0.000000    Fractional   0.00
      2 z          0.500000      0.500000     0.000000    Fractional   0.00
      3 x          0.500000      0.500000     0.000000    Fractional   0.00
      3 y          0.500000      0.500000     0.000000    Fractional   0.00
      3 z          0.000000      0.000000     0.000000    Fractional   0.00
      4 x          0.000000      0.000000     0.000000    Fractional   0.00
      4 y          0.000000      0.000000     0.000000    Fractional   0.00
      4 z          0.000000      0.000000     0.000000    Fractional   0.00
      5 x          0.500000      0.500000     0.000000    Fractional   0.00
      5 y          0.500000      0.500000     0.000000    Fractional   0.00
      5 z          0.500000      0.500000     0.000000    Fractional   0.00
--------------------------------------------------------------------------------


  Born effective charge tensors : 

-------------------------------------------------------------------------------
  Atom             x           y             z
-------------------------------------------------------------------------------
    1 Cl    x      -0.9489     -0.0000     -0.0000
            y      -0.0000     -0.9489     -0.0000
            z      -0.0000     -0.0000     -0.9489
-------------------------------------------------------------------------------
    2 O     x      -2.4688      0.0000      0.0000
            y       0.0000     -2.4688      0.0000
            z       0.0000      0.0000     -2.4688
-------------------------------------------------------------------------------
    3 Li    x       1.3129      0.0000     -0.0000
            y       0.0000      1.3129      0.0000
            z      -0.0000      0.0000      0.7919
-------------------------------------------------------------------------------




  Elastic Constant Matrix: (Units=GPa)

-------------------------------------------------------------------------------
  Indices      1         2         3         4         5         6    
-------------------------------------------------------------------------------
       1     94.3368   44.9178   44.9178    0.0000   -0.0000    0.0000
       2     44.9178   94.3368   44.9178   -0.0000    0.0000   -0.0000
       3     44.9178   44.9178   94.3368    0.0000   -0.0000    0.0000
       4      0.0000   -0.0000    0.0000   44.9178   -0.0000    0.0000
       5     -0.0000    0.0000   -0.0000   -0.0000   44.9178    0.0000
       6      0.0000   -0.0000    0.0000    0.0000    0.0000   44.9178
-------------------------------------------------------------------------------


  Elastic Compliance Matrix: (Units=1/GPa)

-------------------------------------------------------------------------------
  Indices      1         2         3         4         5         6    
-------------------------------------------------------------------------------
       1    0.015300 -0.004935 -0.004935 -0.000000  0.000000 -0.000000
       2   -0.004935  0.015300 -0.004935  0.000000 -0.000000  0.000000
       3   -0.004935 -0.004935  0.015300 -0.000000  0.000000 -0.000000
       4   -0.000000  0.000000 -0.000000  0.022263  0.000000 -0.000000
       5    0.000000 -0.000000  0.000000  0.000000  0.022263 -0.000000
       6   -0.000000  0.000000 -0.000000 -0.000000 -0.000000  0.022263
-------------------------------------------------------------------------------

  Mechanical properties :

-------------------------------------------------------------------------------
  Convention :                    Reuss         Voigt         Hill
-------------------------------------------------------------------------------
  Bulk  Modulus (GPa)     =      61.39080      61.39080      61.39080
  Shear Modulus (GPa)     =      33.84570      36.83448      35.34009
-------------------------------------------------------------------------------
  Velocity S-wave (km/s)  =       4.12274       4.30092       4.21277
  Velocity P-wave (km/s)  =       7.31386       7.44942       7.38195
-------------------------------------------------------------------------------
  Compressibility (1/GPa) =    0.01628909
-------------------------------------------------------------------------------
  Stress axis :                     x             y             z
-------------------------------------------------------------------------------
  Youngs Moduli (GPa)     =      65.35947      65.35947      65.35947
-------------------------------------------------------------------------------
  Poissons Ratio (x)      =                     0.32256       0.32256
  Poissons Ratio (y)      =       0.32256                     0.32256
  Poissons Ratio (z)      =       0.32256       0.32256
-------------------------------------------------------------------------------


  Piezoelectric Strain Matrix: (Units=C/m**2)

-------------------------------------------------------------------------------
  Indices      1         2         3         4         5         6    
-------------------------------------------------------------------------------
       x    -0.00000   0.00000   0.00000  -0.00000  -0.00000   0.00000
       y    -0.00000   0.00000   0.00000  -0.00000  -0.00000  -0.00000
       z     0.00000   0.00000   0.00000   0.00000  -0.00000  -0.00000
-------------------------------------------------------------------------------


  Piezoelectric Stress Matrix: (Units=10**-11 C/N)

-------------------------------------------------------------------------------
  Indices      1         2         3         4         5         6    
-------------------------------------------------------------------------------
       x    -0.00000   0.00000   0.00000  -0.00000  -0.00000   0.00000
       y    -0.00000   0.00000   0.00000  -0.00000  -0.00000  -0.00000
       z    -0.00000  -0.00000   0.00000   0.00000  -0.00000  -0.00000
-------------------------------------------------------------------------------


  Static dielectric constant tensor : 

-------------------------------------------------------------------------------
              x         y         z
-------------------------------------------------------------------------------
       x    12.11703   0.00000  -0.00000
       y     0.00000  12.11703  -0.00000
       z    -0.00000  -0.00000  12.11703
--------------------------------------------------------------------------------

  High frequency dielectric constant tensor : 

-------------------------------------------------------------------------------
              x         y         z
-------------------------------------------------------------------------------
       x     1.74104   0.00000   0.00000
       y     0.00000   1.74104   0.00000
       z     0.00000   0.00000   1.74104
-------------------------------------------------------------------------------

  Static refractive indices : 

-------------------------------------------------------------------------------
    1 =    3.48095      2 =    3.48095      3 =    3.48095
-------------------------------------------------------------------------------

  High frequency refractive indices : 

-------------------------------------------------------------------------------
    1 =    1.31948      2 =    1.31948      3 =    1.31948
-------------------------------------------------------------------------------


  Time to end of optimisation =       0.0125 seconds

********************************************************************************
*  Defect calculation for configuration   1 :                                  *
********************************************************************************

  Total number of defects =      3

  Total charge on defect  =   1.00

  Defect centre is at   1.9594   0.0000   0.0000  Angs

  Region 1 radius =  20.0000      Number of ions =   3870

  Number of symmetry inequivalent region 1 ions  =    625

  Region 2 radius =  24.0000      Number of ions =   2888

  Number of symmetry inequivalent region 2a ions =    418

  Region 2a mode = 4 : screened electrostatics due to region 1 
                       neglect correction to region 1 forces from 2a
                       region 2a displacements based on defects only

  Region 2a ions will only interact with defects in region 1

  Vacancies:

--------------------------------------------------------------------------------
    Specification type     Symbol/Number         x          y          z
--------------------------------------------------------------------------------
    Cartesian                                0.000000   0.000000   0.000000
    Cartesian                                3.918873   0.000000   0.000000
--------------------------------------------------------------------------------

  Interstitials:

--------------------------------------------------------------------------------
    Specification type     Symbol/Number         x          y          z
--------------------------------------------------------------------------------
    Atom/Cartesian          Cl               1.959436   0.000000   0.000000
--------------------------------------------------------------------------------


  Symmetry reduced region 1 (Relative to defect centre) :

--------------------------------------------------------------------------------
   No.   Atomic       x            y             z       Radius  Multiplicity   
         Label      (Angs)       (Angs)        (Angs)    (Angs)     
--------------------------------------------------------------------------------
     1  Cl    c      0.0000       0.0000       0.0000    0.0000     1    Defect
     2  Li    c      0.0009 *    -1.9603 *     0.0000    0.0000     4          
     3  O     c      0.0009 *    -1.9603 *    -1.9603    0.0000     4          
     4  Li    c     -1.9594 *    -1.9603 *    -1.9603    0.0000     4          
     5  Li    c      1.9612 *    -1.9603 *    -1.9603    0.0000     4          
     6  Li    c     -3.9198 *    -1.9603 *     0.0000    0.0000     4          
     7  Cl    c     -1.9594 *     0.0000       3.9207 *  0.0000     4          
     8  Li    c      0.0009 *    -1.9603 *     3.9207 *  0.0000     8          
     9  Cl    c      1.9612 *     0.0000       3.9207 *  0.0000     4          
    10  Li    c      3.9216 *    -1.9603 *     0.0000    0.0000     4          
    11  O     c     -3.9198 *    -1.9603 *    -1.9603    0.0000     4          
    12  O     c      3.9216 *    -1.9603 *    -1.9603    0.0000     4          
    13  Cl    c     -5.8801 *     0.0000       0.0000    0.0000     1          
    14  Li    c     -3.9198 *    -1.9603 *     3.9207 *  0.0000     8          
    15  Cl    c     -1.9594 *     3.9207 *     3.9207    0.0000     4          
    16  Li    c      0.0009 *     5.8810 *     0.0000    0.0000     4          
    17  Cl    c      1.9612 *     3.9207 *     3.9207    0.0000     4          
    18  Li    c      3.9216 *    -1.9603 *     3.9207 *  0.0000     8          
    19  Cl    c      5.8819 *     0.0000       0.0000    0.0000     1          
    20  O     c      0.0009 *    -1.9603 *     5.8810 *  0.0000     8          
    21  Li    c     -5.8801 *    -1.9603 *    -1.9603    0.0000     4          
    22  Li    c     -1.9594 *     5.8810 *    -1.9603 *  0.0000     8          
    23  Li    c      1.9612 *    -1.9603 *     5.8810 *  0.0000     8          
    24  Li    c      5.8819 *    -1.9603 *    -1.9603    0.0000     4          
    25  Cl    c     -5.8801 *     0.0000       3.9207 *  0.0000     4          
    26  Li    c     -3.9198 *     5.8810 *     0.0000    0.0000     4          
    27  Li    c      0.0009 *     5.8810 *     3.9207 *  0.0000     8          
    28  Li    c      3.9216 *     5.8810 *     0.0000    0.0000     4          
    29  Cl    c      5.8819 *     0.0000       3.9207 *  0.0000     4          
    30  O     c     -3.9198 *    -1.9603 *     5.8810 *  0.0000     8          
    31  O     c      3.9216 *     5.8810 *    -1.9603 *  0.0000     8          
    32  Li    c     -7.8404 *    -1.9603 *     0.0000    0.0000     4          
    33  Cl    c     -5.8801 *     3.9207 *     3.9207    0.0000     4          
    34  Li    c     -3.9198 *     3.9207 *     5.8810 *  0.0000     8          
    35  Cl    c     -1.9594 *     0.0000       7.8414 *  0.0000     4          
    36  Li    c      0.0009 *    -1.9603 *     7.8414 *  0.0000     8          
    37  Cl    c      1.9612 *     0.0000       7.8414 *  0.0000     4          
    38  Li    c      3.9216 *     5.8810 *     3.9207 *  0.0000     8          
    39  Cl    c      5.8819 *     3.9207 *     3.9207    0.0000     4          
    40  Li    c      7.8423 *    -1.9603 *     0.0000    0.0000     4          
    41  O     c     -7.8404 *    -1.9603 *    -1.9603    0.0000     4          
    42  O     c      0.0009 *     5.8810 *     5.8810    0.0000     4          
    43  O     c      7.8423 *    -1.9603 *    -1.9603    0.0000     4          
    44  Li    c     -5.8801 *    -1.9603 *     5.8810 *  0.0000     8          
    45  Li    c     -1.9594 *     5.8810 *     5.8810    0.0000     4          
    46  Li    c      1.9612 *     5.8810 *     5.8810    0.0000     4          
    47  Li    c      5.8819 *    -1.9603 *     5.8810 *  0.0000     8          
    48  Li    c     -7.8404 *    -1.9603 *     3.9207 *  0.0000     8          
    49  Li    c     -3.9198 *    -1.9603 *     7.8414 *  0.0000     8          
    50  Cl    c     -1.9594 *     3.9207 *     7.8414 *  0.0000     8          
    51  Cl    c      1.9612 *     3.9207 *     7.8414 *  0.0000     8          
    52  Li    c      3.9216 *    -1.9603 *     7.8414 *  0.0000     8          
    53  Li    c      7.8423 *    -1.9603 *     3.9207 *  0.0000     8          
    54  O     c     -3.9198 *     5.8810 *     5.8810    0.0000     4          
    55  O     c      3.9216 *     5.8810 *     5.8810    0.0000     4          
    56  Cl    c     -9.8008 *     0.0000       0.0000    0.0000     1          
    57  Li    c     -7.8404 *     5.8810 *     0.0000    0.0000     4          
    58  Cl    c     -5.8801 *     0.0000       7.8414 *  0.0000     4          
    59  Li    c      0.0009 *     5.8810 *     7.8414 *  0.0000     8          
    60  Li    c      0.0009 *     9.8017 *     0.0000    0.0000     4          
    61  Cl    c      5.8819 *     0.0000       7.8414 *  0.0000     4          
    62  Li    c      7.8423 *     5.8810 *     0.0000    0.0000     4          
    63  Cl    c      9.8026 *     0.0000       0.0000    0.0000     1          
    64  O     c     -7.8404 *    -1.9603 *     5.8810 *  0.0000     8          
    65  O     c      0.0009 *    -1.9603 *     9.8017 *  0.0000     8          
    66  O     c      7.8423 *    -1.9603 *     5.8810 *  0.0000     8          
    67  Li    c     -9.8008 *    -1.9603 *    -1.9603    0.0000     4          
    68  Li    c     -5.8801 *     5.8810 *     5.8810    0.0000     4          
    69  Li    c     -1.9594 *    -1.9603 *     9.8017 *  0.0000     8          
    70  Li    c      1.9612 *    -1.9603 *     9.8017 *  0.0000     8          
    71  Li    c      5.8819 *     5.8810 *     5.8810    0.0000     4          
    72  Li    c      9.8026 *    -1.9603 *    -1.9603    0.0000     4          
    73  Cl    c     -9.8008 *     0.0000       3.9207 *  0.0000     4          
    74  Li    c     -7.8404 *     5.8810 *     3.9207 *  0.0000     8          
    75  Cl    c     -5.8801 *     3.9207 *     7.8414 *  0.0000     8          
    76  Li    c     -3.9198 *     5.8810 *     7.8414 *  0.0000     8          
    77  Li    c     -3.9198 *     9.8017 *     0.0000    0.0000     4          
    78  Li    c      0.0009 *     9.8017 *     3.9207 *  0.0000     8          
    79  Li    c      3.9216 *     5.8810 *     7.8414 *  0.0000     8          
    80  Li    c      3.9216 *     9.8017 *     0.0000    0.0000     4          
    81  Cl    c      5.8819 *     3.9207 *     7.8414 *  0.0000     8          
    82  Li    c      7.8423 *     3.9207 *     5.8810 *  0.0000     8          
    83  Cl    c      9.8026 *     0.0000       3.9207 *  0.0000     4          
    84  O     c     -3.9198 *    -1.9603 *     9.8017 *  0.0000     8          
    85  O     c      3.9216 *    -1.9603 *     9.8017 *  0.0000     8          
    86  Cl    c     -9.8008 *     3.9207 *     3.9207    0.0000     4          
    87  Li    c     -7.8404 *    -1.9603 *     7.8414 *  0.0000     8          
    88  Li    c     -3.9198 *     3.9207 *     9.8017 *  0.0000     8          
    89  Cl    c     -1.9594 *     7.8414 *     7.8414    0.0000     4          
    90  Cl    c      1.9612 *     7.8414 *     7.8414    0.0000     4          
    91  Li    c      3.9216 *     9.8017 *     3.9207 *  0.0000     8          
    92  Li    c      7.8423 *    -1.9603 *     7.8414 *  0.0000     8          
    93  Cl    c      9.8026 *     3.9207 *     3.9207    0.0000     4          
    94  O     c     -7.8404 *     5.8810 *     5.8810    0.0000     4          
    95  O     c      0.0009 *     5.8810 *     9.8017 *  0.0000     8          
    96  O     c      7.8423 *     5.8810 *     5.8810    0.0000     4          
    97  Li    c     -9.8008 *     5.8810 *    -1.9603 *  0.0000     8          
    98  Li    c     -5.8801 *     9.8017 *    -1.9603 *  0.0000     8          
    99  Li    c     -1.9594 *     5.8810 *     9.8017 *  0.0000     8          
   100  Li    c      1.9612 *     5.8810 *     9.8017 *  0.0000     8          
   101  Li    c      5.8819 *    -1.9603 *     9.8017 *  0.0000     8          
   102  Li    c      9.8026 *     5.8810 *    -1.9603 *  0.0000     8          
   103  Li    c    -11.7611 *    -1.9603 *     0.0000    0.0000     4          
   104  Cl    c     -1.9594 *     0.0000      11.7620 *  0.0000     4          
   105  Li    c      0.0009 *    11.7620 *    -1.9603 *  0.0000     8          
   106  Cl    c      1.9612 *     0.0000      11.7620 *  0.0000     4          
   107  Li    c     11.7629 *    -1.9603 *     0.0000    0.0000     4          
   108  O     c    -11.7611 *    -1.9603 *    -1.9603    0.0000     4          
   109  O     c     -3.9198 *     5.8810 *     9.8017 *  0.0000     8          
   110  O     c      3.9216 *     5.8810 *     9.8017 *  0.0000     8          
   111  O     c     11.7629 *    -1.9603 *    -1.9603    0.0000     4          
   112  Li    c    -11.7611 *    -1.9603 *     3.9207 *  0.0000     8          
   113  Cl    c     -9.8008 *     0.0000       7.8414 *  0.0000     4          
   114  Li    c     -7.8404 *     5.8810 *     7.8414 *  0.0000     8          
   115  Li    c     -7.8404 *     9.8017 *     0.0000    0.0000     4          
   116  Cl    c     -5.8801 *     7.8414 *     7.8414    0.0000     4          
   117  Li    c     -3.9198 *    -1.9603 *    11.7620 *  0.0000     8          
   118  Cl    c     -1.9594 *    11.7620 *     3.9207 *  0.0000     8          
   119  Li    c      0.0009 *     9.8017 *     7.8414 *  0.0000     8          
   120  Cl    c      1.9612 *    11.7620 *     3.9207 *  0.0000     8          
   121  Li    c      3.9216 *    -1.9603 *    11.7620 *  0.0000     8          
   122  Cl    c      5.8819 *     7.8414 *     7.8414    0.0000     4          
   123  Li    c      7.8423 *     5.8810 *     7.8414 *  0.0000     8          
   124  Li    c      7.8423 *     9.8017 *     0.0000    0.0000     4          
   125  Cl    c      9.8026 *     0.0000       7.8414 *  0.0000     4          
   126  Li    c     11.7629 *    -1.9603 *     3.9207 *  0.0000     8          
   127  O     c     -7.8404 *     9.8017 *    -1.9603 *  0.0000     8          
   128  O     c      7.8423 *    -1.9603 *     9.8017 *  0.0000     8          
   129  Li    c     -9.8008 *     5.8810 *     5.8810    0.0000     4          
   130  Li    c     -5.8801 *     9.8017 *     5.8810 *  0.0000     8          
   131  Li    c      5.8819 *     5.8810 *     9.8017 *  0.0000     8          
   132  Li    c      9.8026 *     5.8810 *     5.8810    0.0000     4          
   133  Li    c    -11.7611 *     5.8810 *     0.0000    0.0000     4          
   134  Cl    c     -9.8008 *     3.9207 *     7.8414 *  0.0000     8          
   135  Li    c     -7.8404 *     9.8017 *     3.9207 *  0.0000     8          
   136  Cl    c     -5.8801 *     0.0000      11.7620 *  0.0000     4          
   137  Li    c     -3.9198 *     9.8017 *     7.8414 *  0.0000     8          
   138  Li    c      0.0009 *    11.7620 *     5.8810 *  0.0000     8          
   139  Li    c      3.9216 *     9.8017 *     7.8414 *  0.0000     8          
   140  Cl    c      5.8819 *     0.0000      11.7620 *  0.0000     4          
   141  Li    c      7.8423 *     9.8017 *     3.9207 *  0.0000     8          
   142  Cl    c      9.8026 *     3.9207 *     7.8414 *  0.0000     8          
   143  Li    c     11.7629 *     5.8810 *     0.0000    0.0000     4          
   144  O     c    -11.7611 *    -1.9603 *     5.8810 *  0.0000     8          
   145  O     c     11.7629 *    -1.9603 *     5.8810 *  0.0000     8          
   146  Cl    c    -13.7215 *     0.0000       0.0000    0.0000     1          
   147  Li    c    -11.7611 *     5.8810 *     3.9207 *  0.0000     8          
   148  Cl    c     -5.8801 *     3.9207 *    11.7620 *  0.0000     8          
   149  Li    c     -3.9198 *     5.8810 *    11.7620 *  0.0000     8          
   150  Li    c      0.0009 *    13.7224 *     0.0000    0.0000     4          
   151  Li    c      3.9216 *     5.8810 *    11.7620 *  0.0000     8          
   152  Cl    c      5.8819 *     3.9207 *    11.7620 *  0.0000     8          
   153  Li    c     11.7629 *     5.8810 *     3.9207 *  0.0000     8          
   154  Cl    c     13.7233 *     0.0000       0.0000    0.0000     1          
   155  O     c     -7.8404 *     5.8810 *     9.8017 *  0.0000     8          
   156  O     c      0.0009 *    13.7224 *    -1.9603 *  0.0000     8          
   157  O     c      0.0009 *     9.8017 *     9.8017    0.0000     4          
   158  O     c      7.8423 *     5.8810 *     9.8017 *  0.0000     8          
   159  Li    c    -13.7215 *    -1.9603 *    -1.9603    0.0000     4          
   160  Li    c     -9.8008 *     9.8017 *    -1.9603 *  0.0000     8          
   161  Li    c     -1.9594 *    13.7224 *    -1.9603 *  0.0000     8          
   162  Li    c     -1.9594 *     9.8017 *     9.8017    0.0000     4          
   163  Li    c      1.9612 *    13.7224 *    -1.9603 *  0.0000     8          
   164  Li    c      1.9612 *     9.8017 *     9.8017    0.0000     4          
   165  Li    c      9.8026 *     9.8017 *    -1.9603 *  0.0000     8          
   166  Li    c     13.7233 *    -1.9603 *    -1.9603    0.0000     4          
   167  Cl    c    -13.7215 *     0.0000       3.9207 *  0.0000     4          
   168  Li    c    -11.7611 *    -1.9603 *     7.8414 *  0.0000     8          
   169  Li    c     -7.8404 *    -1.9603 *    11.7620 *  0.0000     8          
   170  Li    c     -3.9198 *    13.7224 *     0.0000    0.0000     4          
   171  Cl    c     -1.9594 *     7.8414 *    11.7620 *  0.0000     8          
   172  Li    c      0.0009 *    13.7224 *     3.9207 *  0.0000     8          
   173  Cl    c      1.9612 *    11.7620 *     7.8414 *  0.0000     8          
   174  Li    c      3.9216 *    13.7224 *     0.0000    0.0000     4          
   175  Li    c      7.8423 *    -1.9603 *    11.7620 *  0.0000     8          
   176  Li    c     11.7629 *    -1.9603 *     7.8414 *  0.0000     8          
   177  Cl    c     13.7233 *     0.0000       3.9207 *  0.0000     4          
   178  O     c    -11.7611 *     5.8810 *     5.8810    0.0000     4          
   179  O     c     -3.9198 *    -1.9603 *    13.7224 *  0.0000     8          
   180  O     c     -3.9198 *     9.8017 *     9.8017    0.0000     4          
   181  O     c      3.9216 *    -1.9603 *    13.7224 *  0.0000     8          
   182  O     c      3.9216 *     9.8017 *     9.8017    0.0000     4          
   183  O     c     11.7629 *     5.8810 *     5.8810    0.0000     4          
   184  Cl    c    -13.7215 *     3.9207 *     3.9207    0.0000     4          
   185  Cl    c     -9.8008 *     7.8414 *     7.8414    0.0000     4          
   186  Li    c     -7.8404 *     9.8017 *     7.8414 *  0.0000     8          
   187  Li    c     -3.9198 *    13.7224 *     3.9207 *  0.0000     8          
   188  Li    c      3.9216 *    13.7224 *     3.9207 *  0.0000     8          
   189  Li    c      7.8423 *     9.8017 *     7.8414 *  0.0000     8          
   190  Cl    c      9.8026 *     7.8414 *     7.8414    0.0000     4          
   191  Cl    c     13.7233 *     3.9207 *     3.9207    0.0000     4          
   192  O     c      0.0009 *     5.8810 *    13.7224 *  0.0000     8          
   193  Li    c    -13.7215 *    -1.9603 *     5.8810 *  0.0000     8          
   194  Li    c     -9.8008 *     5.8810 *     9.8017 *  0.0000     8          
   195  Li    c     -5.8801 *    13.7224 *    -1.9603 *  0.0000     8          
   196  Li    c     -5.8801 *     9.8017 *     9.8017    0.0000     4          
   197  Li    c     -1.9594 *     5.8810 *    13.7224 *  0.0000     8          
   198  Li    c      1.9612 *     5.8810 *    13.7224 *  0.0000     8          
   199  Li    c      5.8819 *    -1.9603 *    13.7224 *  0.0000     8          
   200  Li    c      5.8819 *     9.8017 *     9.8017    0.0000     4          
   201  Li    c      9.8026 *     5.8810 *     9.8017 *  0.0000     8          
   202  Li    c     13.7233 *    -1.9603 *     5.8810 *  0.0000     8          
   203  Li    c    -11.7611 *     5.8810 *     7.8414 *  0.0000     8          
   204  Li    c    -11.7611 *     9.8017 *     0.0000    0.0000     4          
   205  Cl    c     -9.8008 *     0.0000      11.7620 *  0.0000     4          
   206  Li    c     -7.8404 *     5.8810 *    11.7620 *  0.0000     8          
   207  Cl    c     -5.8801 *     7.8414 *    11.7620 *  0.0000     8          
   208  Li    c      0.0009 *    11.7620 *     9.8017 *  0.0000     8          
   209  Cl    c      5.8819 *     7.8414 *    11.7620 *  0.0000     8          
   210  Li    c      7.8423 *     5.8810 *    11.7620 *  0.0000     8          
   211  Cl    c      9.8026 *     0.0000      11.7620 *  0.0000     4          
   212  Li    c     11.7629 *     5.8810 *     7.8414 *  0.0000     8          
   213  Li    c     11.7629 *     9.8017 *     0.0000    0.0000     4          
   214  O     c    -11.7611 *    -1.9603 *     9.8017 *  0.0000     8          
   215  O     c     -3.9198 *     5.8810 *    13.7224 *  0.0000     8          
   216  O     c      3.9216 *     5.8810 *    13.7224 *  0.0000     8          
   217  O     c     11.7629 *    -1.9603 *     9.8017 *  0.0000     8          
   218  Li    c    -15.6818 *    -1.9603 *     0.0000    0.0000     4          
   219  Cl    c    -13.7215 *     0.0000       7.8414 *  0.0000     4          
   220  Li    c    -11.7611 *     9.8017 *     3.9207 *  0.0000     8          
   221  Cl    c     -9.8008 *     3.9207 *    11.7620 *  0.0000     8          
   222  Li    c     -7.8404 *    13.7224 *     0.0000    0.0000     4          
   223  Li    c     -3.9198 *     9.8017 *    11.7620 *  0.0000     8          
   224  Cl    c     -1.9594 *     0.0000      15.6827 *  0.0000     4          
   225  Li    c      0.0009 *    15.6827 *    -1.9603 *  0.0000     8          
   226  Li    c      0.0009 *    13.7224 *     7.8414 *  0.0000     8          
   227  Cl    c      1.9612 *     0.0000      15.6827 *  0.0000     4          
   228  Li    c      3.9216 *     9.8017 *    11.7620 *  0.0000     8          
   229  Li    c      7.8423 *    13.7224 *     0.0000    0.0000     4          
   230  Cl    c      9.8026 *     3.9207 *    11.7620 *  0.0000     8          
   231  Li    c     11.7629 *     9.8017 *     3.9207 *  0.0000     8          
   232  Cl    c     13.7233 *     0.0000       7.8414 *  0.0000     4          
   233  Li    c     15.6836 *    -1.9603 *     0.0000    0.0000     4          
   234  O     c    -15.6818 *    -1.9603 *    -1.9603    0.0000     4          
   235  O     c     -7.8404 *    13.7224 *    -1.9603 *  0.0000     8          
   236  O     c     -7.8404 *     9.8017 *     9.8017    0.0000     4          
   237  O     c      7.8423 *    -1.9603 *    13.7224 *  0.0000     8          
   238  O     c      7.8423 *     9.8017 *     9.8017    0.0000     4          
   239  O     c     15.6836 *    -1.9603 *    -1.9603    0.0000     4          
   240  Li    c    -13.7215 *     5.8810 *     5.8810    0.0000     4          
   241  Li    c     -5.8801 *     5.8810 *    13.7224 *  0.0000     8          
   242  Li    c      5.8819 *     5.8810 *    13.7224 *  0.0000     8          
   243  Li    c     13.7233 *     5.8810 *     5.8810    0.0000     4          
   244  Li    c    -15.6818 *    -1.9603 *     3.9207 *  0.0000     8          
   245  Cl    c    -13.7215 *     3.9207 *     7.8414 *  0.0000     8          
   246  Li    c     -7.8404 *    13.7224 *     3.9207 *  0.0000     8          
   247  Li    c     -3.9198 *    -1.9603 *    15.6827 *  0.0000     8          
   248  Li    c     -3.9198 *     7.8414 *    13.7224 *  0.0000     8          
   249  Cl    c     -1.9594 *     3.9207 *    15.6827 *  0.0000     8          
   250  Cl    c      1.9612 *     3.9207 *    15.6827 *  0.0000     8          
   251  Li    c      3.9216 *    -1.9603 *    15.6827 *  0.0000     8          
   252  Li    c      3.9216 *    13.7224 *     7.8414 *  0.0000     8          
   253  Li    c      7.8423 *     3.9207 *    13.7224 *  0.0000     8          
   254  Cl    c     13.7233 *     3.9207 *     7.8414 *  0.0000     8          
   255  Li    c     15.6836 *    -1.9603 *     3.9207 *  0.0000     8          
   256  O     c    -11.7611 *     5.8810 *     9.8017 *  0.0000     8          
   257  O     c     11.7629 *     5.8810 *     9.8017 *  0.0000     8          
   258  Li    c    -15.6818 *     5.8810 *     0.0000    0.0000     4          
   259  Li    c    -11.7611 *    -1.9603 *    11.7620 *  0.0000     8          
   260  Cl    c     -5.8801 *     0.0000      15.6827 *  0.0000     4          
   261  Cl    c     -1.9594 *    11.7620 *    11.7620    0.0000     4          
   262  Li    c      0.0009 *     5.8810 *    15.6827 *  0.0000     8          
   263  Cl    c      1.9612 *    11.7620 *    11.7620    0.0000     4          
   264  Cl    c      5.8819 *     0.0000      15.6827 *  0.0000     4          
   265  Li    c     11.7629 *    -1.9603 *    11.7620 *  0.0000     8          
   266  Li    c     15.6836 *     5.8810 *     0.0000    0.0000     4          
   267  O     c    -15.6818 *    -1.9603 *     5.8810 *  0.0000     8          
   268  O     c     -7.8404 *     5.8810 *    13.7224 *  0.0000     8          
   269  O     c      0.0009 *     9.8017 *    13.7224 *  0.0000     8          
   270  O     c      7.8423 *     5.8810 *    13.7224 *  0.0000     8          
   271  O     c     15.6836 *    -1.9603 *     5.8810 *  0.0000     8          
   272  Li    c    -13.7215 *    -1.9603 *     9.8017 *  0.0000     8          
   273  Li    c     -9.8008 *    13.7224 *    -1.9603 *  0.0000     8          
   274  Li    c     -9.8008 *     9.8017 *     9.8017    0.0000     4          
   275  Li    c     -1.9594 *    13.7224 *     9.8017 *  0.0000     8          
   276  Li    c      1.9612 *     9.8017 *    13.7224 *  0.0000     8          
   277  Li    c      9.8026 *    -1.9603 *    13.7224 *  0.0000     8          
   278  Li    c      9.8026 *     9.8017 *     9.8017    0.0000     4          
   279  Li    c     13.7233 *     9.8017 *    -1.9603 *  0.0000     8          
   280  Li    c    -15.6818 *     3.9207 *     5.8810 *  0.0000     8          
   281  Li    c    -11.7611 *     9.8017 *     7.8414 *  0.0000     8          
   282  Cl    c     -9.8008 *     7.8414 *    11.7620 *  0.0000     8          
   283  Li    c     -7.8404 *     9.8017 *    11.7620 *  0.0000     8          
   284  Cl    c     -5.8801 *     3.9207 *    15.6827 *  0.0000     8          
   285  Li    c     -3.9198 *     5.8810 *    15.6827 *  0.0000     8          
   286  Li    c      3.9216 *     5.8810 *    15.6827 *  0.0000     8          
   287  Cl    c      5.8819 *     3.9207 *    15.6827 *  0.0000     8          
   288  Li    c      7.8423 *     9.8017 *    11.7620 *  0.0000     8          
   289  Cl    c      9.8026 *     7.8414 *    11.7620 *  0.0000     8          
   290  Li    c     11.7629 *     9.8017 *     7.8414 *  0.0000     8          
   291  Li    c     15.6836 *     3.9207 *     5.8810 *  0.0000     8          
   292  O     c     -3.9198 *     9.8017 *    13.7224 *  0.0000     8          
   293  O     c      3.9216 *     9.8017 *    13.7224 *  0.0000     8          
   294  Cl    c    -17.6421 *     0.0000       0.0000    0.0000     1          
   295  Li    c    -15.6818 *    -1.9603 *     7.8414 *  0.0000     8          
   296  Cl    c    -13.7215 *     7.8414 *     7.8414    0.0000     4          
   297  Li    c    -11.7611 *     5.8810 *    11.7620 *  0.0000     8          
   298  Li    c     -7.8404 *    -1.9603 *    15.6827 *  0.0000     8          
   299  Li    c     -7.8404 *    13.7224 *     7.8414 *  0.0000     8          
   300  Cl    c     -5.8801 *    11.7620 *    11.7620    0.0000     4          
   301  Cl    c     -1.9594 *     7.8414 *    15.6827 *  0.0000     8          
   302  Li    c      0.0009 *    17.6430 *     0.0000    0.0000     4          
   303  Cl    c      1.9612 *     7.8414 *    15.6827 *  0.0000     8          
   304  Cl    c      5.8819 *    11.7620 *    11.7620    0.0000     4          
   305  Li    c      7.8423 *    -1.9603 *    15.6827 *  0.0000     8          
   306  Li    c      7.8423 *     7.8414 *    13.7224 *  0.0000     8          
   307  Li    c     11.7629 *     5.8810 *    11.7620 *  0.0000     8          
   308  Cl    c     13.7233 *     7.8414 *     7.8414    0.0000     4          
   309  Li    c     15.6836 *    -1.9603 *     7.8414 *  0.0000     8          
   310  Cl    c     17.6439 *     0.0000       0.0000    0.0000     1          
   311  O     c    -15.6818 *     5.8810 *     5.8810    0.0000     4          
   312  O     c      0.0009 *    -1.9603 *    17.6430 *  0.0000     8          
   313  O     c     15.6836 *     5.8810 *     5.8810    0.0000     4          
   314  Li    c    -17.6421 *    -1.9603 *    -1.9603    0.0000     4          
   315  Li    c    -13.7215 *     5.8810 *     9.8017 *  0.0000     8          
   316  Li    c     -9.8008 *     5.8810 *    13.7224 *  0.0000     8          
   317  Li    c     -5.8801 *     9.8017 *    13.7224 *  0.0000     8          
   318  Li    c     -1.9594 *    -1.9603 *    17.6430 *  0.0000     8          
   319  Li    c      1.9612 *    -1.9603 *    17.6430 *  0.0000     8          
   320  Li    c      5.8819 *     9.8017 *    13.7224 *  0.0000     8          
   321  Li    c      9.8026 *     5.8810 *    13.7224 *  0.0000     8          
   322  Li    c     13.7233 *     9.8017 *     5.8810 *  0.0000     8          
   323  Li    c     17.6439 *    -1.9603 *    -1.9603    0.0000     4          
   324  Cl    c    -17.6421 *     0.0000       3.9207 *  0.0000     4          
   325  Cl    c    -13.7215 *     0.0000      11.7620 *  0.0000     4          
   326  Li    c    -11.7611 *    13.7224 *     0.0000    0.0000     4          
   327  Li    c     -3.9198 *    17.6430 *     0.0000    0.0000     4          
   328  Li    c      0.0009 *    13.7224 *    11.7620 *  0.0000     8          
   329  Li    c      0.0009 *    17.6430 *     3.9207 *  0.0000     8          
   330  Li    c      3.9216 *    17.6430 *     0.0000    0.0000     4          
   331  Li    c     11.7629 *    13.7224 *     0.0000    0.0000     4          
   332  Cl    c     13.7233 *     0.0000      11.7620 *  0.0000     4          
   333  Cl    c     17.6439 *     0.0000       3.9207 *  0.0000     4          
   334  O     c    -11.7611 *    -1.9603 *    13.7224 *  0.0000     8          
   335  O     c    -11.7611 *     9.8017 *     9.8017    0.0000     4          
   336  O     c     -3.9198 *    17.6430 *    -1.9603 *  0.0000     8          
   337  O     c      3.9216 *    17.6430 *    -1.9603 *  0.0000     8          
   338  O     c     11.7629 *    13.7224 *    -1.9603 *  0.0000     8          
   339  O     c     11.7629 *     9.8017 *     9.8017    0.0000     4          
   340  Cl    c    -17.6421 *     3.9207 *     3.9207    0.0000     4          
   341  Li    c    -15.6818 *     9.8017 *     0.0000    0.0000     4          
   342  Li    c    -15.6818 *     7.8414 *     5.8810 *  0.0000     8          
   343  Cl    c    -13.7215 *     3.9207 *    11.7620 *  0.0000     8          
   344  Li    c    -11.7611 *     3.9207 *    13.7224 *  0.0000     8          
   345  Cl    c     -9.8008 *     0.0000      15.6827 *  0.0000     4          
   346  Li    c     -7.8404 *     5.8810 *    15.6827 *  0.0000     8          
   347  Cl    c     -5.8801 *     7.8414 *    15.6827 *  0.0000     8          
   348  Li    c     -3.9198 *    13.7224 *    11.7620 *  0.0000     8          
   349  Li    c     -3.9198 *    17.6430 *     3.9207 *  0.0000     8          
   350  Li    c      0.0009 *     9.8017 *    15.6827 *  0.0000     8          
   351  Li    c      3.9216 *    13.7224 *    11.7620 *  0.0000     8          
   352  Li    c      3.9216 *    17.6430 *     3.9207 *  0.0000     8          
   353  Cl    c      5.8819 *     7.8414 *    15.6827 *  0.0000     8          
   354  Li    c      7.8423 *     5.8810 *    15.6827 *  0.0000     8          
   355  Cl    c      9.8026 *     0.0000      15.6827 *  0.0000     4          
   356  Li    c     11.7629 *    13.7224 *     3.9207 *  0.0000     8          
   357  Cl    c     13.7233 *     3.9207 *    11.7620 *  0.0000     8          
   358  Li    c     15.6836 *     9.8017 *     0.0000    0.0000     4          
   359  Li    c     15.6836 *     7.8414 *     5.8810 *  0.0000     8          
   360  Cl    c     17.6439 *     3.9207 *     3.9207    0.0000     4          
   361  O     c    -15.6818 *     9.8017 *    -1.9603 *  0.0000     8          
   362  O     c     -7.8404 *     9.8017 *    13.7224 *  0.0000     8          
   363  O     c      0.0009 *    17.6430 *     5.8810 *  0.0000     8          
   364  O     c      7.8423 *     9.8017 *    13.7224 *  0.0000     8          
   365  O     c     15.6836 *     9.8017 *    -1.9603 *  0.0000     8          
   366  Li    c    -17.6421 *     5.8810 *    -1.9603 *  0.0000     8          
   367  Li    c     -5.8801 *    -1.9603 *    17.6430 *  0.0000     8          
   368  Li    c     -1.9594 *     5.8810 *    17.6430 *  0.0000     8          
   369  Li    c      1.9612 *    17.6430 *     5.8810 *  0.0000     8          
   370  Li    c      5.8819 *    -1.9603 *    17.6430 *  0.0000     8          
   371  Li    c     17.6439 *    -1.9603 *     5.8810 *  0.0000     8          
   372  Li    c    -15.6818 *     9.8017 *     3.9207 *  0.0000     8          
   373  Cl    c     -9.8008 *     3.9207 *    15.6827 *  0.0000     8          
   374  Li    c     -3.9198 *     9.8017 *    15.6827 *  0.0000     8          
   375  Li    c      3.9216 *     9.8017 *    15.6827 *  0.0000     8          
   376  Cl    c      9.8026 *     3.9207 *    15.6827 *  0.0000     8          
   377  Li    c     15.6836 *     9.8017 *     3.9207 *  0.0000     8          
   378  O     c    -11.7611 *     5.8810 *    13.7224 *  0.0000     8          
   379  O     c     -3.9198 *     5.8810 *    17.6430 *  0.0000     8          
   380  O     c      3.9216 *    17.6430 *     5.8810 *  0.0000     8          
   381  O     c     11.7629 *    13.7224 *     5.8810 *  0.0000     8          
   382  Cl    c    -17.6421 *     0.0000       7.8414 *  0.0000     4          
   383  Li    c    -11.7611 *     9.8017 *    11.7620 *  0.0000     8          
   384  Cl    c     -9.8008 *    11.7620 *    11.7620    0.0000     4          
   385  Li    c     -7.8404 *    17.6430 *     0.0000    0.0000     4          
   386  Li    c      0.0009 *    17.6430 *     7.8414 *  0.0000     8          
   387  Li    c      7.8423 *    17.6430 *     0.0000    0.0000     4          
   388  Cl    c      9.8026 *    11.7620 *    11.7620    0.0000     4          
   389  Li    c     11.7629 *     9.8017 *    11.7620 *  0.0000     8          
   390  Cl    c     17.6439 *     0.0000       7.8414 *  0.0000     4          
   391  O     c    -15.6818 *     9.8017 *     5.8810 *  0.0000     8          
   392  O     c     -7.8404 *    -1.9603 *    17.6430 *  0.0000     8          
   393  O     c      0.0009 *    13.7224 *    13.7224    0.0000     4          
   394  O     c      7.8423 *    -1.9603 *    17.6430 *  0.0000     8          
   395  O     c     15.6836 *     9.8017 *     5.8810 *  0.0000     8          
   396  Li    c    -17.6421 *     5.8810 *     5.8810    0.0000     4          
   397  Li    c    -13.7215 *    -1.9603 *    13.7224 *  0.0000     8          
   398  Li    c    -13.7215 *     9.8017 *     9.8017    0.0000     4          
   399  Li    c     -9.8008 *     9.8017 *    13.7224 *  0.0000     8          
   400  Li    c     -5.8801 *     5.8810 *    17.6430 *  0.0000     8          
   401  Li    c     -1.9594 *    13.7224 *    13.7224    0.0000     4          
   402  Li    c      1.9612 *    13.7224 *    13.7224    0.0000     4          
   403  Li    c      5.8819 *     5.8810 *    17.6430 *  0.0000     8          
   404  Li    c      9.8026 *     9.8017 *    13.7224 *  0.0000     8          
   405  Li    c     13.7233 *    13.7224 *    -1.9603 *  0.0000     8          
   406  Li    c     13.7233 *     9.8017 *     9.8017    0.0000     4          
   407  Li    c     17.6439 *     5.8810 *     5.8810    0.0000     4          
   408  Li    c    -19.6025 *    -1.9603 *     0.0000    0.0000     4          
   409  Cl    c    -17.6421 *     3.9207 *     7.8414 *  0.0000     8          
   410  Li    c    -15.6818 *    -1.9603 *    11.7620 *  0.0000     8          
   411  Cl    c    -13.7215 *     7.8414 *    11.7620 *  0.0000     8          
   412  Li    c    -11.7611 *    15.6827 *    -1.9603 *  0.0000     8          
   413  Li    c    -11.7611 *     7.8414 *    13.7224 *  0.0000     8          
   414  Li    c     -7.8404 *    13.7224 *    11.7620 *  0.0000     8          
   415  Li    c     -7.8404 *    17.6430 *     3.9207 *  0.0000     8          
   416  Li    c     -3.9198 *    17.6430 *     7.8414 *  0.0000     8          
   417  Cl    c     -1.9594 *    11.7620 *    15.6827 *  0.0000     8          
   418  Cl    c     -1.9594 *     0.0000      19.6034 *  0.0000     4          
   419  Li    c      0.0009 *    -1.9603 *    19.6034 *  0.0000     8          
   420  Cl    c      1.9612 *    11.7620 *    15.6827 *  0.0000     8          
   421  Cl    c      1.9612 *     0.0000      19.6034 *  0.0000     4          
   422  Li    c      3.9216 *    17.6430 *     7.8414 *  0.0000     8          
   423  Li    c      7.8423 *    13.7224 *    11.7620 *  0.0000     8          
   424  Li    c      7.8423 *    17.6430 *     3.9207 *  0.0000     8          
   425  Li    c     11.7629 *    -1.9603 *    15.6827 *  0.0000     8          
   426  Li    c     11.7629 *    13.7224 *     7.8414 *  0.0000     8          
   427  Cl    c     13.7233 *     7.8414 *    11.7620 *  0.0000     8          
   428  Li    c     15.6836 *    -1.9603 *    11.7620 *  0.0000     8          
   429  Cl    c     17.6439 *     3.9207 *     7.8414 *  0.0000     8          
   430  Li    c     19.6043 *    -1.9603 *     0.0000    0.0000     4          
   431  O     c    -19.6025 *    -1.9603 *    -1.9603    0.0000     4          
   432  O     c     -3.9198 *    13.7224 *    13.7224    0.0000     4          
   433  O     c      3.9216 *    13.7224 *    13.7224    0.0000     4          
   434  O     c     19.6043 *    -1.9603 *    -1.9603    0.0000     4          
   435  Cl    s      0.0000       0.0000       0.0000    0.0000     1    Defect
   436  O     s      0.0009 *    -1.9603 *    -1.9603    0.0000     4          
   437  Cl    s     -1.9594 *     0.0000       3.9207 *  0.0000     4          
   438  Cl    s      1.9612 *     0.0000       3.9207 *  0.0000     4          
   439  O     s     -3.9198 *    -1.9603 *    -1.9603    0.0000     4          
   440  O     s      3.9216 *    -1.9603 *    -1.9603    0.0000     4          
   441  Cl    s     -5.8801 *     0.0000       0.0000    0.0000     1          
   442  Cl    s     -1.9594 *     3.9207 *     3.9207    0.0000     4          
   443  Cl    s      1.9612 *     3.9207 *     3.9207    0.0000     4          
   444  Cl    s      5.8819 *     0.0000       0.0000    0.0000     1          
   445  O     s      0.0009 *    -1.9603 *     5.8810 *  0.0000     8          
   446  Cl    s     -5.8801 *     0.0000       3.9207 *  0.0000     4          
   447  Cl    s      5.8819 *     0.0000       3.9207 *  0.0000     4          
   448  O     s     -3.9198 *    -1.9603 *     5.8810 *  0.0000     8          
   449  O     s      3.9216 *     5.8810 *    -1.9603 *  0.0000     8          
   450  Cl    s     -5.8801 *     3.9207 *     3.9207    0.0000     4          
   451  Cl    s     -1.9594 *     0.0000       7.8414 *  0.0000     4          
   452  Cl    s      1.9612 *     0.0000       7.8414 *  0.0000     4          
   453  Cl    s      5.8819 *     3.9207 *     3.9207    0.0000     4          
   454  O     s     -7.8404 *    -1.9603 *    -1.9603    0.0000     4          
   455  O     s      0.0009 *     5.8810 *     5.8810    0.0000     4          
   456  O     s      7.8423 *    -1.9603 *    -1.9603    0.0000     4          
   457  Cl    s     -1.9594 *     3.9207 *     7.8414 *  0.0000     8          
   458  Cl    s      1.9612 *     3.9207 *     7.8414 *  0.0000     8          
   459  O     s     -3.9198 *     5.8810 *     5.8810    0.0000     4          
   460  O     s      3.9216 *     5.8810 *     5.8810    0.0000     4          
   461  Cl    s     -9.8008 *     0.0000       0.0000    0.0000     1          
   462  Cl    s     -5.8801 *     0.0000       7.8414 *  0.0000     4          
   463  Cl    s      5.8819 *     0.0000       7.8414 *  0.0000     4          
   464  Cl    s      9.8026 *     0.0000       0.0000    0.0000     1          
   465  O     s     -7.8404 *    -1.9603 *     5.8810 *  0.0000     8          
   466  O     s      0.0009 *    -1.9603 *     9.8017 *  0.0000     8          
   467  O     s      7.8423 *    -1.9603 *     5.8810 *  0.0000     8          
   468  Cl    s     -9.8008 *     0.0000       3.9207 *  0.0000     4          
   469  Cl    s     -5.8801 *     3.9207 *     7.8414 *  0.0000     8          
   470  Cl    s      5.8819 *     3.9207 *     7.8414 *  0.0000     8          
   471  Cl    s      9.8026 *     0.0000       3.9207 *  0.0000     4          
   472  O     s     -3.9198 *    -1.9603 *     9.8017 *  0.0000     8          
   473  O     s      3.9216 *    -1.9603 *     9.8017 *  0.0000     8          
   474  Cl    s     -9.8008 *     3.9207 *     3.9207    0.0000     4          
   475  Cl    s     -1.9594 *     7.8414 *     7.8414    0.0000     4          
   476  Cl    s      1.9612 *     7.8414 *     7.8414    0.0000     4          
   477  Cl    s      9.8026 *     3.9207 *     3.9207    0.0000     4          
   478  O     s     -7.8404 *     5.8810 *     5.8810    0.0000     4          
   479  O     s      0.0009 *     5.8810 *     9.8017 *  0.0000     8          
   480  O     s      7.8423 *     5.8810 *     5.8810    0.0000     4          
   481  Cl    s     -1.9594 *     0.0000      11.7620 *  0.0000     4          
   482  Cl    s      1.9612 *     0.0000      11.7620 *  0.0000     4          
   483  O     s    -11.7611 *    -1.9603 *    -1.9603    0.0000     4          
   484  O     s     -3.9198 *     5.8810 *     9.8017 *  0.0000     8          
   485  O     s      3.9216 *     5.8810 *     9.8017 *  0.0000     8          
   486  O     s     11.7629 *    -1.9603 *    -1.9603    0.0000     4          
   487  Cl    s     -9.8008 *     0.0000       7.8414 *  0.0000     4          
   488  Cl    s     -5.8801 *     7.8414 *     7.8414    0.0000     4          
   489  Cl    s     -1.9594 *    11.7620 *     3.9207 *  0.0000     8          
   490  Cl    s      1.9612 *    11.7620 *     3.9207 *  0.0000     8          
   491  Cl    s      5.8819 *     7.8414 *     7.8414    0.0000     4          
   492  Cl    s      9.8026 *     0.0000       7.8414 *  0.0000     4          
   493  O     s     -7.8404 *     9.8017 *    -1.9603 *  0.0000     8          
   494  O     s      7.8423 *    -1.9603 *     9.8017 *  0.0000     8          
   495  Cl    s     -9.8008 *     3.9207 *     7.8414 *  0.0000     8          
   496  Cl    s     -5.8801 *     0.0000      11.7620 *  0.0000     4          
   497  Cl    s      5.8819 *     0.0000      11.7620 *  0.0000     4          
   498  Cl    s      9.8026 *     3.9207 *     7.8414 *  0.0000     8          
   499  O     s    -11.7611 *    -1.9603 *     5.8810 *  0.0000     8          
   500  O     s     11.7629 *    -1.9603 *     5.8810 *  0.0000     8          
   501  Cl    s    -13.7215 *     0.0000       0.0000    0.0000     1          
   502  Cl    s     -5.8801 *     3.9207 *    11.7620 *  0.0000     8          
   503  Cl    s      5.8819 *     3.9207 *    11.7620 *  0.0000     8          
   504  Cl    s     13.7233 *     0.0000       0.0000    0.0000     1          
   505  O     s     -7.8404 *     5.8810 *     9.8017 *  0.0000     8          
   506  O     s      0.0009 *    13.7224 *    -1.9603 *  0.0000     8          
   507  O     s      0.0009 *     9.8017 *     9.8017    0.0000     4          
   508  O     s      7.8423 *     5.8810 *     9.8017 *  0.0000     8          
   509  Cl    s    -13.7215 *     0.0000       3.9207 *  0.0000     4          
   510  Cl    s     -1.9594 *     7.8414 *    11.7620 *  0.0000     8          
   511  Cl    s      1.9612 *    11.7620 *     7.8414 *  0.0000     8          
   512  Cl    s     13.7233 *     0.0000       3.9207 *  0.0000     4          
   513  O     s    -11.7611 *     5.8810 *     5.8810    0.0000     4          
   514  O     s     -3.9198 *    -1.9603 *    13.7224 *  0.0000     8          
   515  O     s     -3.9198 *     9.8017 *     9.8017    0.0000     4          
   516  O     s      3.9216 *    -1.9603 *    13.7224 *  0.0000     8          
   517  O     s      3.9216 *     9.8017 *     9.8017    0.0000     4          
   518  O     s     11.7629 *     5.8810 *     5.8810    0.0000     4          
   519  Cl    s    -13.7215 *     3.9207 *     3.9207    0.0000     4          
   520  Cl    s     -9.8008 *     7.8414 *     7.8414    0.0000     4          
   521  Cl    s      9.8026 *     7.8414 *     7.8414    0.0000     4          
   522  Cl    s     13.7233 *     3.9207 *     3.9207    0.0000     4          
   523  O     s      0.0009 *     5.8810 *    13.7224 *  0.0000     8          
   524  Cl    s     -9.8008 *     0.0000      11.7620 *  0.0000     4          
   525  Cl    s     -5.8801 *     7.8414 *    11.7620 *  0.0000     8          
   526  Cl    s      5.8819 *     7.8414 *    11.7620 *  0.0000     8          
   527  Cl    s      9.8026 *     0.0000      11.7620 *  0.0000     4          
   528  O     s    -11.7611 *    -1.9603 *     9.8017 *  0.0000     8          
   529  O     s     -3.9198 *     5.8810 *    13.7224 *  0.0000     8          
   530  O     s      3.9216 *     5.8810 *    13.7224 *  0.0000     8          
   531  O     s     11.7629 *    -1.9603 *     9.8017 *  0.0000     8          
   532  Cl    s    -13.7215 *     0.0000       7.8414 *  0.0000     4          
   533  Cl    s     -9.8008 *     3.9207 *    11.7620 *  0.0000     8          
   534  Cl    s     -1.9594 *     0.0000      15.6827 *  0.0000     4          
   535  Cl    s      1.9612 *     0.0000      15.6827 *  0.0000     4          
   536  Cl    s      9.8026 *     3.9207 *    11.7620 *  0.0000     8          
   537  Cl    s     13.7233 *     0.0000       7.8414 *  0.0000     4          
   538  O     s    -15.6818 *    -1.9603 *    -1.9603    0.0000     4          
   539  O     s     -7.8404 *    13.7224 *    -1.9603 *  0.0000     8          
   540  O     s     -7.8404 *     9.8017 *     9.8017    0.0000     4          
   541  O     s      7.8423 *    -1.9603 *    13.7224 *  0.0000     8          
   542  O     s      7.8423 *     9.8017 *     9.8017    0.0000     4          
   543  O     s     15.6836 *    -1.9603 *    -1.9603    0.0000     4          
   544  Cl    s    -13.7215 *     3.9207 *     7.8414 *  0.0000     8          
   545  Cl    s     -1.9594 *     3.9207 *    15.6827 *  0.0000     8          
   546  Cl    s      1.9612 *     3.9207 *    15.6827 *  0.0000     8          
   547  Cl    s     13.7233 *     3.9207 *     7.8414 *  0.0000     8          
   548  O     s    -11.7611 *     5.8810 *     9.8017 *  0.0000     8          
   549  O     s     11.7629 *     5.8810 *     9.8017 *  0.0000     8          
   550  Cl    s     -5.8801 *     0.0000      15.6827 *  0.0000     4          
   551  Cl    s     -1.9594 *    11.7620 *    11.7620    0.0000     4          
   552  Cl    s      1.9612 *    11.7620 *    11.7620    0.0000     4          
   553  Cl    s      5.8819 *     0.0000      15.6827 *  0.0000     4          
   554  O     s    -15.6818 *    -1.9603 *     5.8810 *  0.0000     8          
   555  O     s     -7.8404 *     5.8810 *    13.7224 *  0.0000     8          
   556  O     s      0.0009 *     9.8017 *    13.7224 *  0.0000     8          
   557  O     s      7.8423 *     5.8810 *    13.7224 *  0.0000     8          
   558  O     s     15.6836 *    -1.9603 *     5.8810 *  0.0000     8          
   559  Cl    s     -9.8008 *     7.8414 *    11.7620 *  0.0000     8          
   560  Cl    s     -5.8801 *     3.9207 *    15.6827 *  0.0000     8          
   561  Cl    s      5.8819 *     3.9207 *    15.6827 *  0.0000     8          
   562  Cl    s      9.8026 *     7.8414 *    11.7620 *  0.0000     8          
   563  O     s     -3.9198 *     9.8017 *    13.7224 *  0.0000     8          
   564  O     s      3.9216 *     9.8017 *    13.7224 *  0.0000     8          
   565  Cl    s    -17.6421 *     0.0000       0.0000    0.0000     1          
   566  Cl    s    -13.7215 *     7.8414 *     7.8414    0.0000     4          
   567  Cl    s     -5.8801 *    11.7620 *    11.7620    0.0000     4          
   568  Cl    s     -1.9594 *     7.8414 *    15.6827 *  0.0000     8          
   569  Cl    s      1.9612 *     7.8414 *    15.6827 *  0.0000     8          
   570  Cl    s      5.8819 *    11.7620 *    11.7620    0.0000     4          
   571  Cl    s     13.7233 *     7.8414 *     7.8414    0.0000     4          
   572  Cl    s     17.6439 *     0.0000       0.0000    0.0000     1          
   573  O     s    -15.6818 *     5.8810 *     5.8810    0.0000     4          
   574  O     s      0.0009 *    -1.9603 *    17.6430 *  0.0000     8          
   575  O     s     15.6836 *     5.8810 *     5.8810    0.0000     4          
   576  Cl    s    -17.6421 *     0.0000       3.9207 *  0.0000     4          
   577  Cl    s    -13.7215 *     0.0000      11.7620 *  0.0000     4          
   578  Cl    s     13.7233 *     0.0000      11.7620 *  0.0000     4          
   579  Cl    s     17.6439 *     0.0000       3.9207 *  0.0000     4          
   580  O     s    -11.7611 *    -1.9603 *    13.7224 *  0.0000     8          
   581  O     s    -11.7611 *     9.8017 *     9.8017    0.0000     4          
   582  O     s     -3.9198 *    17.6430 *    -1.9603 *  0.0000     8          
   583  O     s      3.9216 *    17.6430 *    -1.9603 *  0.0000     8          
   584  O     s     11.7629 *    13.7224 *    -1.9603 *  0.0000     8          
   585  O     s     11.7629 *     9.8017 *     9.8017    0.0000     4          
   586  Cl    s    -17.6421 *     3.9207 *     3.9207    0.0000     4          
   587  Cl    s    -13.7215 *     3.9207 *    11.7620 *  0.0000     8          
   588  Cl    s     -9.8008 *     0.0000      15.6827 *  0.0000     4          
   589  Cl    s     -5.8801 *     7.8414 *    15.6827 *  0.0000     8          
   590  Cl    s      5.8819 *     7.8414 *    15.6827 *  0.0000     8          
   591  Cl    s      9.8026 *     0.0000      15.6827 *  0.0000     4          
   592  Cl    s     13.7233 *     3.9207 *    11.7620 *  0.0000     8          
   593  Cl    s     17.6439 *     3.9207 *     3.9207    0.0000     4          
   594  O     s    -15.6818 *     9.8017 *    -1.9603 *  0.0000     8          
   595  O     s     -7.8404 *     9.8017 *    13.7224 *  0.0000     8          
   596  O     s      0.0009 *    17.6430 *     5.8810 *  0.0000     8          
   597  O     s      7.8423 *     9.8017 *    13.7224 *  0.0000     8          
   598  O     s     15.6836 *     9.8017 *    -1.9603 *  0.0000     8          
   599  Cl    s     -9.8008 *     3.9207 *    15.6827 *  0.0000     8          
   600  Cl    s      9.8026 *     3.9207 *    15.6827 *  0.0000     8          
   601  O     s    -11.7611 *     5.8810 *    13.7224 *  0.0000     8          
   602  O     s     -3.9198 *     5.8810 *    17.6430 *  0.0000     8          
   603  O     s      3.9216 *    17.6430 *     5.8810 *  0.0000     8          
   604  O     s     11.7629 *    13.7224 *     5.8810 *  0.0000     8          
   605  Cl    s    -17.6421 *     0.0000       7.8414 *  0.0000     4          
   606  Cl    s     -9.8008 *    11.7620 *    11.7620    0.0000     4          
   607  Cl    s      9.8026 *    11.7620 *    11.7620    0.0000     4          
   608  Cl    s     17.6439 *     0.0000       7.8414 *  0.0000     4          
   609  O     s    -15.6818 *     9.8017 *     5.8810 *  0.0000     8          
   610  O     s     -7.8404 *    -1.9603 *    17.6430 *  0.0000     8          
   611  O     s      0.0009 *    13.7224 *    13.7224    0.0000     4          
   612  O     s      7.8423 *    -1.9603 *    17.6430 *  0.0000     8          
   613  O     s     15.6836 *     9.8017 *     5.8810 *  0.0000     8          
   614  Cl    s    -17.6421 *     3.9207 *     7.8414 *  0.0000     8          
   615  Cl    s    -13.7215 *     7.8414 *    11.7620 *  0.0000     8          
   616  Cl    s     -1.9594 *    11.7620 *    15.6827 *  0.0000     8          
   617  Cl    s     -1.9594 *     0.0000      19.6034 *  0.0000     4          
   618  Cl    s      1.9612 *    11.7620 *    15.6827 *  0.0000     8          
   619  Cl    s      1.9612 *     0.0000      19.6034 *  0.0000     4          
   620  Cl    s     13.7233 *     7.8414 *    11.7620 *  0.0000     8          
   621  Cl    s     17.6439 *     3.9207 *     7.8414 *  0.0000     8          
   622  O     s    -19.6025 *    -1.9603 *    -1.9603    0.0000     4          
   623  O     s     -3.9198 *    13.7224 *    13.7224    0.0000     4          
   624  O     s      3.9216 *    13.7224 *    13.7224    0.0000     4          
   625  O     s     19.6043 *    -1.9603 *    -1.9603    0.0000     4          
--------------------------------------------------------------------------------


  Constraints on symmetry reduced coordinates :

--------------------------------------------------------------------------------
  Constraint no.      Unconstrained     Constrained    Coefficient    
                         Variable         Variable
--------------------------------------------------------------------------------
           1                 3 y             3 z         1.00000
           2                 4 y             4 z         1.00000
           3                 5 y             5 z         1.00000
           4                11 y            11 z         1.00000
           5                12 y            12 z         1.00000
           6                15 y            15 z         1.00000
           7                17 y            17 z         1.00000
           8                21 y            21 z         1.00000
           9                24 y            24 z         1.00000
          10                33 y            33 z         1.00000
          11                39 y            39 z         1.00000
          12                41 y            41 z         1.00000
          13                42 y            42 z         1.00000
          14                43 y            43 z         1.00000
          15                45 y            45 z         1.00000
          16                46 y            46 z         1.00000
          17                54 y            54 z         1.00000
          18                55 y            55 z         1.00000
          19                67 y            67 z         1.00000
          20                68 y            68 z         1.00000
          21                71 y            71 z         1.00000
          22                72 y            72 z         1.00000
          23                86 y            86 z         1.00000
          24                89 y            89 z         1.00000
          25                90 y            90 z         1.00000
          26                93 y            93 z         1.00000
          27                94 y            94 z         1.00000
          28                96 y            96 z         1.00000
          29               108 y           108 z         1.00000
          30               111 y           111 z         1.00000
          31               116 y           116 z         1.00000
          32               122 y           122 z         1.00000
          33               129 y           129 z         1.00000
          34               132 y           132 z         1.00000
          35               157 y           157 z         1.00000
          36               159 y           159 z         1.00000
          37               162 y           162 z         1.00000
          38               164 y           164 z         1.00000
          39               166 y           166 z         1.00000
          40               178 y           178 z         1.00000
          41               180 y           180 z         1.00000
          42               182 y           182 z         1.00000
          43               183 y           183 z         1.00000
          44               184 y           184 z         1.00000
          45               185 y           185 z         1.00000
          46               190 y           190 z         1.00000
          47               191 y           191 z         1.00000
          48               196 y           196 z         1.00000
          49               200 y           200 z         1.00000
          50               234 y           234 z         1.00000
          51               236 y           236 z         1.00000
          52               238 y           238 z         1.00000
          53               239 y           239 z         1.00000
          54               240 y           240 z         1.00000
          55               243 y           243 z         1.00000
          56               261 y           261 z         1.00000
          57               263 y           263 z         1.00000
          58               274 y           274 z         1.00000
          59               278 y           278 z         1.00000
          60               296 y           296 z         1.00000
          61               300 y           300 z         1.00000
          62               304 y           304 z         1.00000
          63               308 y           308 z         1.00000
          64               311 y           311 z         1.00000
          65               313 y           313 z         1.00000
          66               314 y           314 z         1.00000
          67               323 y           323 z         1.00000
          68               335 y           335 z         1.00000
          69               339 y           339 z         1.00000
          70               340 y           340 z         1.00000
          71               360 y           360 z         1.00000
          72               384 y           384 z         1.00000
          73               388 y           388 z         1.00000
          74               393 y           393 z         1.00000
          75               396 y           396 z         1.00000
          76               398 y           398 z         1.00000
          77               401 y           401 z         1.00000
          78               402 y           402 z         1.00000
          79               406 y           406 z         1.00000
          80               407 y           407 z         1.00000
          81               431 y           431 z         1.00000
          82               432 y           432 z         1.00000
          83               433 y           433 z         1.00000
          84               434 y           434 z         1.00000
          85               436 y           436 z         1.00000
[...]
    545 y          3.920675      3.920927     0.000251    Cartesian    0.01
    545 z         15.682702     15.681202    -0.001500    Cartesian   -0.01
    546 x          3.920675      3.920745     0.000069    Cartesian    0.00
    546 y          3.920675      3.920927     0.000252    Cartesian    0.01
    546 z         15.682702     15.681204    -0.001498    Cartesian   -0.01
    547 x         15.682702     15.675728    -0.006974    Cartesian   -0.04
    547 y          3.920675      3.918052    -0.002623    Cartesian   -0.07
    547 z          7.841351      7.836998    -0.004353    Cartesian   -0.06
    548 x         -9.801689     -9.799296     0.002393    Cartesian   -0.02
    548 y          5.881013      5.879392    -0.001621    Cartesian   -0.03
    548 z          9.801689      9.799541    -0.002147    Cartesian   -0.02
    549 x         13.722364     13.719981    -0.002383    Cartesian   -0.02
    549 y          5.881013      5.879396    -0.001617    Cartesian   -0.03
    549 z          9.801689      9.799548    -0.002141    Cartesian   -0.02
    550 x         -3.920675     -3.919513     0.001162    Cartesian   -0.03
    550 y          0.000000      0.000000     0.000000    Cartesian    0.00
    550 z         15.682702     15.680452    -0.002250    Cartesian   -0.01
    551 x          0.000000     -0.000413    -0.000413    Cartesian    0.00
    551 y         11.762026     11.761273    -0.000754    Cartesian   -0.01
    551 z         11.762026     11.761273    -0.000754    Cartesian   -0.01
    552 x          3.920675      3.921091     0.000415    Cartesian    0.01
    552 y         11.762026     11.761274    -0.000752    Cartesian   -0.01
    552 z         11.762026     11.761274    -0.000752    Cartesian   -0.01
    553 x          7.841351      7.840194    -0.001157    Cartesian   -0.01
    553 y          0.000000      0.000000     0.000000    Cartesian    0.00
    553 z         15.682702     15.680455    -0.002247    Cartesian   -0.01
    554 x        -13.722364    -13.719037     0.003327    Cartesian   -0.02
    554 y         -1.960338     -1.959782     0.000556    Cartesian   -0.03
    554 z          5.881013      5.879228    -0.001785    Cartesian   -0.03
    555 x         -5.881013     -5.882063    -0.001049    Cartesian    0.02
    555 y          5.881013      5.881200     0.000186    Cartesian    0.00
    555 z         13.722364     13.723002     0.000638    Cartesian    0.00
    556 x          1.960338      1.960339     0.000001    Cartesian    0.00
    556 y          9.801689      9.803110     0.001421    Cartesian    0.01
    556 z         13.722364     13.724149     0.001785    Cartesian    0.01
    557 x          9.801689      9.802743     0.001055    Cartesian    0.01
    557 y          5.881013      5.881202     0.000189    Cartesian    0.00
    557 z         13.722364     13.723007     0.000643    Cartesian    0.00
    558 x         17.643040     17.639720    -0.003320    Cartesian   -0.02
    558 y         -1.960338     -1.959783     0.000555    Cartesian   -0.03
    558 z          5.881013      5.879231    -0.001783    Cartesian   -0.03
    559 x         -7.841351     -7.840071     0.001280    Cartesian   -0.02
    559 y          7.841351      7.839069    -0.002282    Cartesian   -0.03
    559 z         11.762026     11.759549    -0.002478    Cartesian   -0.02
    560 x         -3.920675     -3.920321     0.000354    Cartesian   -0.01
    560 y          3.920675      3.920592    -0.000084    Cartesian   -0.00
    560 z         15.682702     15.680565    -0.002137    Cartesian   -0.01
    561 x          7.841351      7.841001    -0.000350    Cartesian   -0.00
    561 y          3.920675      3.920593    -0.000083    Cartesian   -0.00
    561 z         15.682702     15.680568    -0.002134    Cartesian   -0.01
    562 x         11.762026     11.760753    -0.001273    Cartesian   -0.01
    562 y          7.841351      7.839072    -0.002279    Cartesian   -0.03
    562 z         11.762026     11.759553    -0.002473    Cartesian   -0.02
    563 x         -1.960338     -1.961770    -0.001432    Cartesian    0.07
    563 y          9.801689      9.802776     0.001087    Cartesian    0.01
    563 z         13.722364     13.723730     0.001366    Cartesian    0.01
    564 x          5.881013      5.882448     0.001435    Cartesian    0.02
    564 y          9.801689      9.802778     0.001089    Cartesian    0.01
    564 z         13.722364     13.723733     0.001368    Cartesian    0.01
    565 x        -15.682702    -15.675678     0.007024    Cartesian   -0.04
    565 y          0.000000      0.000000     0.000000    Cartesian    0.00
    565 z          0.000000      0.000000     0.000000    Cartesian    0.00
    566 x        -11.762026    -11.757650     0.004376    Cartesian   -0.04
    566 y          7.841351      7.838525    -0.002826    Cartesian   -0.04
    566 z          7.841351      7.838525    -0.002826    Cartesian   -0.04
    567 x         -3.920675     -3.921313    -0.000637    Cartesian    0.02
    567 y         11.762026     11.761150    -0.000876    Cartesian   -0.01
    567 z         11.762026     11.761150    -0.000876    Cartesian   -0.01
    568 x          0.000000     -0.000133    -0.000133    Cartesian    0.00
    568 y          7.841351      7.841277    -0.000074    Cartesian   -0.00
    568 z         15.682702     15.681458    -0.001244    Cartesian   -0.01
    569 x          3.920675      3.920810     0.000135    Cartesian    0.00
    569 y          7.841351      7.841277    -0.000074    Cartesian   -0.00
    569 z         15.682702     15.681459    -0.001243    Cartesian   -0.01
    570 x          7.841351      7.841991     0.000640    Cartesian    0.01
    570 y         11.762026     11.761153    -0.000873    Cartesian   -0.01
    570 z         11.762026     11.761153    -0.000873    Cartesian   -0.01
    571 x         15.682702     15.678332    -0.004370    Cartesian   -0.03
    571 y          7.841351      7.838527    -0.002824    Cartesian   -0.04
    571 z          7.841351      7.838527    -0.002824    Cartesian   -0.04
    572 x         19.603377     19.596357    -0.007021    Cartesian   -0.04
    572 y          0.000000      0.000000     0.000000    Cartesian    0.00
    572 z          0.000000      0.000000     0.000000    Cartesian    0.00
    573 x        -13.722364    -13.719870     0.002495    Cartesian   -0.02
    573 y          5.881013      5.880119    -0.000895    Cartesian   -0.02
    573 z          5.881013      5.880119    -0.000895    Cartesian   -0.02
    574 x          1.960338      1.960339     0.000001    Cartesian    0.00
    574 y         -1.960338     -1.961394    -0.001056    Cartesian    0.05
    574 z         17.643040     17.643715     0.000676    Cartesian    0.00
    575 x         17.643040     17.640551    -0.002489    Cartesian   -0.01
    575 y          5.881013      5.880121    -0.000893    Cartesian   -0.02
    575 z          5.881013      5.880121    -0.000893    Cartesian   -0.02
    576 x        -15.682702    -15.677784     0.004918    Cartesian   -0.03
    576 y          0.000000      0.000000     0.000000    Cartesian    0.00
    576 z          3.920675      3.920520    -0.000155    Cartesian   -0.00
    577 x        -11.762026    -11.758882     0.003144    Cartesian   -0.03
    577 y          0.000000      0.000000     0.000000    Cartesian    0.00
    577 z         11.762026     11.759104    -0.002923    Cartesian   -0.02
    578 x         15.682702     15.679563    -0.003139    Cartesian   -0.02
    578 y          0.000000      0.000000     0.000000    Cartesian    0.00
    578 z         11.762026     11.759107    -0.002919    Cartesian   -0.02
    579 x         19.603377     19.598463    -0.004915    Cartesian   -0.03
    579 y          0.000000      0.000000     0.000000    Cartesian    0.00
    579 z          3.920675      3.920521    -0.000155    Cartesian   -0.00
    580 x         -9.801689     -9.802208    -0.000519    Cartesian    0.01
    580 y         -1.960338     -1.960126     0.000212    Cartesian   -0.01
    580 z         13.722364     13.722656     0.000292    Cartesian    0.00
    581 x         -9.801689     -9.801324     0.000365    Cartesian   -0.00
    581 y          9.801689      9.801042    -0.000647    Cartesian   -0.01
    581 z          9.801689      9.801042    -0.000647    Cartesian   -0.01
    582 x         -1.960338     -1.960665    -0.000328    Cartesian    0.02
    582 y         17.643040     17.642952    -0.000088    Cartesian   -0.00
    582 z         -1.960338     -1.960752    -0.000414    Cartesian    0.02
    583 x          5.881013      5.881343     0.000329    Cartesian    0.01
    583 y         17.643040     17.642953    -0.000086    Cartesian   -0.00
    583 z         -1.960338     -1.960752    -0.000414    Cartesian    0.02
    584 x         13.722364     13.722888     0.000524    Cartesian    0.00
    584 y         13.722364     13.722660     0.000296    Cartesian    0.00
    584 z         -1.960338     -1.960127     0.000211    Cartesian   -0.01
    585 x         13.722364     13.722004    -0.000360    Cartesian   -0.00
    585 y          9.801689      9.801045    -0.000644    Cartesian   -0.01
    585 z          9.801689      9.801045    -0.000644    Cartesian   -0.01
    586 x        -15.682702    -15.678118     0.004584    Cartesian   -0.03
    586 y          3.920675      3.919695    -0.000980    Cartesian   -0.02
    586 z          3.920675      3.919695    -0.000980    Cartesian   -0.02
    587 x        -11.762026    -11.758900     0.003127    Cartesian   -0.03
    587 y          3.920675      3.919559    -0.001116    Cartesian   -0.03
    587 z         11.762026     11.759204    -0.002822    Cartesian   -0.02
    588 x         -7.841351     -7.840547     0.000804    Cartesian   -0.01
    588 y          0.000000      0.000000     0.000000    Cartesian    0.00
    588 z         15.682702     15.680320    -0.002382    Cartesian   -0.02
    589 x         -3.920675     -3.920921    -0.000246    Cartesian    0.01
    589 y          7.841351      7.840716    -0.000635    Cartesian   -0.01
    589 z         15.682702     15.680692    -0.002009    Cartesian   -0.01
    590 x          7.841351      7.841599     0.000248    Cartesian    0.00
    590 y          7.841351      7.840717    -0.000634    Cartesian   -0.01
    590 z         15.682702     15.680694    -0.002008    Cartesian   -0.01
    591 x         11.762026     11.761226    -0.000800    Cartesian   -0.01
    591 y          0.000000      0.000000     0.000000    Cartesian    0.00
    591 z         15.682702     15.680323    -0.002379    Cartesian   -0.02
    592 x         15.682702     15.679580    -0.003122    Cartesian   -0.02
    592 y          3.920675      3.919561    -0.001114    Cartesian   -0.03
    592 z         11.762026     11.759207    -0.002819    Cartesian   -0.02
    593 x         19.603377     19.598796    -0.004581    Cartesian   -0.02
    593 y          3.920675      3.919696    -0.000980    Cartesian   -0.02
    593 z          3.920675      3.919696    -0.000980    Cartesian   -0.02
    594 x        -13.722364    -13.720683     0.001681    Cartesian   -0.01
    594 y          9.801689      9.800876    -0.000812    Cartesian   -0.01
    594 z         -1.960338     -1.959927     0.000411    Cartesian   -0.02
    595 x         -5.881013     -5.881901    -0.000888    Cartesian    0.02
    595 y          9.801689      9.801958     0.000270    Cartesian    0.00
    595 z         13.722364     13.722751     0.000386    Cartesian    0.00
    596 x          1.960338      1.960338     0.000000    Cartesian    0.00
    596 y         17.643040     17.643185     0.000145    Cartesian    0.00
    596 z          5.881013      5.881625     0.000612    Cartesian    0.01
    597 x          9.801689      9.802579     0.000890    Cartesian    0.01
    597 y          9.801689      9.801961     0.000272    Cartesian    0.00
    597 z         13.722364     13.722753     0.000389    Cartesian    0.00
    598 x         17.643040     17.641363    -0.001677    Cartesian   -0.01
    598 y          9.801689      9.800879    -0.000810    Cartesian   -0.01
    598 z         -1.960338     -1.959927     0.000411    Cartesian   -0.02
    599 x         -7.841351     -7.840252     0.001099    Cartesian   -0.01
    599 y          3.920675      3.920029    -0.000646    Cartesian   -0.02
    599 z         15.682702     15.679833    -0.002869    Cartesian   -0.02
    600 x         11.762026     11.760931    -0.001096    Cartesian   -0.01
    600 y          3.920675      3.920030    -0.000645    Cartesian   -0.02
    600 z         15.682702     15.679836    -0.002866    Cartesian   -0.02
    601 x         -9.801689     -9.800944     0.000745    Cartesian   -0.01
    601 y          5.881013      5.880422    -0.000591    Cartesian   -0.01
    601 z         13.722364     13.721386    -0.000979    Cartesian   -0.01
    602 x         -1.960338     -1.960596    -0.000259    Cartesian    0.01
    602 y          5.881013      5.881363     0.000350    Cartesian    0.01
    602 z         17.643040     17.643137     0.000097    Cartesian    0.00
    603 x          5.881013      5.881273     0.000260    Cartesian    0.00
    603 y         17.643040     17.643138     0.000098    Cartesian    0.00
    603 z          5.881013      5.881364     0.000351    Cartesian    0.01
    604 x         13.722364     13.721622    -0.000742    Cartesian   -0.01
    604 y         13.722364     13.721388    -0.000976    Cartesian   -0.01
    604 z          5.881013      5.880424    -0.000589    Cartesian   -0.01
    605 x        -15.682702    -15.677262     0.005440    Cartesian   -0.03
    605 y          0.000000      0.000000     0.000000    Cartesian    0.00
    605 z          7.841351      7.838787    -0.002564    Cartesian   -0.03
    606 x         -7.841351     -7.840791     0.000560    Cartesian   -0.01
    606 y         11.762026     11.760019    -0.002007    Cartesian   -0.02
    606 z         11.762026     11.760019    -0.002007    Cartesian   -0.02
    607 x         11.762026     11.761470    -0.000557    Cartesian   -0.00
    607 y         11.762026     11.760022    -0.002005    Cartesian   -0.02
    607 z         11.762026     11.760022    -0.002005    Cartesian   -0.02
    608 x         19.603377     19.597940    -0.005438    Cartesian   -0.03
    608 y          0.000000      0.000000     0.000000    Cartesian    0.00
    608 z          7.841351      7.838788    -0.002563    Cartesian   -0.03
    609 x        -13.722364    -13.719968     0.002396    Cartesian   -0.02
    609 y          9.801689      9.799905    -0.001784    Cartesian   -0.02
    609 z          5.881013      5.879730    -0.001283    Cartesian   -0.02
    610 x         -5.881013     -5.880412     0.000602    Cartesian   -0.01
    610 y         -1.960338     -1.960313     0.000025    Cartesian   -0.00
    610 z         17.643040     17.641913    -0.001127    Cartesian   -0.01
    611 x          1.960338      1.960338     0.000000    Cartesian    0.00
    611 y         13.722364     13.722057    -0.000307    Cartesian   -0.00
    611 z         13.722364     13.722057    -0.000307    Cartesian   -0.00
    612 x          9.801689      9.801088    -0.000600    Cartesian   -0.01
    612 y         -1.960338     -1.960313     0.000025    Cartesian   -0.00
    612 z         17.643040     17.641914    -0.001126    Cartesian   -0.01
    613 x         17.643040     17.640646    -0.002394    Cartesian   -0.01
    613 y          9.801689      9.799906    -0.001782    Cartesian   -0.02
    613 z          5.881013      5.879731    -0.001282    Cartesian   -0.02
    614 x        -15.682702    -15.676869     0.005833    Cartesian   -0.04
    614 y          3.920675      3.919135    -0.001540    Cartesian   -0.04
    614 z          7.841351      7.838565    -0.002786    Cartesian   -0.04
    615 x        -11.762026    -11.758153     0.003873    Cartesian   -0.03
    615 y          7.841351      7.838857    -0.002494    Cartesian   -0.03
    615 z         11.762026     11.758294    -0.003733    Cartesian   -0.03
    616 x          0.000000      0.000497     0.000497    Cartesian    0.00
    616 y         11.762026     11.759790    -0.002236    Cartesian   -0.02
    616 z         15.682702     15.679218    -0.003484    Cartesian   -0.02
    617 x          0.000000      0.000503     0.000503    Cartesian    0.00
    617 y          0.000000      0.000000     0.000000    Cartesian    0.00
    617 z         19.603377     19.597457    -0.005920    Cartesian   -0.03
    618 x          3.920675      3.920179    -0.000496    Cartesian   -0.01
    618 y         11.762026     11.759791    -0.002236    Cartesian   -0.02
    618 z         15.682702     15.679219    -0.003483    Cartesian   -0.02
    619 x          3.920675      3.920174    -0.000502    Cartesian   -0.01
    619 y          0.000000      0.000000     0.000000    Cartesian    0.00
    619 z         19.603377     19.597458    -0.005920    Cartesian   -0.03
    620 x         15.682702     15.678832    -0.003870    Cartesian   -0.02
    620 y          7.841351      7.838859    -0.002492    Cartesian   -0.03
    620 z         11.762026     11.758296    -0.003731    Cartesian   -0.03
    621 x         19.603377     19.597546    -0.005831    Cartesian   -0.03
    621 y          3.920675      3.919136    -0.001540    Cartesian   -0.04
    621 z          7.841351      7.838566    -0.002785    Cartesian   -0.04
    622 x        -17.643040    -17.639930     0.003109    Cartesian   -0.02
    622 y         -1.960338     -1.959715     0.000622    Cartesian   -0.03
    622 z         -1.960338     -1.959715     0.000622    Cartesian   -0.03
    623 x         -1.960338     -1.959740     0.000598    Cartesian   -0.03
    623 y         13.722364     13.721084    -0.001281    Cartesian   -0.01
    623 z         13.722364     13.721084    -0.001281    Cartesian   -0.01
    624 x          5.881013      5.880416    -0.000597    Cartesian   -0.01
    624 y         13.722364     13.721084    -0.001280    Cartesian   -0.01
    624 z         13.722364     13.721084    -0.001280    Cartesian   -0.01
    625 x         21.563715     21.560607    -0.003108    Cartesian   -0.01
    625 y         -1.960338     -1.959715     0.000622    Cartesian   -0.03
    625 z         -1.960338     -1.959715     0.000622    Cartesian   -0.03
--------------------------------------------------------------------------------


  Time to end of optimisation  =       94.0074 seconds


  Peak dynamic memory used =    1728.19 MB 


  Timing analysis for GULP :

--------------------------------------------------------------------------------
  Task / Subroutine                                          Time (Seconds)
--------------------------------------------------------------------------------
  Calculation of reciprocal space energy and derivatives          0.0005
  Calculation of reciprocal space energy using symmetry           0.0003
  Calculation of real space energy and derivatives                0.0021
  Calculation of real space energy using symmetry                 0.0039
  Calculation for region 1 energy and derivatives (2-b)          52.1519
  Calculation for region 2a energy                               13.3753
  Calculation for region 2b energy                                0.0016
  Calculation and manipulation of Hessian matrix                 25.5505
  Calculation of matrix inversion                                 2.0427
  Symmetry generation of equivalent positions                     0.0017
--------------------------------------------------------------------------------
  Total CPU time                                                 94.0074
--------------------------------------------------------------------------------


  Dump file written as Li3OCl.grs


  Job Finished at 13:17.43 21st October    2020                               

