********************************************************************************
*                       GENERAL UTILITY LATTICE PROGRAM                        *
*                                 Julian Gale                                  *
*                       Curtin Institute for Computation                       *
*                    School of Molecular and Life Sciences                     *
*                    Curtin University, Western Australia                      *
********************************************************************************
* Version = 5.2.0 * Last modified =  10th September 2020                       *
********************************************************************************
*  optimise     - perform optimisation run                                     *
*  conp         - constant pressure calculation                                *
*  property     - calculate properties for final geometry                      *
*  defect       - perform defect calculation after bulk run                    *
*  compare      - compare initial and final structures                         *
********************************************************************************

  Job Started  at 13:17.43 21st October    2020                               

  Number of CPUs =     1


  Total number of configurations input =      1

********************************************************************************
*  Input for Configuration =   1                                               *
********************************************************************************

  Formula = ClOLi3                                                      

  Number of irreducible atoms/shells =       5


  Total number atoms/shells =       7

  Dimensionality = 3               :  Bulk   


  Symmetry :

  Crystal family                   :  Cubic       
  Crystal class  (Groth - 1921)    :  Cubic Hexakisoctahedral              

  Space group (centrosymmetric)    :  P M 3 M         

  Patterson group                  :  P m -3 m 

  Cartesian lattice vectors (Angstroms) :

        3.918873    0.000000    0.000000
        0.000000    3.918873    0.000000
        0.000000    0.000000    3.918873

  Cell parameters (Angstroms/Degrees):

  a =       3.9189    alpha =  90.0000
  b =       3.9189    beta  =  90.0000
  c =       3.9189    gamma =  90.0000

  Initial cell volume =          60.184349 Angs**3

  Temperature of configuration =   0.00     K 

  Pressure of configuration =         0.000 GPa 

  Fractional coordinates of asymmetric unit :

--------------------------------------------------------------------------------
   No.  Atomic       x           y          z         Charge      Occupancy
        Label      (Frac)      (Frac)     (Frac)        (e)         (Frac)  
--------------------------------------------------------------------------------
      1 Cl    c    0.000000    0.000000    0.000000     1.48500    1.000000    
      2 O     c    0.500000    0.500000    0.500000     0.18300    1.000000    
      3 Li    c    0.500000    0.500000    0.000000     1.00000    1.000000    
      4 Cl    s    0.000000    0.000000    0.000000    -2.48500    1.000000    
      5 O     s    0.500000    0.500000    0.500000    -2.18300    1.000000    
--------------------------------------------------------------------------------


  Constraints : 

--------------------------------------------------------------------------------
  Constraint no.      Unconstrained     Constrained    Coefficient    Offset
                         Variable         Variable
--------------------------------------------------------------------------------
           1              Strain 1        Strain 2       1.00000      0.0000
           2              Strain 1        Strain 3       1.00000      0.0000
--------------------------------------------------------------------------------


********************************************************************************
*  General input information                                                   *
********************************************************************************

  Species output for all configurations : 

--------------------------------------------------------------------------------
  Species    Type    Atomic    Atomic    Charge       Radii (Angs)     Library
                     Number     Mass       (e)     Cova   Ionic  VDW   Symbol
--------------------------------------------------------------------------------
    Li       Core        3       6.94   1.000000   0.680  0.000  1.800          
    O        Core        8      16.00   0.183000   0.730  0.000  1.360          
    O        Shell       8       0.00  -2.183000   0.730  0.000  1.360          
    Cl       Core       17      35.45   1.485000   0.990  0.000  1.650          
    Cl       Shell      17       0.00  -2.485000   0.990  0.000  1.650          
--------------------------------------------------------------------------------


  Lattice summation method               =    Ewald          (3-D)
                                         =    Parry          (2-D)
                                         =    Saunders et al (1-D)
  Accuracy factor for lattice sums       =   12.000


  Analytic derivatives to be used

  Time limit = Infinity

  Maximum range for interatomic potentials =    100000.000000 Angstroms

  General interatomic potentials :

--------------------------------------------------------------------------------
Atom  Types   Potential      Parameter       Value         Units   Cutoffs(Ang)
  1     2                                                            Min /  Max 
--------------------------------------------------------------------------------
O    c O    s Spring (c-s)  Spring k 2       593.72000    eV*Ang^-2 0.000  0.800
                            Spring k 4       0.0000000    eV*Ang^-4 
--------------------------------------------------------------------------------
Cl   c Cl   s Spring (c-s)  Spring k 2       29.380000    eV*Ang^-2 0.000  0.800
                            Spring k 4       0.0000000    eV*Ang^-4 
--------------------------------------------------------------------------------
Li   c Li   c Buckingham    Buckingham A     360.53000    eV        0.000 12.000
                            Buckingham rho  0.16100000    Ang       
                            Buckingham C     0.0000000    eV*Ang^6  
--------------------------------------------------------------------------------
Li   c O    s Buckingham    Buckingham A     292.30000    eV        0.000 12.000
                            Buckingham rho  0.34720000    Ang       
                            Buckingham C     0.0000000    eV*Ang^6  
--------------------------------------------------------------------------------
Li   c Cl   s Buckingham    Buckingham A     421.04000    eV        0.000 12.000
                            Buckingham rho  0.33400000    Ang       
                            Buckingham C     0.0000000    eV*Ang^6  
--------------------------------------------------------------------------------
O    s O    s Buckingham    Buckingham A     22764.300    eV        0.000 12.000
                            Buckingham rho  0.14900000    Ang       
                            Buckingham C     13.190000    eV*Ang^6  
--------------------------------------------------------------------------------
O    s Cl   s Buckingham    Buckingham A     8286.9100    eV        0.000 12.000
                            Buckingham rho  0.25900000    Ang       
                            Buckingham C     62.200000    eV*Ang^6  
--------------------------------------------------------------------------------
Cl   s Cl   s Buckingham    Buckingham A     1227.2000    eV        0.000 12.000
                            Buckingham rho  0.32100000    Ang       
                            Buckingham C     14.530000    eV*Ang^6  
--------------------------------------------------------------------------------

********************************************************************************
*  Output for configuration   1                                                *
********************************************************************************


  Components of energy : 

--------------------------------------------------------------------------------
  Interatomic potentials     =           7.26836263 eV    
  Monopole - monopole (real) =         -11.53475722 eV    
  Monopole - monopole (recip)=         -33.94580548 eV    
  Monopole - monopole (total)=         -45.48056271 eV    
--------------------------------------------------------------------------------
  Total lattice energy       =         -38.21220008 eV    
--------------------------------------------------------------------------------
  Total lattice energy       =           -3686.8932 kJ/(mole unit cells)
--------------------------------------------------------------------------------


  Number of variables =        1

  Maximum number of calculations  =          1000
  Maximum Hessian update interval =            10
  Maximum step size               =   1.000000000
  Maximum parameter tolerance     =   0.000010000
  Maximum function  tolerance     =   0.000010000
  Maximum gradient  tolerance     =   0.001000000
  Maximum gradient  component     =   0.010000000

  Symmetry constrained optimisation

  Symmetry used for second derivatives

  Cell parameters to be optimised using strains

  Newton-Raphson optimiser to be used

  BFGS hessian update to be used

  Lower half triangular hessian to be used

  Start of bulk optimisation :

  Cycle:      0 Energy:       -38.212200  Gnorm:      0.095699  CPU:    0.006
  ** Hessian calculated **
  Cycle:      1 Energy:       -38.212222  Gnorm:      0.000105  CPU:    0.007


  **** Optimisation achieved ****


  Final energy =     -38.21222207 eV
  Final Gnorm  =       0.00000016

  Components of energy : 

--------------------------------------------------------------------------------
  Interatomic potentials     =           7.24743141 eV    
  Monopole - monopole (real) =         -11.52945423 eV    
  Monopole - monopole (recip)=         -33.93019924 eV    
  Monopole - monopole (total)=         -45.45965348 eV    
--------------------------------------------------------------------------------
  Total lattice energy       =         -38.21222207 eV    
--------------------------------------------------------------------------------
  Total lattice energy       =           -3686.8953 kJ/(mole unit cells)
--------------------------------------------------------------------------------

  Final asymmetric unit coordinates :

--------------------------------------------------------------------------------
   No.  Atomic        x           y           z         Radius
        Label       (Frac)      (Frac)      (Frac)       (Angs) 
--------------------------------------------------------------------------------
     1  Cl    c     0.000000    0.000000    0.000000    0.000000
     2  O     c     0.500000    0.500000    0.500000    0.000000
     3  Li    c     0.500000    0.500000    0.000000    0.000000
     4  Cl    s     0.000000    0.000000    0.000000    0.000000
     5  O     s     0.500000    0.500000    0.500000    0.000000
--------------------------------------------------------------------------------

  Final Cartesian lattice vectors (Angstroms) :

        3.920675    0.000000    0.000000
        0.000000    3.920675    0.000000
        0.000000    0.000000    3.920675


  Final cell parameters and derivatives :

--------------------------------------------------------------------------------
       a            3.920675 Angstrom     dE/de1(xx)    -0.000000 eV/strain
       b            3.920675 Angstrom     dE/de2(yy)     0.000000 eV/strain
       c            3.920675 Angstrom     dE/de3(zz)     0.000000 eV/strain
       alpha       90.000000 Degrees      dE/de4(yz)     0.000000 eV/strain
       beta        90.000000 Degrees      dE/de5(xz)     0.000000 eV/strain
       gamma       90.000000 Degrees      dE/de6(xy)     0.000000 eV/strain
--------------------------------------------------------------------------------

  Primitive cell volume =            60.267433 Angs**3

  Density of cell =      1.991276 g/cm**3

  Non-primitive cell volume =            60.267433 Angs**3


  Final internal derivatives :

--------------------------------------------------------------------------------
   No.  Atomic          a             b             c           Radius
        Label          (eV)          (eV)          (eV)        (eV/Angs)
--------------------------------------------------------------------------------
      1 Cl    c       0.000000      0.000000      0.000000      0.000000
      2 O     c       0.000000      0.000000      0.000000      0.000000
      3 Li    c       0.000000      0.000000      0.000000      0.000000
      4 Cl    s       0.000000      0.000000      0.000000      0.000000
      5 O     s       0.000000      0.000000      0.000000      0.000000
--------------------------------------------------------------------------------
  Maximum abs         0.000000      0.000000      0.000000      0.000000
--------------------------------------------------------------------------------

  Comparison of initial and final structures : 

--------------------------------------------------------------------------------
  Parameter   Initial value   Final value   Difference    Units      Percent
--------------------------------------------------------------------------------
    Volume        60.184349     60.267433     0.083084    Angs**3      0.14
    a              3.918873      3.920675     0.001802    Angstroms    0.05
    b              3.918873      3.920675     0.001802    Angstroms    0.05
    c              3.918873      3.920675     0.001802    Angstroms    0.05
    alpha         90.000000     90.000000     0.000000    Degrees      0.00
    beta          90.000000     90.000000     0.000000    Degrees      0.00
    gamma         90.000000     90.000000     0.000000    Degrees      0.00
      1 x          0.000000      0.000000     0.000000    Fractional   0.00
      1 y          0.000000      0.000000     0.000000    Fractional   0.00
      1 z          0.000000      0.000000     0.000000    Fractional   0.00
      2 x          0.500000      0.500000     0.000000    Fractional   0.00
      2 y          0.500000      0.500000     0.000000    Fractional   0.00
      2 z          0.500000      0.500000     0.000000    Fractional   0.00
      3 x          0.500000      0.500000     0.000000    Fractional   0.00
      3 y          0.500000      0.500000     0.000000    Fractional   0.00
      3 z          0.000000      0.000000     0.000000    Fractional   0.00
      4 x          0.000000      0.000000     0.000000    Fractional   0.00
      4 y          0.000000      0.000000     0.000000    Fractional   0.00
      4 z          0.000000      0.000000     0.000000    Fractional   0.00
      5 x          0.500000      0.500000     0.000000    Fractional   0.00
      5 y          0.500000      0.500000     0.000000    Fractional   0.00
      5 z          0.500000      0.500000     0.000000    Fractional   0.00
--------------------------------------------------------------------------------


  Born effective charge tensors : 

-------------------------------------------------------------------------------
  Atom             x           y             z
-------------------------------------------------------------------------------
    1 Cl    x      -0.9489     -0.0000     -0.0000
            y      -0.0000     -0.9489     -0.0000
            z      -0.0000     -0.0000     -0.9489
-------------------------------------------------------------------------------
    2 O     x      -2.4688      0.0000      0.0000
            y       0.0000     -2.4688      0.0000
            z       0.0000      0.0000     -2.4688
-------------------------------------------------------------------------------
    3 Li    x       1.3129      0.0000     -0.0000
            y       0.0000      1.3129      0.0000
            z      -0.0000      0.0000      0.7919
-------------------------------------------------------------------------------




  Elastic Constant Matrix: (Units=GPa)

-------------------------------------------------------------------------------
  Indices      1         2         3         4         5         6    
-------------------------------------------------------------------------------
       1     94.3368   44.9178   44.9178    0.0000   -0.0000    0.0000
       2     44.9178   94.3368   44.9178   -0.0000    0.0000   -0.0000
       3     44.9178   44.9178   94.3368    0.0000   -0.0000    0.0000
       4      0.0000   -0.0000    0.0000   44.9178   -0.0000    0.0000
       5     -0.0000    0.0000   -0.0000   -0.0000   44.9178    0.0000
       6      0.0000   -0.0000    0.0000    0.0000    0.0000   44.9178
-------------------------------------------------------------------------------


  Elastic Compliance Matrix: (Units=1/GPa)

-------------------------------------------------------------------------------
  Indices      1         2         3         4         5         6    
-------------------------------------------------------------------------------
       1    0.015300 -0.004935 -0.004935 -0.000000  0.000000 -0.000000
       2   -0.004935  0.015300 -0.004935  0.000000 -0.000000  0.000000
       3   -0.004935 -0.004935  0.015300 -0.000000  0.000000 -0.000000
       4   -0.000000  0.000000 -0.000000  0.022263  0.000000 -0.000000
       5    0.000000 -0.000000  0.000000  0.000000  0.022263 -0.000000
       6   -0.000000  0.000000 -0.000000 -0.000000 -0.000000  0.022263
-------------------------------------------------------------------------------

  Mechanical properties :

-------------------------------------------------------------------------------
  Convention :                    Reuss         Voigt         Hill
-------------------------------------------------------------------------------
  Bulk  Modulus (GPa)     =      61.39080      61.39080      61.39080
  Shear Modulus (GPa)     =      33.84570      36.83448      35.34009
-------------------------------------------------------------------------------
  Velocity S-wave (km/s)  =       4.12274       4.30092       4.21277
  Velocity P-wave (km/s)  =       7.31386       7.44942       7.38195
-------------------------------------------------------------------------------
  Compressibility (1/GPa) =    0.01628909
-------------------------------------------------------------------------------
  Stress axis :                     x             y             z
-------------------------------------------------------------------------------
  Youngs Moduli (GPa)     =      65.35947      65.35947      65.35947
-------------------------------------------------------------------------------
  Poissons Ratio (x)      =                     0.32256       0.32256
  Poissons Ratio (y)      =       0.32256                     0.32256
  Poissons Ratio (z)      =       0.32256       0.32256
-------------------------------------------------------------------------------


  Piezoelectric Strain Matrix: (Units=C/m**2)

-------------------------------------------------------------------------------
  Indices      1         2         3         4         5         6    
-------------------------------------------------------------------------------
       x    -0.00000   0.00000   0.00000  -0.00000  -0.00000   0.00000
       y    -0.00000   0.00000   0.00000  -0.00000  -0.00000  -0.00000
       z     0.00000   0.00000   0.00000   0.00000  -0.00000  -0.00000
-------------------------------------------------------------------------------


  Piezoelectric Stress Matrix: (Units=10**-11 C/N)

-------------------------------------------------------------------------------
  Indices      1         2         3         4         5         6    
-------------------------------------------------------------------------------
       x    -0.00000   0.00000   0.00000  -0.00000  -0.00000   0.00000
       y    -0.00000   0.00000   0.00000  -0.00000  -0.00000  -0.00000
       z    -0.00000  -0.00000   0.00000   0.00000  -0.00000  -0.00000
-------------------------------------------------------------------------------


  Static dielectric constant tensor : 

-------------------------------------------------------------------------------
              x         y         z
-------------------------------------------------------------------------------
       x    12.11703   0.00000  -0.00000
       y     0.00000  12.11703  -0.00000
       z    -0.00000  -0.00000  12.11703
--------------------------------------------------------------------------------

  High frequency dielectric constant tensor : 

-------------------------------------------------------------------------------
              x         y         z
-------------------------------------------------------------------------------
       x     1.74104   0.00000   0.00000
       y     0.00000   1.74104   0.00000
       z     0.00000   0.00000   1.74104
-------------------------------------------------------------------------------

  Static refractive indices : 

-------------------------------------------------------------------------------
    1 =    3.48095      2 =    3.48095      3 =    3.48095
-------------------------------------------------------------------------------

  High frequency refractive indices : 

-------------------------------------------------------------------------------
    1 =    1.31948      2 =    1.31948      3 =    1.31948
-------------------------------------------------------------------------------


  Time to end of optimisation =       0.0113 seconds

********************************************************************************
*  Defect calculation for configuration   1 :                                  *
********************************************************************************

  Total number of defects =      3

  Total charge on defect  =   1.00

  Defect centre is at   2.1554   0.0000   0.0000  Angs

  Region 1 radius =  20.0000      Number of ions =   3902

  Number of symmetry inequivalent region 1 ions  =    629

  Region 2 radius =  24.0000      Number of ions =   2820

  Number of symmetry inequivalent region 2a ions =    409

  Region 2a mode = 4 : screened electrostatics due to region 1 
                       neglect correction to region 1 forces from 2a
                       region 2a displacements based on defects only

  Region 2a ions will only interact with defects in region 1

  Vacancies:

--------------------------------------------------------------------------------
    Specification type     Symbol/Number         x          y          z
--------------------------------------------------------------------------------
    Cartesian                                0.000000   0.000000   0.000000
    Cartesian                                3.918873   0.000000   0.000000
--------------------------------------------------------------------------------

  Interstitials:

--------------------------------------------------------------------------------
    Specification type     Symbol/Number         x          y          z
--------------------------------------------------------------------------------
    Atom/Cartesian          Cl               2.155380   0.000000   0.000000
--------------------------------------------------------------------------------


  Symmetry reduced region 1 (Relative to defect centre) :

--------------------------------------------------------------------------------
   No.   Atomic       x            y             z       Radius  Multiplicity   
         Label      (Angs)       (Angs)        (Angs)    (Angs)     
--------------------------------------------------------------------------------
     1  Cl    c      0.0000       0.0000       0.0000    0.0000     1    Defect
     2  Li    c     -0.1950 *    -1.9603 *     0.0000    0.0000     4          
     3  O     c     -0.1950 *    -1.9603 *    -1.9603    0.0000     4          
     4  Li    c      1.7653 *    -1.9603 *    -1.9603    0.0000     4          
     5  Li    c     -2.1554 *    -1.9603 *    -1.9603    0.0000     4          
     6  Li    c      3.7256 *    -1.9603 *     0.0000    0.0000     4          
     7  Cl    c      1.7653 *     0.0000       3.9207 *  0.0000     4          
     8  Li    c     -0.1950 *    -1.9603 *     3.9207 *  0.0000     8          
     9  Cl    c     -2.1554 *     0.0000       3.9207 *  0.0000     4          
    10  Li    c     -4.1157 *    -1.9603 *     0.0000    0.0000     4          
    11  O     c      3.7256 *    -1.9603 *    -1.9603    0.0000     4          
    12  O     c     -4.1157 *    -1.9603 *    -1.9603    0.0000     4          
    13  Cl    c      5.6860 *     0.0000       0.0000    0.0000     1          
    14  Li    c      3.7256 *    -1.9603 *     3.9207 *  0.0000     8          
    15  Cl    c      1.7653 *     3.9207 *     3.9207    0.0000     4          
    16  Li    c     -0.1950 *     5.8810 *     0.0000    0.0000     4          
    17  Cl    c     -2.1554 *     3.9207 *     3.9207    0.0000     4          
    18  Li    c     -4.1157 *    -1.9603 *     3.9207 *  0.0000     8          
    19  Cl    c     -6.0761 *     0.0000       0.0000    0.0000     1          
    20  O     c     -0.1950 *    -1.9603 *     5.8810 *  0.0000     8          
    21  Li    c      5.6860 *    -1.9603 *    -1.9603    0.0000     4          
    22  Li    c      1.7653 *    -1.9603 *     5.8810 *  0.0000     8          
    23  Li    c     -2.1554 *    -1.9603 *     5.8810 *  0.0000     8          
    24  Li    c     -6.0761 *    -1.9603 *    -1.9603    0.0000     4          
    25  Cl    c      5.6860 *     0.0000       3.9207 *  0.0000     4          
    26  Li    c      3.7256 *     5.8810 *     0.0000    0.0000     4          
    27  Li    c     -0.1950 *     5.8810 *     3.9207 *  0.0000     8          
    28  Li    c     -4.1157 *     5.8810 *     0.0000    0.0000     4          
    29  Cl    c     -6.0761 *     0.0000       3.9207 *  0.0000     4          
    30  O     c      3.7256 *    -1.9603 *     5.8810 *  0.0000     8          
    31  O     c     -4.1157 *    -1.9603 *     5.8810 *  0.0000     8          
    32  Li    c      7.6463 *    -1.9603 *     0.0000    0.0000     4          
    33  Cl    c      5.6860 *     3.9207 *     3.9207    0.0000     4          
    34  Li    c      3.7256 *     5.8810 *     3.9207 *  0.0000     8          
    35  Cl    c      1.7653 *     0.0000       7.8414 *  0.0000     4          
    36  Li    c     -0.1950 *    -1.9603 *     7.8414 *  0.0000     8          
    37  Cl    c     -2.1554 *     0.0000       7.8414 *  0.0000     4          
    38  O     c      7.6463 *    -1.9603 *    -1.9603    0.0000     4          
    39  Li    c     -4.1157 *     5.8810 *     3.9207 *  0.0000     8          
    40  Cl    c     -6.0761 *     3.9207 *     3.9207    0.0000     4          
    41  Li    c     -8.0364 *    -1.9603 *     0.0000    0.0000     4          
    42  O     c     -0.1950 *     5.8810 *     5.8810    0.0000     4          
    43  Li    c      5.6860 *    -1.9603 *     5.8810 *  0.0000     8          
    44  O     c     -8.0364 *    -1.9603 *    -1.9603    0.0000     4          
    45  Li    c      1.7653 *     5.8810 *     5.8810    0.0000     4          
    46  Li    c     -2.1554 *     5.8810 *     5.8810    0.0000     4          
    47  Li    c     -6.0761 *    -1.9603 *     5.8810 *  0.0000     8          
    48  Li    c      7.6463 *    -1.9603 *     3.9207 *  0.0000     8          
    49  Li    c      3.7256 *    -1.9603 *     7.8414 *  0.0000     8          
    50  Cl    c      1.7653 *     3.9207 *     7.8414 *  0.0000     8          
    51  Cl    c     -2.1554 *     3.9207 *     7.8414 *  0.0000     8          
    52  Li    c     -4.1157 *    -1.9603 *     7.8414 *  0.0000     8          
    53  O     c      3.7256 *     5.8810 *     5.8810    0.0000     4          
    54  Li    c     -8.0364 *    -1.9603 *     3.9207 *  0.0000     8          
    55  O     c     -4.1157 *     5.8810 *     5.8810    0.0000     4          
    56  Cl    c      9.6066 *     0.0000       0.0000    0.0000     1          
    57  Li    c      7.6463 *     5.8810 *     0.0000    0.0000     4          
    58  Cl    c      5.6860 *     0.0000       7.8414 *  0.0000     4          
    59  Li    c     -0.1950 *     5.8810 *     7.8414 *  0.0000     8          
    60  Li    c     -0.1950 *     9.8017 *     0.0000    0.0000     4          
    61  O     c      7.6463 *    -1.9603 *     5.8810 *  0.0000     8          
    62  Cl    c     -6.0761 *     0.0000       7.8414 *  0.0000     4          
    63  Li    c     -8.0364 *     5.8810 *     0.0000    0.0000     4          
    64  Cl    c     -9.9967 *     0.0000       0.0000    0.0000     1          
    65  O     c     -0.1950 *    -1.9603 *     9.8017 *  0.0000     8          
    66  Li    c      9.6066 *    -1.9603 *    -1.9603    0.0000     4          
    67  Li    c      5.6860 *     5.8810 *     5.8810    0.0000     4          
    68  O     c     -8.0364 *    -1.9603 *     5.8810 *  0.0000     8          
    69  Li    c      1.7653 *    -1.9603 *     9.8017 *  0.0000     8          
    70  Li    c     -2.1554 *    -1.9603 *     9.8017 *  0.0000     8          
    71  Li    c     -6.0761 *     5.8810 *     5.8810    0.0000     4          
    72  Li    c     -9.9967 *    -1.9603 *    -1.9603    0.0000     4          
    73  Cl    c      9.6066 *     0.0000       3.9207 *  0.0000     4          
    74  Li    c      7.6463 *     5.8810 *     3.9207 *  0.0000     8          
    75  Cl    c      5.6860 *     3.9207 *     7.8414 *  0.0000     8          
    76  Li    c      3.7256 *     5.8810 *     7.8414 *  0.0000     8          
    77  Li    c      3.7256 *     9.8017 *     0.0000    0.0000     4          
    78  Li    c     -0.1950 *     3.9207 *     9.8017 *  0.0000     8          
    79  Li    c     -4.1157 *     7.8414 *     5.8810 *  0.0000     8          
    80  Li    c     -4.1157 *     9.8017 *     0.0000    0.0000     4          
    81  Cl    c     -6.0761 *     3.9207 *     7.8414 *  0.0000     8          
    82  O     c      3.7256 *    -1.9603 *     9.8017 *  0.0000     8          
    83  Li    c     -8.0364 *     5.8810 *     3.9207 *  0.0000     8          
    84  Cl    c     -9.9967 *     0.0000       3.9207 *  0.0000     4          
    85  O     c     -4.1157 *    -1.9603 *     9.8017 *  0.0000     8          
    86  Cl    c      9.6066 *     3.9207 *     3.9207    0.0000     4          
    87  Li    c      7.6463 *    -1.9603 *     7.8414 *  0.0000     8          
    88  Li    c      3.7256 *     9.8017 *     3.9207 *  0.0000     8          
    89  Cl    c      1.7653 *     7.8414 *     7.8414    0.0000     4          
    90  Cl    c     -2.1554 *     7.8414 *     7.8414    0.0000     4          
    91  O     c      7.6463 *     5.8810 *     5.8810    0.0000     4          
    92  Li    c     -4.1157 *     9.8017 *     3.9207 *  0.0000     8          
    93  Li    c     -8.0364 *    -1.9603 *     7.8414 *  0.0000     8          
    94  Cl    c     -9.9967 *     3.9207 *     3.9207    0.0000     4          
    95  O     c     -0.1950 *     5.8810 *     9.8017 *  0.0000     8          
    96  Li    c      9.6066 *    -1.9603 *     5.8810 *  0.0000     8          
    97  Li    c      5.6860 *    -1.9603 *     9.8017 *  0.0000     8          
    98  O     c     -8.0364 *     5.8810 *     5.8810    0.0000     4          
    99  Li    c      1.7653 *     5.8810 *     9.8017 *  0.0000     8          
   100  Li    c     -2.1554 *     5.8810 *     9.8017 *  0.0000     8          
   101  Li    c     -6.0761 *    -1.9603 *     9.8017 *  0.0000     8          
   102  Li    c     11.5670 *    -1.9603 *     0.0000    0.0000     4          
   103  Li    c     -9.9967 *    -1.9603 *     5.8810 *  0.0000     8          
   104  Cl    c      1.7653 *     0.0000      11.7620 *  0.0000     4          
   105  O     c     11.5670 *    -1.9603 *    -1.9603    0.0000     4          
   106  Li    c     -0.1950 *    -1.9603 *    11.7620 *  0.0000     8          
   107  Cl    c     -2.1554 *     0.0000      11.7620 *  0.0000     4          
   108  O     c      3.7256 *     5.8810 *     9.8017 *  0.0000     8          
   109  Li    c    -11.9571 *    -1.9603 *     0.0000    0.0000     4          
   110  O     c     -4.1157 *     5.8810 *     9.8017 *  0.0000     8          
   111  O     c    -11.9571 *    -1.9603 *    -1.9603    0.0000     4          
   112  Li    c     11.5670 *    -1.9603 *     3.9207 *  0.0000     8          
   113  Cl    c      9.6066 *     0.0000       7.8414 *  0.0000     4          
   114  Li    c      7.6463 *     5.8810 *     7.8414 *  0.0000     8          
   115  Li    c      7.6463 *     9.8017 *     0.0000    0.0000     4          
   116  Cl    c      5.6860 *     7.8414 *     7.8414    0.0000     4          
   117  Li    c      3.7256 *    -1.9603 *    11.7620 *  0.0000     8          
   118  Cl    c      1.7653 *     3.9207 *    11.7620 *  0.0000     8          
   119  Li    c     -0.1950 *     9.8017 *     7.8414 *  0.0000     8          
   120  Cl    c     -2.1554 *     3.9207 *    11.7620 *  0.0000     8          
   121  O     c      7.6463 *    -1.9603 *     9.8017 *  0.0000     8          
   122  Li    c     -4.1157 *    11.7620 *    -1.9603 *  0.0000     8          
   123  Cl    c     -6.0761 *     7.8414 *     7.8414    0.0000     4          
   124  Li    c     -8.0364 *     5.8810 *     7.8414 *  0.0000     8          
   125  Li    c     -8.0364 *     9.8017 *     0.0000    0.0000     4          
   126  Cl    c     -9.9967 *     0.0000       7.8414 *  0.0000     4          
   127  Li    c      9.6066 *     5.8810 *     5.8810    0.0000     4          
   128  Li    c    -11.9571 *    -1.9603 *     3.9207 *  0.0000     8          
   129  Li    c      5.6860 *     5.8810 *     9.8017 *  0.0000     8          
   130  O     c     -8.0364 *     9.8017 *    -1.9603 *  0.0000     8          
   131  Li    c     -6.0761 *     5.8810 *     9.8017 *  0.0000     8          
   132  Li    c     11.5670 *     5.8810 *     0.0000    0.0000     4          
   133  Li    c     -9.9967 *     5.8810 *     5.8810    0.0000     4          
   134  Cl    c      9.6066 *     7.8414 *     3.9207 *  0.0000     8          
   135  Li    c      7.6463 *     9.8017 *     3.9207 *  0.0000     8          
   136  Cl    c      5.6860 *     0.0000      11.7620 *  0.0000     4          
   137  Li    c      3.7256 *     9.8017 *     7.8414 *  0.0000     8          
   138  O     c     11.5670 *    -1.9603 *     5.8810 *  0.0000     8          
   139  Li    c     -0.1950 *     5.8810 *    11.7620 *  0.0000     8          
   140  Li    c     -4.1157 *     7.8414 *     9.8017 *  0.0000     8          
   141  Cl    c     -6.0761 *     0.0000      11.7620 *  0.0000     4          
   142  Li    c     -8.0364 *     9.8017 *     3.9207 *  0.0000     8          
   143  Cl    c     -9.9967 *     7.8414 *     3.9207 *  0.0000     8          
   144  Li    c    -11.9571 *     5.8810 *     0.0000    0.0000     4          
   145  O     c    -11.9571 *    -1.9603 *     5.8810 *  0.0000     8          
   146  Cl    c     13.5273 *     0.0000       0.0000    0.0000     1          
   147  Li    c     11.5670 *     5.8810 *     3.9207 *  0.0000     8          
   148  Cl    c      5.6860 *     3.9207 *    11.7620 *  0.0000     8          
   149  Li    c      3.7256 *     5.8810 *    11.7620 *  0.0000     8          
   150  Li    c     -0.1950 *    13.7224 *     0.0000    0.0000     4          
   151  O     c      7.6463 *     5.8810 *     9.8017 *  0.0000     8          
   152  Li    c     -4.1157 *    11.7620 *     5.8810 *  0.0000     8          
   153  Cl    c     -6.0761 *     3.9207 *    11.7620 *  0.0000     8          
   154  Li    c     13.5273 *    -1.9603 *    -1.9603    0.0000     4          
   155  O     c     -0.1950 *    -1.9603 *    13.7224 *  0.0000     8          
   156  O     c     -0.1950 *     9.8017 *     9.8017    0.0000     4          
   157  Li    c      9.6066 *    -1.9603 *     9.8017 *  0.0000     8          
   158  Li    c    -11.9571 *     5.8810 *     3.9207 *  0.0000     8          
   159  Cl    c    -13.9174 *     0.0000       0.0000    0.0000     1          
   160  O     c     -8.0364 *     9.8017 *     5.8810 *  0.0000     8          
   161  Li    c      1.7653 *    -1.9603 *    13.7224 *  0.0000     8          
   162  Li    c      1.7653 *     9.8017 *     9.8017    0.0000     4          
   163  Li    c     -2.1554 *    -1.9603 *    13.7224 *  0.0000     8          
   164  Li    c     -2.1554 *     9.8017 *     9.8017    0.0000     4          
   165  Cl    c     13.5273 *     0.0000       3.9207 *  0.0000     4          
   166  Li    c     11.5670 *    -1.9603 *     7.8414 *  0.0000     8          
   167  Li    c     -9.9967 *    -1.9603 *     9.8017 *  0.0000     8          
   168  Li    c      7.6463 *    11.7620 *    -1.9603 *  0.0000     8          
   169  Li    c    -13.9174 *    -1.9603 *    -1.9603    0.0000     4          
   170  Li    c      3.7256 *    13.7224 *     0.0000    0.0000     4          
   171  Cl    c      1.7653 *     7.8414 *    11.7620 *  0.0000     8          
   172  O     c     11.5670 *     5.8810 *     5.8810    0.0000     4          
   173  Li    c     -0.1950 *    13.7224 *     3.9207 *  0.0000     8          
   174  Cl    c     -2.1554 *     7.8414 *    11.7620 *  0.0000     8          
   175  Li    c     -4.1157 *    13.7224 *     0.0000    0.0000     4          
   176  O     c      3.7256 *    13.7224 *    -1.9603 *  0.0000     8          
   177  O     c      3.7256 *     9.8017 *     9.8017    0.0000     4          
   178  Li    c     -8.0364 *    -1.9603 *    11.7620 *  0.0000     8          
   179  Li    c    -11.9571 *    -1.9603 *     7.8414 *  0.0000     8          
   180  Cl    c    -13.9174 *     0.0000       3.9207 *  0.0000     4          
   181  O     c     -4.1157 *    13.7224 *    -1.9603 *  0.0000     8          
   182  O     c     -4.1157 *     9.8017 *     9.8017    0.0000     4          
   183  O     c    -11.9571 *     5.8810 *     5.8810    0.0000     4          
   184  Cl    c     13.5273 *     3.9207 *     3.9207    0.0000     4          
   185  Cl    c      9.6066 *     7.8414 *     7.8414    0.0000     4          
   186  Li    c      7.6463 *     9.8017 *     7.8414 *  0.0000     8          
   187  Li    c      3.7256 *    13.7224 *     3.9207 *  0.0000     8          
   188  Li    c     -4.1157 *    13.7224 *     3.9207 *  0.0000     8          
   189  Li    c     13.5273 *    -1.9603 *     5.8810 *  0.0000     8          
   190  Li    c     -8.0364 *     9.8017 *     7.8414 *  0.0000     8          
   191  Cl    c     -9.9967 *     7.8414 *     7.8414    0.0000     4          
   192  O     c     -0.1950 *     5.8810 *    13.7224 *  0.0000     8          
   193  Li    c      9.6066 *     5.8810 *     9.8017 *  0.0000     8          
   194  Cl    c    -13.9174 *     3.9207 *     3.9207    0.0000     4          
   195  Li    c      5.6860 *    -1.9603 *    13.7224 *  0.0000     8          
   196  Li    c      5.6860 *     9.8017 *     9.8017    0.0000     4          
   197  Li    c      1.7653 *     5.8810 *    13.7224 *  0.0000     8          
   198  Li    c     -2.1554 *     5.8810 *    13.7224 *  0.0000     8          
   199  Li    c     -6.0761 *    -1.9603 *    13.7224 *  0.0000     8          
   200  Li    c     -6.0761 *     9.8017 *     9.8017    0.0000     4          
   201  Li    c     11.5670 *     5.8810 *     7.8414 *  0.0000     8          
   202  Li    c     11.5670 *     9.8017 *     0.0000    0.0000     4          
   203  Li    c     -9.9967 *     5.8810 *     9.8017 *  0.0000     8          
   204  Cl    c      9.6066 *     0.0000      11.7620 *  0.0000     4          
   205  Li    c      7.6463 *    11.7620 *     5.8810 *  0.0000     8          
   206  Li    c    -13.9174 *    -1.9603 *     5.8810 *  0.0000     8          
   207  Cl    c      5.6860 *     7.8414 *    11.7620 *  0.0000     8          
   208  O     c     11.5670 *    -1.9603 *     9.8017 *  0.0000     8          
   209  Li    c     -0.1950 *     9.8017 *    11.7620 *  0.0000     8          
   210  Cl    c     -6.0761 *     7.8414 *    11.7620 *  0.0000     8          
   211  O     c      3.7256 *     5.8810 *    13.7224 *  0.0000     8          
   212  Li    c     -8.0364 *     5.8810 *    11.7620 *  0.0000     8          
   213  Cl    c     -9.9967 *     0.0000      11.7620 *  0.0000     4          
   214  Li    c    -11.9571 *     5.8810 *     7.8414 *  0.0000     8          
   215  Li    c    -11.9571 *     9.8017 *     0.0000    0.0000     4          
   216  O     c     -4.1157 *     5.8810 *    13.7224 *  0.0000     8          
   217  O     c    -11.9571 *    -1.9603 *     9.8017 *  0.0000     8          
   218  Li    c     15.4877 *    -1.9603 *     0.0000    0.0000     4          
   219  Cl    c     13.5273 *     0.0000       7.8414 *  0.0000     4          
   220  Li    c     11.5670 *     9.8017 *     3.9207 *  0.0000     8          
   221  Cl    c      9.6066 *     3.9207 *    11.7620 *  0.0000     8          
   222  Li    c      7.6463 *    13.7224 *     0.0000    0.0000     4          
   223  O     c     15.4877 *    -1.9603 *    -1.9603    0.0000     4          
   224  Li    c      3.7256 *     9.8017 *    11.7620 *  0.0000     8          
   225  Cl    c      1.7653 *     0.0000      15.6827 *  0.0000     4          
   226  Li    c     -0.1950 *    -1.9603 *    15.6827 *  0.0000     8          
   227  Li    c     -0.1950 *    13.7224 *     7.8414 *  0.0000     8          
   228  Cl    c     -2.1554 *     0.0000      15.6827 *  0.0000     4          
   229  O     c      7.6463 *    -1.9603 *    13.7224 *  0.0000     8          
   230  O     c      7.6463 *     9.8017 *     9.8017    0.0000     4          
   231  Li    c     -4.1157 *    11.7620 *     9.8017 *  0.0000     8          
   232  Li    c     13.5273 *     5.8810 *     5.8810    0.0000     4          
   233  Li    c     -8.0364 *    13.7224 *     0.0000    0.0000     4          
   234  Cl    c     -9.9967 *     3.9207 *    11.7620 *  0.0000     8          
   235  Li    c    -11.9571 *     9.8017 *     3.9207 *  0.0000     8          
   236  Cl    c    -13.9174 *     0.0000       7.8414 *  0.0000     4          
   237  Li    c      5.6860 *     5.8810 *    13.7224 *  0.0000     8          
   238  Li    c    -15.8777 *    -1.9603 *     0.0000    0.0000     4          
   239  O     c     -8.0364 *    -1.9603 *    13.7224 *  0.0000     8          
   240  O     c     -8.0364 *     9.8017 *     9.8017    0.0000     4          
   241  Li    c     15.4877 *    -1.9603 *     3.9207 *  0.0000     8          
   242  O     c    -15.8777 *    -1.9603 *    -1.9603    0.0000     4          
   243  Li    c     -6.0761 *     5.8810 *    13.7224 *  0.0000     8          
   244  Cl    c     13.5273 *     3.9207 *     7.8414 *  0.0000     8          
   245  Li    c      7.6463 *    13.7224 *     3.9207 *  0.0000     8          
   246  Li    c    -13.9174 *     5.8810 *     5.8810    0.0000     4          
   247  Li    c      3.7256 *    -1.9603 *    15.6827 *  0.0000     8          
   248  Li    c      3.7256 *    13.7224 *     7.8414 *  0.0000     8          
   249  Cl    c      1.7653 *     3.9207 *    15.6827 *  0.0000     8          
   250  O     c     11.5670 *     5.8810 *     9.8017 *  0.0000     8          
   251  Cl    c     -2.1554 *     3.9207 *    15.6827 *  0.0000     8          
   252  Li    c     -4.1157 *    -1.9603 *    15.6827 *  0.0000     8          
   253  Li    c     -4.1157 *    13.7224 *     7.8414 *  0.0000     8          
   254  Li    c     -8.0364 *    13.7224 *     3.9207 *  0.0000     8          
   255  Cl    c    -13.9174 *     3.9207 *     7.8414 *  0.0000     8          
   256  Li    c    -15.8777 *    -1.9603 *     3.9207 *  0.0000     8          
   257  O     c    -11.9571 *     5.8810 *     9.8017 *  0.0000     8          
   258  Li    c     15.4877 *     5.8810 *     0.0000    0.0000     4          
   259  Li    c     11.5670 *    -1.9603 *    11.7620 *  0.0000     8          
   260  Cl    c      5.6860 *     0.0000      15.6827 *  0.0000     4          
   261  O     c     15.4877 *     5.8810 *    -1.9603 *  0.0000     8          
   262  Cl    c      1.7653 *    11.7620 *    11.7620    0.0000     4          
   263  Li    c     -0.1950 *     5.8810 *    15.6827 *  0.0000     8          
   264  Cl    c     -2.1554 *    11.7620 *    11.7620    0.0000     4          
   265  O     c      7.6463 *     5.8810 *    13.7224 *  0.0000     8          
   266  Cl    c     -6.0761 *     0.0000      15.6827 *  0.0000     4          
   267  Li    c     13.5273 *    -1.9603 *     9.8017 *  0.0000     8          
   268  O     c     -0.1950 *     9.8017 *    13.7224 *  0.0000     8          
   269  Li    c      9.6066 *    -1.9603 *    13.7224 *  0.0000     8          
   270  Li    c      9.6066 *     9.8017 *     9.8017    0.0000     4          
   271  Li    c    -11.9571 *    -1.9603 *    11.7620 *  0.0000     8          
   272  Li    c    -15.8777 *     5.8810 *     0.0000    0.0000     4          
   273  O     c     -8.0364 *     5.8810 *    13.7224 *  0.0000     8          
   274  Li    c      1.7653 *     9.8017 *    13.7224 *  0.0000     8          
   275  Li    c     -2.1554 *     9.8017 *    13.7224 *  0.0000     8          
   276  Li    c     15.4877 *     5.8810 *     3.9207 *  0.0000     8          
   277  O     c    -15.8777 *    -1.9603 *     5.8810 *  0.0000     8          
   278  Li    c     11.5670 *     9.8017 *     7.8414 *  0.0000     8          
   279  Li    c     -9.9967 *    -1.9603 *    13.7224 *  0.0000     8          
   280  Li    c     -9.9967 *     9.8017 *     9.8017    0.0000     4          
   281  Cl    c      9.6066 *     7.8414 *    11.7620 *  0.0000     8          
   282  Li    c      7.6463 *    11.7620 *     9.8017 *  0.0000     8          
   283  Li    c    -13.9174 *     9.8017 *    -1.9603 *  0.0000     8          
   284  Cl    c      5.6860 *     3.9207 *    15.6827 *  0.0000     8          
   285  Li    c      3.7256 *     5.8810 *    15.6827 *  0.0000     8          
   286  Li    c     -4.1157 *     5.8810 *    15.6827 *  0.0000     8          
   287  Cl    c     -6.0761 *     3.9207 *    15.6827 *  0.0000     8          
   288  O     c      3.7256 *     9.8017 *    13.7224 *  0.0000     8          
   289  Li    c     -8.0364 *     9.8017 *    11.7620 *  0.0000     8          
   290  Cl    c     -9.9967 *     7.8414 *    11.7620 *  0.0000     8          
   291  Li    c    -11.9571 *     9.8017 *     7.8414 *  0.0000     8          
   292  O     c     -4.1157 *     9.8017 *    13.7224 *  0.0000     8          
   293  Li    c    -15.8777 *     3.9207 *     5.8810 *  0.0000     8          
   294  Cl    c     17.4480 *     0.0000       0.0000    0.0000     1          
   295  Li    c     15.4877 *    -1.9603 *     7.8414 *  0.0000     8          
   296  Cl    c     13.5273 *     7.8414 *     7.8414    0.0000     4          
   297  Li    c     11.5670 *     5.8810 *    11.7620 *  0.0000     8          
   298  Li    c      7.6463 *    -1.9603 *    15.6827 *  0.0000     8          
   299  Li    c      7.6463 *    13.7224 *     7.8414 *  0.0000     8          
   300  Cl    c      5.6860 *    11.7620 *    11.7620    0.0000     4          
   301  O     c     15.4877 *     5.8810 *     5.8810    0.0000     4          
   302  Cl    c      1.7653 *     7.8414 *    15.6827 *  0.0000     8          
   303  Li    c     -0.1950 *    17.6430 *     0.0000    0.0000     4          
   304  Cl    c     -2.1554 *     7.8414 *    15.6827 *  0.0000     8          
   305  Li    c     17.4480 *    -1.9603 *    -1.9603    0.0000     4          
   306  Cl    c     -6.0761 *    11.7620 *    11.7620    0.0000     4          
   307  Li    c     13.5273 *     5.8810 *     9.8017 *  0.0000     8          
   308  Li    c     -8.0364 *    15.6827 *    -1.9603 *  0.0000     8          
   309  Li    c     -8.0364 *    13.7224 *     7.8414 *  0.0000     8          
   310  O     c     -0.1950 *    -1.9603 *    17.6430 *  0.0000     8          
   311  Li    c      9.6066 *     5.8810 *    13.7224 *  0.0000     8          
   312  Li    c    -11.9571 *     5.8810 *    11.7620 *  0.0000     8          
   313  Cl    c    -13.9174 *     7.8414 *     7.8414    0.0000     4          
   314  Li    c      5.6860 *     9.8017 *    13.7224 *  0.0000     8          
   315  Li    c    -15.8777 *    -1.9603 *     7.8414 *  0.0000     8          
   316  Cl    c    -17.8381 *     0.0000       0.0000    0.0000     1          
   317  Li    c      1.7653 *    -1.9603 *    17.6430 *  0.0000     8          
   318  Li    c     -2.1554 *    17.6430 *    -1.9603 *  0.0000     8          
   319  Cl    c     17.4480 *     0.0000       3.9207 *  0.0000     4          
   320  O     c    -15.8777 *     5.8810 *     5.8810    0.0000     4          
   321  Li    c     -6.0761 *     9.8017 *    13.7224 *  0.0000     8          
   322  Cl    c     13.5273 *     0.0000      11.7620 *  0.0000     4          
   323  Li    c     11.5670 *    13.7224 *     0.0000    0.0000     4          
   324  Li    c     -9.9967 *     5.8810 *    13.7224 *  0.0000     8          
   325  Li    c    -13.9174 *     9.8017 *     5.8810 *  0.0000     8          
   326  Li    c      3.7256 *    17.6430 *     0.0000    0.0000     4          
   327  Li    c    -17.8381 *    -1.9603 *    -1.9603    0.0000     4          
   328  O     c     11.5670 *    -1.9603 *    13.7224 *  0.0000     8          
   329  O     c     11.5670 *     9.8017 *     9.8017    0.0000     4          
   330  Li    c     -0.1950 *    13.7224 *    11.7620 *  0.0000     8          
   331  Li    c     -0.1950 *    17.6430 *     3.9207 *  0.0000     8          
   332  Li    c     -4.1157 *    17.6430 *     0.0000    0.0000     4          
   333  O     c      3.7256 *    -1.9603 *    17.6430 *  0.0000     8          
   334  Li    c    -11.9571 *    13.7224 *     0.0000    0.0000     4          
   335  Cl    c    -13.9174 *     0.0000      11.7620 *  0.0000     4          
   336  O     c     -4.1157 *    -1.9603 *    17.6430 *  0.0000     8          
   337  Cl    c    -17.8381 *     0.0000       3.9207 *  0.0000     4          
   338  O     c    -11.9571 *    13.7224 *    -1.9603 *  0.0000     8          
   339  O     c    -11.9571 *     9.8017 *     9.8017    0.0000     4          
   340  Cl    c     17.4480 *     3.9207 *     3.9207    0.0000     4          
   341  Li    c     15.4877 *     5.8810 *     7.8414 *  0.0000     8          
   342  Li    c     15.4877 *     9.8017 *     0.0000    0.0000     4          
   343  Cl    c     13.5273 *     3.9207 *    11.7620 *  0.0000     8          
   344  Li    c     11.5670 *     3.9207 *    13.7224 *  0.0000     8          
   345  Cl    c      9.6066 *     0.0000      15.6827 *  0.0000     4          
   346  Li    c      7.6463 *     5.8810 *    15.6827 *  0.0000     8          
   347  Cl    c      5.6860 *     7.8414 *    15.6827 *  0.0000     8          
   348  O     c     15.4877 *    -1.9603 *     9.8017 *  0.0000     8          
   349  Li    c      3.7256 *    13.7224 *    11.7620 *  0.0000     8          
   350  Li    c      3.7256 *    17.6430 *     3.9207 *  0.0000     8          
   351  Li    c     -0.1950 *     9.8017 *    15.6827 *  0.0000     8          
   352  O     c      7.6463 *     9.8017 *    13.7224 *  0.0000     8          
   353  Li    c     17.4480 *     5.8810 *    -1.9603 *  0.0000     8          
   354  Li    c     -4.1157 *    13.7224 *    11.7620 *  0.0000     8          
   355  Li    c     -4.1157 *    17.6430 *     3.9207 *  0.0000     8          
   356  Cl    c     -6.0761 *     7.8414 *    15.6827 *  0.0000     8          
   357  Li    c     -8.0364 *    15.6827 *     5.8810 *  0.0000     8          
   358  Cl    c     -9.9967 *     0.0000      15.6827 *  0.0000     4          
   359  O     c     -0.1950 *     5.8810 *    17.6430 *  0.0000     8          
   360  Li    c    -11.9571 *    13.7224 *     3.9207 *  0.0000     8          
   361  Cl    c    -13.9174 *     3.9207 *    11.7620 *  0.0000     8          
   362  Li    c      5.6860 *    -1.9603 *    17.6430 *  0.0000     8          
   363  Li    c    -15.8777 *     7.8414 *     5.8810 *  0.0000     8          
   364  Li    c    -15.8777 *     9.8017 *     0.0000    0.0000     4          
   365  Cl    c    -17.8381 *     3.9207 *     3.9207    0.0000     4          
   366  O     c     -8.0364 *     9.8017 *    13.7224 *  0.0000     8          
   367  Li    c      1.7653 *     5.8810 *    17.6430 *  0.0000     8          
   368  Li    c     -2.1554 *     5.8810 *    17.6430 *  0.0000     8          
   369  Li    c     15.4877 *     3.9207 *     9.8017 *  0.0000     8          
   370  O     c    -15.8777 *    -1.9603 *     9.8017 *  0.0000     8          
   371  Li    c     -6.0761 *    -1.9603 *    17.6430 *  0.0000     8          
   372  Cl    c      9.6066 *     3.9207 *    15.6827 *  0.0000     8          
   373  Li    c      3.7256 *     9.8017 *    15.6827 *  0.0000     8          
   374  Li    c    -17.8381 *    -1.9603 *     5.8810 *  0.0000     8          
   375  O     c     11.5670 *     5.8810 *    13.7224 *  0.0000     8          
   376  Li    c     -4.1157 *     9.8017 *    15.6827 *  0.0000     8          
   377  O     c      3.7256 *     5.8810 *    17.6430 *  0.0000     8          
   378  Cl    c     -9.9967 *     3.9207 *    15.6827 *  0.0000     8          
   379  O     c     -4.1157 *    17.6430 *     5.8810 *  0.0000     8          
   380  Li    c    -15.8777 *     9.8017 *     3.9207 *  0.0000     8          
   381  O     c    -11.9571 *    13.7224 *     5.8810 *  0.0000     8          
   382  Cl    c     17.4480 *     0.0000       7.8414 *  0.0000     4          
   383  Li    c     11.5670 *     9.8017 *    11.7620 *  0.0000     8          
   384  Cl    c      9.6066 *    11.7620 *    11.7620    0.0000     4          
   385  Li    c      7.6463 *    17.6430 *     0.0000    0.0000     4          
   386  O     c     15.4877 *     5.8810 *     9.8017 *  0.0000     8          
   387  Li    c     -0.1950 *    17.6430 *     7.8414 *  0.0000     8          
   388  O     c      7.6463 *    -1.9603 *    17.6430 *  0.0000     8          
   389  Li    c     17.4480 *     5.8810 *     5.8810    0.0000     4          
   390  Li    c     13.5273 *    -1.9603 *    13.7224 *  0.0000     8          
   391  Li    c     13.5273 *     9.8017 *     9.8017    0.0000     4          
   392  Li    c     -8.0364 *    17.6430 *     0.0000    0.0000     4          
   393  Cl    c     -9.9967 *    11.7620 *    11.7620    0.0000     4          
   394  O     c     -0.1950 *    13.7224 *    13.7224    0.0000     4          
   395  Li    c      9.6066 *     9.8017 *    13.7224 *  0.0000     8          
   396  Li    c    -11.9571 *     9.8017 *    11.7620 *  0.0000     8          
   397  Li    c      5.6860 *     5.8810 *    17.6430 *  0.0000     8          
   398  Cl    c    -17.8381 *     0.0000       7.8414 *  0.0000     4          
   399  O     c     -8.0364 *    -1.9603 *    17.6430 *  0.0000     8          
   400  Li    c      1.7653 *    13.7224 *    13.7224    0.0000     4          
   401  Li    c     19.4083 *    -1.9603 *     0.0000    0.0000     4          
   402  Li    c     -2.1554 *    13.7224 *    13.7224    0.0000     4          
   403  Cl    c     17.4480 *     3.9207 *     7.8414 *  0.0000     8          
   404  Li    c     15.4877 *    -1.9603 *    11.7620 *  0.0000     8          
   405  O     c    -15.8777 *     5.8810 *     9.8017 *  0.0000     8          
   406  Li    c     -6.0761 *     5.8810 *    17.6430 *  0.0000     8          
   407  Cl    c     13.5273 *     7.8414 *    11.7620 *  0.0000     8          
   408  Li    c     11.5670 *    15.6827 *    -1.9603 *  0.0000     8          
   409  Li    c     11.5670 *     7.8414 *    13.7224 *  0.0000     8          
   410  Li    c     -9.9967 *     9.8017 *    13.7224 *  0.0000     8          
   411  O     c     19.4083 *    -1.9603 *    -1.9603    0.0000     4          
   412  Li    c      7.6463 *    11.7620 *    13.7224 *  0.0000     8          
   413  Li    c      7.6463 *    17.6430 *     3.9207 *  0.0000     8          
   414  Li    c    -13.9174 *    13.7224 *    -1.9603 *  0.0000     8          
   415  Li    c    -13.9174 *     9.8017 *     9.8017    0.0000     4          
   416  Li    c      3.7256 *    17.6430 *     7.8414 *  0.0000     8          
   417  Li    c    -17.8381 *     5.8810 *     5.8810    0.0000     4          
   418  Cl    c      1.7653 *    11.7620 *    15.6827 *  0.0000     8          
   419  Cl    c      1.7653 *     0.0000      19.6034 *  0.0000     4          
   420  Li    c     -0.1950 *    -1.9603 *    19.6034 *  0.0000     8          
   421  Cl    c     -2.1554 *    11.7620 *    15.6827 *  0.0000     8          
   422  Cl    c     -2.1554 *     0.0000      19.6034 *  0.0000     4          
   423  Li    c     -4.1157 *    17.6430 *     7.8414 *  0.0000     8          
   424  O     c      3.7256 *    13.7224 *    13.7224    0.0000     4          
   425  Li    c     -8.0364 *    13.7224 *    11.7620 *  0.0000     8          
   426  Li    c     -8.0364 *    17.6430 *     3.9207 *  0.0000     8          
   427  Li    c    -11.9571 *    -1.9603 *    15.6827 *  0.0000     8          
   428  Li    c    -11.9571 *    13.7224 *     7.8414 *  0.0000     8          
   429  Cl    c    -13.9174 *     7.8414 *    11.7620 *  0.0000     8          
   430  O     c     -4.1157 *    13.7224 *    13.7224    0.0000     4          
   431  Li    c    -15.8777 *    -1.9603 *    11.7620 *  0.0000     8          
   432  Cl    c    -17.8381 *     3.9207 *     7.8414 *  0.0000     8          
   433  Li    c    -19.7984 *    -1.9603 *     0.0000    0.0000     4          
   434  Li    c     19.4083 *    -1.9603 *     3.9207 *  0.0000     8          
   435  Li    c     15.4877 *     7.8414 *     9.8017 *  0.0000     8          
   436  O     c    -19.7984 *    -1.9603 *    -1.9603    0.0000     4          
   437  Cl    c      9.6066 *     7.8414 *    15.6827 *  0.0000     8          
   438  Cl    s      0.0000       0.0000       0.0000    0.0000     1    Defect
   439  O     s     -0.1950 *    -1.9603 *    -1.9603    0.0000     4          
   440  Cl    s      1.7653 *     0.0000       3.9207 *  0.0000     4          
   441  Cl    s     -2.1554 *     0.0000       3.9207 *  0.0000     4          
   442  O     s      3.7256 *    -1.9603 *    -1.9603    0.0000     4          
   443  O     s     -4.1157 *    -1.9603 *    -1.9603    0.0000     4          
   444  Cl    s      5.6860 *     0.0000       0.0000    0.0000     1          
   445  Cl    s      1.7653 *     3.9207 *     3.9207    0.0000     4          
   446  Cl    s     -2.1554 *     3.9207 *     3.9207    0.0000     4          
   447  Cl    s     -6.0761 *     0.0000       0.0000    0.0000     1          
   448  O     s     -0.1950 *    -1.9603 *     5.8810 *  0.0000     8          
   449  Cl    s      5.6860 *     0.0000       3.9207 *  0.0000     4          
   450  Cl    s     -6.0761 *     0.0000       3.9207 *  0.0000     4          
   451  O     s      3.7256 *    -1.9603 *     5.8810 *  0.0000     8          
   452  O     s     -4.1157 *    -1.9603 *     5.8810 *  0.0000     8          
   453  Cl    s      5.6860 *     3.9207 *     3.9207    0.0000     4          
   454  Cl    s      1.7653 *     0.0000       7.8414 *  0.0000     4          
   455  Cl    s     -2.1554 *     0.0000       7.8414 *  0.0000     4          
   456  O     s      7.6463 *    -1.9603 *    -1.9603    0.0000     4          
   457  Cl    s     -6.0761 *     3.9207 *     3.9207    0.0000     4          
   458  O     s     -0.1950 *     5.8810 *     5.8810    0.0000     4          
   459  O     s     -8.0364 *    -1.9603 *    -1.9603    0.0000     4          
   460  Cl    s      1.7653 *     3.9207 *     7.8414 *  0.0000     8          
   461  Cl    s     -2.1554 *     3.9207 *     7.8414 *  0.0000     8          
   462  O     s      3.7256 *     5.8810 *     5.8810    0.0000     4          
   463  O     s     -4.1157 *     5.8810 *     5.8810    0.0000     4          
   464  Cl    s      9.6066 *     0.0000       0.0000    0.0000     1          
   465  Cl    s      5.6860 *     0.0000       7.8414 *  0.0000     4          
   466  O     s      7.6463 *    -1.9603 *     5.8810 *  0.0000     8          
   467  Cl    s     -6.0761 *     0.0000       7.8414 *  0.0000     4          
   468  Cl    s     -9.9967 *     0.0000       0.0000    0.0000     1          
   469  O     s     -0.1950 *    -1.9603 *     9.8017 *  0.0000     8          
   470  O     s     -8.0364 *    -1.9603 *     5.8810 *  0.0000     8          
   471  Cl    s      9.6066 *     0.0000       3.9207 *  0.0000     4          
   472  Cl    s      5.6860 *     3.9207 *     7.8414 *  0.0000     8          
   473  Cl    s     -6.0761 *     3.9207 *     7.8414 *  0.0000     8          
   474  O     s      3.7256 *    -1.9603 *     9.8017 *  0.0000     8          
   475  Cl    s     -9.9967 *     0.0000       3.9207 *  0.0000     4          
   476  O     s     -4.1157 *    -1.9603 *     9.8017 *  0.0000     8          
   477  Cl    s      9.6066 *     3.9207 *     3.9207    0.0000     4          
   478  Cl    s      1.7653 *     7.8414 *     7.8414    0.0000     4          
   479  Cl    s     -2.1554 *     7.8414 *     7.8414    0.0000     4          
   480  O     s      7.6463 *     5.8810 *     5.8810    0.0000     4          
   481  Cl    s     -9.9967 *     3.9207 *     3.9207    0.0000     4          
   482  O     s     -0.1950 *     5.8810 *     9.8017 *  0.0000     8          
   483  O     s     -8.0364 *     5.8810 *     5.8810    0.0000     4          
   484  Cl    s      1.7653 *     0.0000      11.7620 *  0.0000     4          
   485  O     s     11.5670 *    -1.9603 *    -1.9603    0.0000     4          
   486  Cl    s     -2.1554 *     0.0000      11.7620 *  0.0000     4          
   487  O     s      3.7256 *     5.8810 *     9.8017 *  0.0000     8          
   488  O     s     -4.1157 *     5.8810 *     9.8017 *  0.0000     8          
   489  O     s    -11.9571 *    -1.9603 *    -1.9603    0.0000     4          
   490  Cl    s      9.6066 *     0.0000       7.8414 *  0.0000     4          
   491  Cl    s      5.6860 *     7.8414 *     7.8414    0.0000     4          
   492  Cl    s      1.7653 *     3.9207 *    11.7620 *  0.0000     8          
   493  Cl    s     -2.1554 *     3.9207 *    11.7620 *  0.0000     8          
   494  O     s      7.6463 *    -1.9603 *     9.8017 *  0.0000     8          
   495  Cl    s     -6.0761 *     7.8414 *     7.8414    0.0000     4          
   496  Cl    s     -9.9967 *     0.0000       7.8414 *  0.0000     4          
   497  O     s     -8.0364 *     9.8017 *    -1.9603 *  0.0000     8          
   498  Cl    s      9.6066 *     7.8414 *     3.9207 *  0.0000     8          
   499  Cl    s      5.6860 *     0.0000      11.7620 *  0.0000     4          
   500  O     s     11.5670 *    -1.9603 *     5.8810 *  0.0000     8          
   501  Cl    s     -6.0761 *     0.0000      11.7620 *  0.0000     4          
   502  Cl    s     -9.9967 *     7.8414 *     3.9207 *  0.0000     8          
   503  O     s    -11.9571 *    -1.9603 *     5.8810 *  0.0000     8          
   504  Cl    s     13.5273 *     0.0000       0.0000    0.0000     1          
   505  Cl    s      5.6860 *     3.9207 *    11.7620 *  0.0000     8          
   506  O     s      7.6463 *     5.8810 *     9.8017 *  0.0000     8          
   507  Cl    s     -6.0761 *     3.9207 *    11.7620 *  0.0000     8          
   508  O     s     -0.1950 *    -1.9603 *    13.7224 *  0.0000     8          
   509  O     s     -0.1950 *     9.8017 *     9.8017    0.0000     4          
   510  Cl    s    -13.9174 *     0.0000       0.0000    0.0000     1          
   511  O     s     -8.0364 *     9.8017 *     5.8810 *  0.0000     8          
   512  Cl    s     13.5273 *     0.0000       3.9207 *  0.0000     4          
   513  Cl    s      1.7653 *     7.8414 *    11.7620 *  0.0000     8          
   514  O     s     11.5670 *     5.8810 *     5.8810    0.0000     4          
   515  Cl    s     -2.1554 *     7.8414 *    11.7620 *  0.0000     8          
   516  O     s      3.7256 *    13.7224 *    -1.9603 *  0.0000     8          
   517  O     s      3.7256 *     9.8017 *     9.8017    0.0000     4          
   518  Cl    s    -13.9174 *     0.0000       3.9207 *  0.0000     4          
   519  O     s     -4.1157 *    13.7224 *    -1.9603 *  0.0000     8          
   520  O     s     -4.1157 *     9.8017 *     9.8017    0.0000     4          
   521  O     s    -11.9571 *     5.8810 *     5.8810    0.0000     4          
   522  Cl    s     13.5273 *     3.9207 *     3.9207    0.0000     4          
   523  Cl    s      9.6066 *     7.8414 *     7.8414    0.0000     4          
   524  Cl    s     -9.9967 *     7.8414 *     7.8414    0.0000     4          
   525  O     s     -0.1950 *     5.8810 *    13.7224 *  0.0000     8          
   526  Cl    s    -13.9174 *     3.9207 *     3.9207    0.0000     4          
   527  Cl    s      9.6066 *     0.0000      11.7620 *  0.0000     4          
   528  Cl    s      5.6860 *     7.8414 *    11.7620 *  0.0000     8          
   529  O     s     11.5670 *    -1.9603 *     9.8017 *  0.0000     8          
   530  Cl    s     -6.0761 *     7.8414 *    11.7620 *  0.0000     8          
   531  O     s      3.7256 *     5.8810 *    13.7224 *  0.0000     8          
   532  Cl    s     -9.9967 *     0.0000      11.7620 *  0.0000     4          
   533  O     s     -4.1157 *     5.8810 *    13.7224 *  0.0000     8          
   534  O     s    -11.9571 *    -1.9603 *     9.8017 *  0.0000     8          
   535  Cl    s     13.5273 *     0.0000       7.8414 *  0.0000     4          
   536  Cl    s      9.6066 *     3.9207 *    11.7620 *  0.0000     8          
   537  O     s     15.4877 *    -1.9603 *    -1.9603    0.0000     4          
   538  Cl    s      1.7653 *     0.0000      15.6827 *  0.0000     4          
   539  Cl    s     -2.1554 *     0.0000      15.6827 *  0.0000     4          
   540  O     s      7.6463 *    -1.9603 *    13.7224 *  0.0000     8          
   541  O     s      7.6463 *     9.8017 *     9.8017    0.0000     4          
   542  Cl    s     -9.9967 *     3.9207 *    11.7620 *  0.0000     8          
   543  Cl    s    -13.9174 *     0.0000       7.8414 *  0.0000     4          
   544  O     s     -8.0364 *    -1.9603 *    13.7224 *  0.0000     8          
   545  O     s     -8.0364 *     9.8017 *     9.8017    0.0000     4          
   546  O     s    -15.8777 *    -1.9603 *    -1.9603    0.0000     4          
   547  Cl    s     13.5273 *     3.9207 *     7.8414 *  0.0000     8          
   548  Cl    s      1.7653 *     3.9207 *    15.6827 *  0.0000     8          
   549  O     s     11.5670 *     5.8810 *     9.8017 *  0.0000     8          
   550  Cl    s     -2.1554 *     3.9207 *    15.6827 *  0.0000     8          
   551  Cl    s    -13.9174 *     3.9207 *     7.8414 *  0.0000     8          
   552  O     s    -11.9571 *     5.8810 *     9.8017 *  0.0000     8          
   553  Cl    s      5.6860 *     0.0000      15.6827 *  0.0000     4          
   554  O     s     15.4877 *     5.8810 *    -1.9603 *  0.0000     8          
   555  Cl    s      1.7653 *    11.7620 *    11.7620    0.0000     4          
   556  Cl    s     -2.1554 *    11.7620 *    11.7620    0.0000     4          
   557  O     s      7.6463 *     5.8810 *    13.7224 *  0.0000     8          
   558  Cl    s     -6.0761 *     0.0000      15.6827 *  0.0000     4          
   559  O     s     -0.1950 *     9.8017 *    13.7224 *  0.0000     8          
   560  O     s     -8.0364 *     5.8810 *    13.7224 *  0.0000     8          
   561  O     s    -15.8777 *    -1.9603 *     5.8810 *  0.0000     8          
   562  Cl    s      9.6066 *     7.8414 *    11.7620 *  0.0000     8          
   563  Cl    s      5.6860 *     3.9207 *    15.6827 *  0.0000     8          
   564  Cl    s     -6.0761 *     3.9207 *    15.6827 *  0.0000     8          
   565  O     s      3.7256 *     9.8017 *    13.7224 *  0.0000     8          
   566  Cl    s     -9.9967 *     7.8414 *    11.7620 *  0.0000     8          
   567  O     s     -4.1157 *     9.8017 *    13.7224 *  0.0000     8          
   568  Cl    s     17.4480 *     0.0000       0.0000    0.0000     1          
   569  Cl    s     13.5273 *     7.8414 *     7.8414    0.0000     4          
   570  Cl    s      5.6860 *    11.7620 *    11.7620    0.0000     4          
   571  O     s     15.4877 *     5.8810 *     5.8810    0.0000     4          
   572  Cl    s      1.7653 *     7.8414 *    15.6827 *  0.0000     8          
   573  Cl    s     -2.1554 *     7.8414 *    15.6827 *  0.0000     8          
   574  Cl    s     -6.0761 *    11.7620 *    11.7620    0.0000     4          
   575  O     s     -0.1950 *    -1.9603 *    17.6430 *  0.0000     8          
   576  Cl    s    -13.9174 *     7.8414 *     7.8414    0.0000     4          
   577  Cl    s    -17.8381 *     0.0000       0.0000    0.0000     1          
   578  Cl    s     17.4480 *     0.0000       3.9207 *  0.0000     4          
   579  O     s    -15.8777 *     5.8810 *     5.8810    0.0000     4          
   580  Cl    s     13.5273 *     0.0000      11.7620 *  0.0000     4          
   581  O     s     11.5670 *    -1.9603 *    13.7224 *  0.0000     8          
   582  O     s     11.5670 *     9.8017 *     9.8017    0.0000     4          
   583  O     s      3.7256 *    -1.9603 *    17.6430 *  0.0000     8          
   584  Cl    s    -13.9174 *     0.0000      11.7620 *  0.0000     4          
   585  O     s     -4.1157 *    -1.9603 *    17.6430 *  0.0000     8          
   586  Cl    s    -17.8381 *     0.0000       3.9207 *  0.0000     4          
   587  O     s    -11.9571 *    13.7224 *    -1.9603 *  0.0000     8          
   588  O     s    -11.9571 *     9.8017 *     9.8017    0.0000     4          
   589  Cl    s     17.4480 *     3.9207 *     3.9207    0.0000     4          
   590  Cl    s     13.5273 *     3.9207 *    11.7620 *  0.0000     8          
   591  Cl    s      9.6066 *     0.0000      15.6827 *  0.0000     4          
   592  Cl    s      5.6860 *     7.8414 *    15.6827 *  0.0000     8          
   593  O     s     15.4877 *    -1.9603 *     9.8017 *  0.0000     8          
   594  O     s      7.6463 *     9.8017 *    13.7224 *  0.0000     8          
   595  Cl    s     -6.0761 *     7.8414 *    15.6827 *  0.0000     8          
   596  Cl    s     -9.9967 *     0.0000      15.6827 *  0.0000     4          
   597  O     s     -0.1950 *     5.8810 *    17.6430 *  0.0000     8          
   598  Cl    s    -13.9174 *     3.9207 *    11.7620 *  0.0000     8          
   599  Cl    s    -17.8381 *     3.9207 *     3.9207    0.0000     4          
   600  O     s     -8.0364 *     9.8017 *    13.7224 *  0.0000     8          
   601  O     s    -15.8777 *    -1.9603 *     9.8017 *  0.0000     8          
   602  Cl    s      9.6066 *     3.9207 *    15.6827 *  0.0000     8          
   603  O     s     11.5670 *     5.8810 *    13.7224 *  0.0000     8          
   604  O     s      3.7256 *     5.8810 *    17.6430 *  0.0000     8          
   605  Cl    s     -9.9967 *     3.9207 *    15.6827 *  0.0000     8          
   606  O     s     -4.1157 *    17.6430 *     5.8810 *  0.0000     8          
   607  O     s    -11.9571 *    13.7224 *     5.8810 *  0.0000     8          
   608  Cl    s     17.4480 *     0.0000       7.8414 *  0.0000     4          
   609  Cl    s      9.6066 *    11.7620 *    11.7620    0.0000     4          
   610  O     s     15.4877 *     5.8810 *     9.8017 *  0.0000     8          
   611  O     s      7.6463 *    -1.9603 *    17.6430 *  0.0000     8          
   612  Cl    s     -9.9967 *    11.7620 *    11.7620    0.0000     4          
   613  O     s     -0.1950 *    13.7224 *    13.7224    0.0000     4          
   614  Cl    s    -17.8381 *     0.0000       7.8414 *  0.0000     4          
   615  O     s     -8.0364 *    -1.9603 *    17.6430 *  0.0000     8          
   616  Cl    s     17.4480 *     3.9207 *     7.8414 *  0.0000     8          
   617  O     s    -15.8777 *     5.8810 *     9.8017 *  0.0000     8          
   618  Cl    s     13.5273 *     7.8414 *    11.7620 *  0.0000     8          
   619  O     s     19.4083 *    -1.9603 *    -1.9603    0.0000     4          
   620  Cl    s      1.7653 *    11.7620 *    15.6827 *  0.0000     8          
   621  Cl    s      1.7653 *     0.0000      19.6034 *  0.0000     4          
   622  Cl    s     -2.1554 *    11.7620 *    15.6827 *  0.0000     8          
   623  Cl    s     -2.1554 *     0.0000      19.6034 *  0.0000     4          
   624  O     s      3.7256 *    13.7224 *    13.7224    0.0000     4          
   625  Cl    s    -13.9174 *     7.8414 *    11.7620 *  0.0000     8          
   626  O     s     -4.1157 *    13.7224 *    13.7224    0.0000     4          
   627  Cl    s    -17.8381 *     3.9207 *     7.8414 *  0.0000     8          
   628  O     s    -19.7984 *    -1.9603 *    -1.9603    0.0000     4          
   629  Cl    s      9.6066 *     7.8414 *    15.6827 *  0.0000     8          
--------------------------------------------------------------------------------


  Constraints on symmetry reduced coordinates :

--------------------------------------------------------------------------------
  Constraint no.      Unconstrained     Constrained    Coefficient    
                         Variable         Variable
--------------------------------------------------------------------------------
           1                 3 y             3 z         1.00000
           2                 4 y             4 z         1.00000
           3                 5 y             5 z         1.00000
           4                11 y            11 z         1.00000
           5                12 y            12 z         1.00000
           6                15 y            15 z         1.00000
           7                17 y            17 z         1.00000
           8                21 y            21 z         1.00000
           9                24 y            24 z         1.00000
          10                33 y            33 z         1.00000
          11                38 y            38 z         1.00000
          12                40 y            40 z         1.00000
          13                42 y            42 z         1.00000
          14                44 y            44 z         1.00000
          15                45 y            45 z         1.00000
          16                46 y            46 z         1.00000
          17                53 y            53 z         1.00000
          18                55 y            55 z         1.00000
          19                66 y            66 z         1.00000
          20                67 y            67 z         1.00000
          21                71 y            71 z         1.00000
          22                72 y            72 z         1.00000
          23                86 y            86 z         1.00000
          24                89 y            89 z         1.00000
          25                90 y            90 z         1.00000
          26                91 y            91 z         1.00000
          27                94 y            94 z         1.00000
          28                98 y            98 z         1.00000
          29               105 y           105 z         1.00000
          30               111 y           111 z         1.00000
          31               116 y           116 z         1.00000
          32               123 y           123 z         1.00000
          33               127 y           127 z         1.00000
          34               133 y           133 z         1.00000
          35               154 y           154 z         1.00000
          36               156 y           156 z         1.00000
          37               162 y           162 z         1.00000
          38               164 y           164 z         1.00000
          39               169 y           169 z         1.00000
          40               172 y           172 z         1.00000
          41               177 y           177 z         1.00000
          42               182 y           182 z         1.00000
          43               183 y           183 z         1.00000
          44               184 y           184 z         1.00000
          45               185 y           185 z         1.00000
          46               191 y           191 z         1.00000
          47               194 y           194 z         1.00000
          48               196 y           196 z         1.00000
          49               200 y           200 z         1.00000
          50               223 y           223 z         1.00000
          51               230 y           230 z         1.00000
          52               232 y           232 z         1.00000
          53               240 y           240 z         1.00000
          54               242 y           242 z         1.00000
          55               246 y           246 z         1.00000
          56               262 y           262 z         1.00000
          57               264 y           264 z         1.00000
          58               270 y           270 z         1.00000
          59               280 y           280 z         1.00000
          60               296 y           296 z         1.00000
          61               300 y           300 z         1.00000
          62               301 y           301 z         1.00000
          63               305 y           305 z         1.00000
          64               306 y           306 z         1.00000
          65               313 y           313 z         1.00000
          66               320 y           320 z         1.00000
          67               327 y           327 z         1.00000
          68               329 y           329 z         1.00000
          69               339 y           339 z         1.00000
          70               340 y           340 z         1.00000
          71               365 y           365 z         1.00000
          72               384 y           384 z         1.00000
          73               389 y           389 z         1.00000
          74               391 y           391 z         1.00000
          75               393 y           393 z         1.00000
          76               394 y           394 z         1.00000
          77               400 y           400 z         1.00000
          78               402 y           402 z         1.00000
          79               411 y           411 z         1.00000
          80               415 y           415 z         1.00000
[...]
    549 y          5.881013      5.878957    -0.002056    Cartesian   -0.03
    549 z          9.801689      9.798725    -0.002964    Cartesian   -0.03
    550 x          0.000000     -0.000670    -0.000670    Cartesian    0.00
    550 y          3.920675      3.920976     0.000301    Cartesian    0.01
    550 z         15.682702     15.681295    -0.001407    Cartesian   -0.01
    551 x        -11.762026    -11.756351     0.005676    Cartesian   -0.05
    551 y          3.920675      3.918376    -0.002299    Cartesian   -0.06
    551 z          7.841351      7.837621    -0.003730    Cartesian   -0.05
    552 x         -9.801689     -9.800569     0.001119    Cartesian   -0.01
    552 y          5.881013      5.879932    -0.001081    Cartesian   -0.02
    552 z          9.801689      9.800352    -0.001337    Cartesian   -0.01
    553 x          7.841351      7.839496    -0.001855    Cartesian   -0.02
    553 y          0.000000      0.000000     0.000000    Cartesian    0.00
    553 z         15.682702     15.679973    -0.002729    Cartesian   -0.02
    554 x         17.643040     17.639117    -0.003923    Cartesian   -0.02
    554 y          5.881013      5.878760    -0.002253    Cartesian   -0.04
    554 z         -1.960338     -1.959665     0.000672    Cartesian   -0.03
    555 x          3.920675      3.920680     0.000004    Cartesian    0.00
    555 y         11.762026     11.760985    -0.001041    Cartesian   -0.01
    555 z         11.762026     11.760985    -0.001041    Cartesian   -0.01
    556 x          0.000000     -0.000742    -0.000742    Cartesian    0.00
    556 y         11.762026     11.761348    -0.000678    Cartesian   -0.01
    556 z         11.762026     11.761348    -0.000678    Cartesian   -0.01
    557 x          9.801689      9.801362    -0.000327    Cartesian   -0.00
    557 y          5.881013      5.880157    -0.000856    Cartesian   -0.01
    557 z         13.722364     13.721675    -0.000689    Cartesian   -0.01
    558 x         -3.920675     -3.920202     0.000474    Cartesian   -0.01
    558 y          0.000000      0.000000     0.000000    Cartesian    0.00
    558 z         15.682702     15.680821    -0.001881    Cartesian   -0.01
    559 x          1.960338      1.960081    -0.000257    Cartesian   -0.01
    559 y          9.801689      9.803007     0.001318    Cartesian    0.01
    559 z         13.722364     13.724041     0.001676    Cartesian    0.01
    560 x         -5.881013     -5.882727    -0.001714    Cartesian    0.03
    560 y          5.881013      5.881520     0.000507    Cartesian    0.01
    560 z         13.722364     13.723551     0.001187    Cartesian    0.01
    561 x        -13.722364    -13.720055     0.002309    Cartesian   -0.02
    561 y         -1.960338     -1.959912     0.000426    Cartesian   -0.02
    561 z          5.881013      5.879622    -0.001391    Cartesian   -0.02
    562 x         11.762026     11.759896    -0.002130    Cartesian   -0.02
    562 y          7.841351      7.838658    -0.002693    Cartesian   -0.03
    562 z         11.762026     11.758459    -0.003568    Cartesian   -0.03
    563 x          7.841351      7.840348    -0.001003    Cartesian   -0.01
    563 y          3.920675      3.920324    -0.000351    Cartesian   -0.01
    563 z         15.682702     15.680329    -0.002373    Cartesian   -0.02
    564 x         -3.920675     -3.920841    -0.000165    Cartesian    0.00
    564 y          3.920675      3.920710     0.000034    Cartesian    0.00
    564 z         15.682702     15.680861    -0.001840    Cartesian   -0.01
    565 x          5.881013      5.882089     0.001076    Cartesian    0.02
    565 y          9.801689      9.802377     0.000688    Cartesian    0.01
    565 z         13.722364     13.723357     0.000993    Cartesian    0.01
    566 x         -7.841351     -7.840917     0.000434    Cartesian   -0.01
    566 y          7.841351      7.839512    -0.001839    Cartesian   -0.02
    566 z         11.762026     11.760113    -0.001913    Cartesian   -0.02
    567 x         -1.960338     -1.962013    -0.001676    Cartesian    0.09
    567 y          9.801689      9.802989     0.001300    Cartesian    0.01
    567 z         13.722364     13.723951     0.001587    Cartesian    0.01
    568 x         19.603377     19.598202    -0.005176    Cartesian   -0.03
    568 y          0.000000      0.000000     0.000000    Cartesian    0.00
    568 z          0.000000      0.000000     0.000000    Cartesian    0.00
    569 x         15.682702     15.677358    -0.005344    Cartesian   -0.03
    569 y          7.841351      7.837931    -0.003420    Cartesian   -0.04
    569 z          7.841351      7.837931    -0.003420    Cartesian   -0.04
    570 x          7.841351      7.841341    -0.000010    Cartesian   -0.00
    570 y         11.762026     11.760702    -0.001325    Cartesian   -0.01
    570 z         11.762026     11.760702    -0.001325    Cartesian   -0.01
    571 x         17.643040     17.639967    -0.003072    Cartesian   -0.02
    571 y          5.881013      5.879977    -0.001036    Cartesian   -0.02
    571 z          5.881013      5.879977    -0.001036    Cartesian   -0.02
    572 x          3.920675      3.920526    -0.000150    Cartesian   -0.00
    572 y          7.841351      7.841137    -0.000214    Cartesian   -0.00
    572 z         15.682702     15.681317    -0.001385    Cartesian   -0.01
    573 x          0.000000     -0.000392    -0.000392    Cartesian    0.00
    573 y          7.841351      7.841323    -0.000028    Cartesian   -0.00
    573 z         15.682702     15.681522    -0.001180    Cartesian   -0.01
    574 x         -3.920675     -3.921653    -0.000978    Cartesian    0.02
    574 y         11.762026     11.761462    -0.000564    Cartesian   -0.00
    574 z         11.762026     11.761462    -0.000564    Cartesian   -0.00
    575 x          1.960338      1.960083    -0.000254    Cartesian   -0.01
    575 y         -1.960338     -1.961381    -0.001043    Cartesian    0.05
    575 z         17.643040     17.643677     0.000637    Cartesian    0.00
    576 x        -11.762026    -11.758539     0.003487    Cartesian   -0.03
    576 y          7.841351      7.838905    -0.002446    Cartesian   -0.03
    576 z          7.841351      7.838905    -0.002446    Cartesian   -0.03
    577 x        -15.682702    -15.676207     0.006495    Cartesian   -0.04
    577 y          0.000000      0.000000     0.000000    Cartesian    0.00
    577 z          0.000000      0.000000     0.000000    Cartesian    0.00
    578 x         19.603377     19.598873    -0.004504    Cartesian   -0.02
    578 y          0.000000      0.000000     0.000000    Cartesian    0.00
    578 z          3.920675      3.920171    -0.000504    Cartesian   -0.01
    579 x        -13.722364    -13.720695     0.001669    Cartesian   -0.01
    579 y          5.881013      5.880395    -0.000619    Cartesian   -0.01
    579 z          5.881013      5.880395    -0.000619    Cartesian   -0.01
    580 x         15.682702     15.678934    -0.003768    Cartesian   -0.02
    580 y          0.000000      0.000000     0.000000    Cartesian    0.00
    580 z         11.762026     11.758603    -0.003424    Cartesian   -0.03
    581 x         13.722364     13.722232    -0.000132    Cartesian   -0.00
    581 y         -1.960338     -1.960017     0.000321    Cartesian   -0.02
    581 z         13.722364     13.721962    -0.000403    Cartesian   -0.00
    582 x         13.722364     13.721407    -0.000957    Cartesian   -0.01
    582 y          9.801689      9.800495    -0.001194    Cartesian   -0.01
    582 z          9.801689      9.800495    -0.001194    Cartesian   -0.01
    583 x          5.881013      5.881088     0.000075    Cartesian    0.00
    583 y         -1.960338     -1.960671    -0.000334    Cartesian    0.02
    583 z         17.643040     17.642777    -0.000263    Cartesian   -0.00
    584 x        -11.762026    -11.759678     0.002349    Cartesian   -0.02
    584 y          0.000000      0.000000     0.000000    Cartesian    0.00
    584 z         11.762026     11.759598    -0.002428    Cartesian   -0.02
    585 x         -1.960338     -1.960879    -0.000541    Cartesian    0.03
    585 y         -1.960338     -1.960789    -0.000451    Cartesian    0.02
    585 z         17.643040     17.643085     0.000046    Cartesian    0.00
    586 x        -15.682702    -15.678261     0.004441    Cartesian   -0.03
    586 y          0.000000      0.000000     0.000000    Cartesian    0.00
    586 z          3.920675      3.920598    -0.000077    Cartesian   -0.00
    587 x         -9.801689     -9.802885    -0.001196    Cartesian    0.01
    587 y         13.722364     13.723237     0.000872    Cartesian    0.01
    587 z         -1.960338     -1.960236     0.000102    Cartesian   -0.01
    588 x         -9.801689     -9.801975    -0.000286    Cartesian    0.00
    588 y          9.801689      9.801482    -0.000207    Cartesian   -0.00
    588 z          9.801689      9.801482    -0.000207    Cartesian   -0.00
    589 x         19.603377     19.599006    -0.004372    Cartesian   -0.02
    589 y          3.920675      3.919916    -0.000760    Cartesian   -0.02
    589 z          3.920675      3.919916    -0.000760    Cartesian   -0.02
    590 x         15.682702     15.679258    -0.003444    Cartesian   -0.02
    590 y          3.920675      3.919297    -0.001378    Cartesian   -0.04
    590 z         11.762026     11.758580    -0.003446    Cartesian   -0.03
    591 x         11.762026     11.760779    -0.001247    Cartesian   -0.01
    591 y          0.000000      0.000000     0.000000    Cartesian    0.00
    591 z         15.682702     15.679894    -0.002808    Cartesian   -0.02
    592 x          7.841351      7.841309    -0.000042    Cartesian   -0.00
    592 y          7.841351      7.840551    -0.000800    Cartesian   -0.01
    592 z         15.682702     15.680637    -0.002065    Cartesian   -0.01
    593 x         17.643040     17.641018    -0.002022    Cartesian   -0.01
    593 y         -1.960338     -1.959875     0.000462    Cartesian   -0.02
    593 z          9.801689      9.800506    -0.001183    Cartesian   -0.01
    594 x          9.801689      9.802030     0.000341    Cartesian    0.00
    594 y          9.801689      9.801891     0.000202    Cartesian    0.00
    594 z         13.722364     13.722241    -0.000123    Cartesian   -0.00
    595 x         -3.920675     -3.921198    -0.000522    Cartesian    0.01
    595 y          7.841351      7.840910    -0.000441    Cartesian   -0.01
    595 z         15.682702     15.680882    -0.001820    Cartesian   -0.01
    596 x         -7.841351     -7.840999     0.000352    Cartesian   -0.00
    596 y          0.000000      0.000000     0.000000    Cartesian    0.00
    596 z         15.682702     15.680682    -0.002020    Cartesian   -0.01
    597 x          1.960338      1.960220    -0.000118    Cartesian   -0.01
    597 y          5.881013      5.881600     0.000586    Cartesian    0.01
    597 z         17.643040     17.643151     0.000112    Cartesian    0.00
    598 x        -11.762026    -11.759584     0.002442    Cartesian   -0.02
    598 y          3.920675      3.919814    -0.000862    Cartesian   -0.02
    598 z         11.762026     11.759642    -0.002384    Cartesian   -0.02
    599 x        -15.682702    -15.678563     0.004139    Cartesian   -0.03
    599 y          3.920675      3.919773    -0.000903    Cartesian   -0.02
    599 z          3.920675      3.919773    -0.000903    Cartesian   -0.02
    600 x         -5.881013     -5.882168    -0.001155    Cartesian    0.02
    600 y          9.801689      9.802223     0.000534    Cartesian    0.01
    600 z         13.722364     13.723027     0.000662    Cartesian    0.00
    601 x        -13.722364    -13.721257     0.001108    Cartesian   -0.01
    601 y         -1.960338     -1.960009     0.000328    Cartesian   -0.02
    601 z          9.801689      9.801195    -0.000494    Cartesian   -0.01
    602 x         11.762026     11.760566    -0.001460    Cartesian   -0.01
    602 y          3.920675      3.919852    -0.000823    Cartesian   -0.02
    602 z         15.682702     15.679674    -0.003028    Cartesian   -0.02
    603 x         13.722364     13.721623    -0.000741    Cartesian   -0.01
    603 y          5.881013      5.879993    -0.001020    Cartesian   -0.02
    603 z         13.722364     13.720860    -0.001504    Cartesian   -0.01
    604 x          5.881013      5.881140     0.000127    Cartesian    0.00
    604 y          5.881013      5.881261     0.000248    Cartesian    0.00
    604 z         17.643040     17.642955    -0.000085    Cartesian   -0.00
    605 x         -7.841351     -7.840678     0.000673    Cartesian   -0.01
    605 y          3.920675      3.920171    -0.000504    Cartesian   -0.01
    605 z         15.682702     15.680143    -0.002559    Cartesian   -0.02
    606 x         -1.960338     -1.960707    -0.000370    Cartesian    0.02
    606 y         17.643040     17.643240     0.000200    Cartesian    0.00
    606 z          5.881013      5.881422     0.000409    Cartesian    0.01
    607 x         -9.801689     -9.801286     0.000403    Cartesian   -0.00
    607 y         13.722364     13.721689    -0.000676    Cartesian   -0.00
    607 z          5.881013      5.880608    -0.000405    Cartesian   -0.01
    608 x         19.603377     19.597914    -0.005463    Cartesian   -0.03
    608 y          0.000000      0.000000     0.000000    Cartesian    0.00
    608 z          7.841351      7.838674    -0.002677    Cartesian   -0.03
    609 x         11.762026     11.761150    -0.000877    Cartesian   -0.01
    609 y         11.762026     11.759598    -0.002429    Cartesian   -0.02
    609 z         11.762026     11.759598    -0.002429    Cartesian   -0.02
    610 x         17.643040     17.640965    -0.002074    Cartesian   -0.01
    610 y          5.881013      5.880153    -0.000860    Cartesian   -0.01
    610 z          9.801689      9.800060    -0.001629    Cartesian   -0.02
    611 x          9.801689      9.800949    -0.000740    Cartesian   -0.01
    611 y         -1.960338     -1.960269     0.000068    Cartesian   -0.00
    611 z         17.643040     17.641700    -0.001340    Cartesian   -0.01
    612 x         -7.841351     -7.841186     0.000165    Cartesian   -0.00
    612 y         11.762026     11.760358    -0.001668    Cartesian   -0.01
    612 z         11.762026     11.760358    -0.001668    Cartesian   -0.01
    613 x          1.960338      1.960319    -0.000019    Cartesian   -0.00
    613 y         13.722364     13.722025    -0.000339    Cartesian   -0.00
    613 z         13.722364     13.722025    -0.000339    Cartesian   -0.00
    614 x        -15.682702    -15.677609     0.005093    Cartesian   -0.03
    614 y          0.000000      0.000000     0.000000    Cartesian    0.00
    614 z          7.841351      7.838970    -0.002381    Cartesian   -0.03
    615 x         -5.881013     -5.880554     0.000459    Cartesian   -0.01
    615 y         -1.960338     -1.960346    -0.000008    Cartesian    0.00
    615 z         17.643040     17.642089    -0.000950    Cartesian   -0.01
    616 x         19.603377     19.597505    -0.005873    Cartesian   -0.03
    616 y          3.920675      3.919246    -0.001429    Cartesian   -0.04
    616 z          7.841351      7.838564    -0.002787    Cartesian   -0.04
    617 x        -13.722364    -13.720304     0.002060    Cartesian   -0.02
    617 y          5.881013      5.879817    -0.001196    Cartesian   -0.02
    617 z          9.801689      9.800071    -0.001618    Cartesian   -0.02
    618 x         15.682702     15.678794    -0.003908    Cartesian   -0.02
    618 y          7.841351      7.838827    -0.002524    Cartesian   -0.03
    618 z         11.762026     11.758206    -0.003821    Cartesian   -0.03
    619 x         21.563715     21.562166    -0.001549    Cartesian   -0.01
    619 y         -1.960338     -1.960310     0.000027    Cartesian   -0.00
    619 z         -1.960338     -1.960310     0.000027    Cartesian   -0.00
    620 x          3.920675      3.920112    -0.000563    Cartesian   -0.01
    620 y         11.762026     11.759703    -0.002323    Cartesian   -0.02
    620 z         15.682702     15.679154    -0.003548    Cartesian   -0.02
    621 x          3.920675      3.920022    -0.000653    Cartesian   -0.02
    621 y          0.000000      0.000000     0.000000    Cartesian    0.00
    621 z         19.603377     19.597490    -0.005888    Cartesian   -0.03
    622 x          0.000000      0.000430     0.000430    Cartesian    0.00
    622 y         11.762026     11.759839    -0.002188    Cartesian   -0.02
    622 z         15.682702     15.679269    -0.003433    Cartesian   -0.02
    623 x          0.000000      0.000365     0.000365    Cartesian    0.00
    623 y          0.000000      0.000000     0.000000    Cartesian    0.00
    623 z         19.603377     19.597491    -0.005887    Cartesian   -0.03
    624 x          5.881013      5.880391    -0.000622    Cartesian   -0.01
    624 y         13.722364     13.720982    -0.001383    Cartesian   -0.01
    624 z         13.722364     13.720982    -0.001383    Cartesian   -0.01
    625 x        -11.762026    -11.758584     0.003443    Cartesian   -0.03
    625 y          7.841351      7.839051    -0.002300    Cartesian   -0.03
    625 z         11.762026     11.758572    -0.003454    Cartesian   -0.03
    626 x         -1.960338     -1.959766     0.000572    Cartesian   -0.03
    626 y         13.722364     13.721163    -0.001201    Cartesian   -0.01
    626 z         13.722364     13.721163    -0.001201    Cartesian   -0.01
    627 x        -15.682702    -15.677210     0.005492    Cartesian   -0.04
    627 y          3.920675      3.919218    -0.001457    Cartesian   -0.04
    627 z          7.841351      7.838723    -0.002628    Cartesian   -0.03
    628 x        -17.643040    -17.640137     0.002903    Cartesian   -0.02
    628 y         -1.960338     -1.959708     0.000630    Cartesian   -0.03
    628 z         -1.960338     -1.959708     0.000630    Cartesian   -0.03
    629 x         11.762026     11.759838    -0.002188    Cartesian   -0.02
    629 y          7.841351      7.838711    -0.002640    Cartesian   -0.03
    629 z         15.682702     15.677425    -0.005277    Cartesian   -0.03
--------------------------------------------------------------------------------


  Time to end of optimisation  =       96.1371 seconds


  Peak dynamic memory used =    1755.92 MB 


  Timing analysis for GULP :

--------------------------------------------------------------------------------
  Task / Subroutine                                          Time (Seconds)
--------------------------------------------------------------------------------
  Calculation of reciprocal space energy and derivatives          0.0002
  Calculation of reciprocal space energy using symmetry           0.0003
  Calculation of real space energy and derivatives                0.0018
  Calculation of real space energy using symmetry                 0.0035
  Calculation for region 1 energy and derivatives (2-b)          53.2812
  Calculation for region 2a energy                               13.6569
  Calculation for region 2b energy                                0.0025
  Calculation and manipulation of Hessian matrix                 26.1969
  Calculation of matrix inversion                                 2.1126
  Symmetry generation of equivalent positions                     0.0017
--------------------------------------------------------------------------------
  Total CPU time                                                 96.1371
--------------------------------------------------------------------------------


  Dump file written as Li3OCl.grs


  Job Finished at 13:19.19 21st October    2020                               

