********************************************************************************
*                       GENERAL UTILITY LATTICE PROGRAM                        *
*                                 Julian Gale                                  *
*                       Curtin Institute for Computation                       *
*                    School of Molecular and Life Sciences                     *
*                    Curtin University, Western Australia                      *
********************************************************************************
* Version = 5.2.0 * Last modified =  10th September 2020                       *
********************************************************************************
*  optimise     - perform optimisation run                                     *
*  conp         - constant pressure calculation                                *
*  property     - calculate properties for final geometry                      *
*  defect       - perform defect calculation after bulk run                    *
*  compare      - compare initial and final structures                         *
********************************************************************************

  Job Started  at 13:20.54 21st October    2020                               

  Number of CPUs =     1


  Total number of configurations input =      1

********************************************************************************
*  Input for Configuration =   1                                               *
********************************************************************************

  Formula = ClOLi3                                                      

  Number of irreducible atoms/shells =       5


  Total number atoms/shells =       7

  Dimensionality = 3               :  Bulk   


  Symmetry :

  Crystal family                   :  Cubic       
  Crystal class  (Groth - 1921)    :  Cubic Hexakisoctahedral              

  Space group (centrosymmetric)    :  P M 3 M         

  Patterson group                  :  P m -3 m 

  Cartesian lattice vectors (Angstroms) :

        3.918873    0.000000    0.000000
        0.000000    3.918873    0.000000
        0.000000    0.000000    3.918873

  Cell parameters (Angstroms/Degrees):

  a =       3.9189    alpha =  90.0000
  b =       3.9189    beta  =  90.0000
  c =       3.9189    gamma =  90.0000

  Initial cell volume =          60.184349 Angs**3

  Temperature of configuration =   0.00     K 

  Pressure of configuration =         0.000 GPa 

  Fractional coordinates of asymmetric unit :

--------------------------------------------------------------------------------
   No.  Atomic       x           y          z         Charge      Occupancy
        Label      (Frac)      (Frac)     (Frac)        (e)         (Frac)  
--------------------------------------------------------------------------------
      1 Cl    c    0.000000    0.000000    0.000000     1.48500    1.000000    
      2 O     c    0.500000    0.500000    0.500000     0.18300    1.000000    
      3 Li    c    0.500000    0.500000    0.000000     1.00000    1.000000    
      4 Cl    s    0.000000    0.000000    0.000000    -2.48500    1.000000    
      5 O     s    0.500000    0.500000    0.500000    -2.18300    1.000000    
--------------------------------------------------------------------------------


  Constraints : 

--------------------------------------------------------------------------------
  Constraint no.      Unconstrained     Constrained    Coefficient    Offset
                         Variable         Variable
--------------------------------------------------------------------------------
           1              Strain 1        Strain 2       1.00000      0.0000
           2              Strain 1        Strain 3       1.00000      0.0000
--------------------------------------------------------------------------------


********************************************************************************
*  General input information                                                   *
********************************************************************************

  Species output for all configurations : 

--------------------------------------------------------------------------------
  Species    Type    Atomic    Atomic    Charge       Radii (Angs)     Library
                     Number     Mass       (e)     Cova   Ionic  VDW   Symbol
--------------------------------------------------------------------------------
    Li       Core        3       6.94   1.000000   0.680  0.000  1.800          
    O        Core        8      16.00   0.183000   0.730  0.000  1.360          
    O        Shell       8       0.00  -2.183000   0.730  0.000  1.360          
    Cl       Core       17      35.45   1.485000   0.990  0.000  1.650          
    Cl       Shell      17       0.00  -2.485000   0.990  0.000  1.650          
--------------------------------------------------------------------------------


  Lattice summation method               =    Ewald          (3-D)
                                         =    Parry          (2-D)
                                         =    Saunders et al (1-D)
  Accuracy factor for lattice sums       =   12.000


  Analytic derivatives to be used

  Time limit = Infinity

  Maximum range for interatomic potentials =    100000.000000 Angstroms

  General interatomic potentials :

--------------------------------------------------------------------------------
Atom  Types   Potential      Parameter       Value         Units   Cutoffs(Ang)
  1     2                                                            Min /  Max 
--------------------------------------------------------------------------------
O    c O    s Spring (c-s)  Spring k 2       593.72000    eV*Ang^-2 0.000  0.800
                            Spring k 4       0.0000000    eV*Ang^-4 
--------------------------------------------------------------------------------
Cl   c Cl   s Spring (c-s)  Spring k 2       29.380000    eV*Ang^-2 0.000  0.800
                            Spring k 4       0.0000000    eV*Ang^-4 
--------------------------------------------------------------------------------
Li   c Li   c Buckingham    Buckingham A     360.53000    eV        0.000 12.000
                            Buckingham rho  0.16100000    Ang       
                            Buckingham C     0.0000000    eV*Ang^6  
--------------------------------------------------------------------------------
Li   c O    s Buckingham    Buckingham A     292.30000    eV        0.000 12.000
                            Buckingham rho  0.34720000    Ang       
                            Buckingham C     0.0000000    eV*Ang^6  
--------------------------------------------------------------------------------
Li   c Cl   s Buckingham    Buckingham A     421.04000    eV        0.000 12.000
                            Buckingham rho  0.33400000    Ang       
                            Buckingham C     0.0000000    eV*Ang^6  
--------------------------------------------------------------------------------
O    s O    s Buckingham    Buckingham A     22764.300    eV        0.000 12.000
                            Buckingham rho  0.14900000    Ang       
                            Buckingham C     13.190000    eV*Ang^6  
--------------------------------------------------------------------------------
O    s Cl   s Buckingham    Buckingham A     8286.9100    eV        0.000 12.000
                            Buckingham rho  0.25900000    Ang       
                            Buckingham C     62.200000    eV*Ang^6  
--------------------------------------------------------------------------------
Cl   s Cl   s Buckingham    Buckingham A     1227.2000    eV        0.000 12.000
                            Buckingham rho  0.32100000    Ang       
                            Buckingham C     14.530000    eV*Ang^6  
--------------------------------------------------------------------------------

********************************************************************************
*  Output for configuration   1                                                *
********************************************************************************


  Components of energy : 

--------------------------------------------------------------------------------
  Interatomic potentials     =           7.26836263 eV    
  Monopole - monopole (real) =         -11.53475722 eV    
  Monopole - monopole (recip)=         -33.94580548 eV    
  Monopole - monopole (total)=         -45.48056271 eV    
--------------------------------------------------------------------------------
  Total lattice energy       =         -38.21220008 eV    
--------------------------------------------------------------------------------
  Total lattice energy       =           -3686.8932 kJ/(mole unit cells)
--------------------------------------------------------------------------------


  Number of variables =        1

  Maximum number of calculations  =          1000
  Maximum Hessian update interval =            10
  Maximum step size               =   1.000000000
  Maximum parameter tolerance     =   0.000010000
  Maximum function  tolerance     =   0.000010000
  Maximum gradient  tolerance     =   0.001000000
  Maximum gradient  component     =   0.010000000

  Symmetry constrained optimisation

  Symmetry used for second derivatives

  Cell parameters to be optimised using strains

  Newton-Raphson optimiser to be used

  BFGS hessian update to be used

  Lower half triangular hessian to be used

  Start of bulk optimisation :

  Cycle:      0 Energy:       -38.212200  Gnorm:      0.095699  CPU:    0.006
  ** Hessian calculated **
  Cycle:      1 Energy:       -38.212222  Gnorm:      0.000105  CPU:    0.008


  **** Optimisation achieved ****


  Final energy =     -38.21222207 eV
  Final Gnorm  =       0.00000016

  Components of energy : 

--------------------------------------------------------------------------------
  Interatomic potentials     =           7.24743141 eV    
  Monopole - monopole (real) =         -11.52945423 eV    
  Monopole - monopole (recip)=         -33.93019924 eV    
  Monopole - monopole (total)=         -45.45965348 eV    
--------------------------------------------------------------------------------
  Total lattice energy       =         -38.21222207 eV    
--------------------------------------------------------------------------------
  Total lattice energy       =           -3686.8953 kJ/(mole unit cells)
--------------------------------------------------------------------------------

  Final asymmetric unit coordinates :

--------------------------------------------------------------------------------
   No.  Atomic        x           y           z         Radius
        Label       (Frac)      (Frac)      (Frac)       (Angs) 
--------------------------------------------------------------------------------
     1  Cl    c     0.000000    0.000000    0.000000    0.000000
     2  O     c     0.500000    0.500000    0.500000    0.000000
     3  Li    c     0.500000    0.500000    0.000000    0.000000
     4  Cl    s     0.000000    0.000000    0.000000    0.000000
     5  O     s     0.500000    0.500000    0.500000    0.000000
--------------------------------------------------------------------------------

  Final Cartesian lattice vectors (Angstroms) :

        3.920675    0.000000    0.000000
        0.000000    3.920675    0.000000
        0.000000    0.000000    3.920675


  Final cell parameters and derivatives :

--------------------------------------------------------------------------------
       a            3.920675 Angstrom     dE/de1(xx)    -0.000000 eV/strain
       b            3.920675 Angstrom     dE/de2(yy)     0.000000 eV/strain
       c            3.920675 Angstrom     dE/de3(zz)     0.000000 eV/strain
       alpha       90.000000 Degrees      dE/de4(yz)     0.000000 eV/strain
       beta        90.000000 Degrees      dE/de5(xz)     0.000000 eV/strain
       gamma       90.000000 Degrees      dE/de6(xy)     0.000000 eV/strain
--------------------------------------------------------------------------------

  Primitive cell volume =            60.267433 Angs**3

  Density of cell =      1.991276 g/cm**3

  Non-primitive cell volume =            60.267433 Angs**3


  Final internal derivatives :

--------------------------------------------------------------------------------
   No.  Atomic          a             b             c           Radius
        Label          (eV)          (eV)          (eV)        (eV/Angs)
--------------------------------------------------------------------------------
      1 Cl    c       0.000000      0.000000      0.000000      0.000000
      2 O     c       0.000000      0.000000      0.000000      0.000000
      3 Li    c       0.000000      0.000000      0.000000      0.000000
      4 Cl    s       0.000000      0.000000      0.000000      0.000000
      5 O     s       0.000000      0.000000      0.000000      0.000000
--------------------------------------------------------------------------------
  Maximum abs         0.000000      0.000000      0.000000      0.000000
--------------------------------------------------------------------------------

  Comparison of initial and final structures : 

--------------------------------------------------------------------------------
  Parameter   Initial value   Final value   Difference    Units      Percent
--------------------------------------------------------------------------------
    Volume        60.184349     60.267433     0.083084    Angs**3      0.14
    a              3.918873      3.920675     0.001802    Angstroms    0.05
    b              3.918873      3.920675     0.001802    Angstroms    0.05
    c              3.918873      3.920675     0.001802    Angstroms    0.05
    alpha         90.000000     90.000000     0.000000    Degrees      0.00
    beta          90.000000     90.000000     0.000000    Degrees      0.00
    gamma         90.000000     90.000000     0.000000    Degrees      0.00
      1 x          0.000000      0.000000     0.000000    Fractional   0.00
      1 y          0.000000      0.000000     0.000000    Fractional   0.00
      1 z          0.000000      0.000000     0.000000    Fractional   0.00
      2 x          0.500000      0.500000     0.000000    Fractional   0.00
      2 y          0.500000      0.500000     0.000000    Fractional   0.00
      2 z          0.500000      0.500000     0.000000    Fractional   0.00
      3 x          0.500000      0.500000     0.000000    Fractional   0.00
      3 y          0.500000      0.500000     0.000000    Fractional   0.00
      3 z          0.000000      0.000000     0.000000    Fractional   0.00
      4 x          0.000000      0.000000     0.000000    Fractional   0.00
      4 y          0.000000      0.000000     0.000000    Fractional   0.00
      4 z          0.000000      0.000000     0.000000    Fractional   0.00
      5 x          0.500000      0.500000     0.000000    Fractional   0.00
      5 y          0.500000      0.500000     0.000000    Fractional   0.00
      5 z          0.500000      0.500000     0.000000    Fractional   0.00
--------------------------------------------------------------------------------


  Born effective charge tensors : 

-------------------------------------------------------------------------------
  Atom             x           y             z
-------------------------------------------------------------------------------
    1 Cl    x      -0.9489     -0.0000     -0.0000
            y      -0.0000     -0.9489     -0.0000
            z      -0.0000     -0.0000     -0.9489
-------------------------------------------------------------------------------
    2 O     x      -2.4688      0.0000      0.0000
            y       0.0000     -2.4688      0.0000
            z       0.0000      0.0000     -2.4688
-------------------------------------------------------------------------------
    3 Li    x       1.3129      0.0000     -0.0000
            y       0.0000      1.3129      0.0000
            z      -0.0000      0.0000      0.7919
-------------------------------------------------------------------------------




  Elastic Constant Matrix: (Units=GPa)

-------------------------------------------------------------------------------
  Indices      1         2         3         4         5         6    
-------------------------------------------------------------------------------
       1     94.3368   44.9178   44.9178    0.0000   -0.0000    0.0000
       2     44.9178   94.3368   44.9178   -0.0000    0.0000   -0.0000
       3     44.9178   44.9178   94.3368    0.0000   -0.0000    0.0000
       4      0.0000   -0.0000    0.0000   44.9178   -0.0000    0.0000
       5     -0.0000    0.0000   -0.0000   -0.0000   44.9178    0.0000
       6      0.0000   -0.0000    0.0000    0.0000    0.0000   44.9178
-------------------------------------------------------------------------------


  Elastic Compliance Matrix: (Units=1/GPa)

-------------------------------------------------------------------------------
  Indices      1         2         3         4         5         6    
-------------------------------------------------------------------------------
       1    0.015300 -0.004935 -0.004935 -0.000000  0.000000 -0.000000
       2   -0.004935  0.015300 -0.004935  0.000000 -0.000000  0.000000
       3   -0.004935 -0.004935  0.015300 -0.000000  0.000000 -0.000000
       4   -0.000000  0.000000 -0.000000  0.022263  0.000000 -0.000000
       5    0.000000 -0.000000  0.000000  0.000000  0.022263 -0.000000
       6   -0.000000  0.000000 -0.000000 -0.000000 -0.000000  0.022263
-------------------------------------------------------------------------------

  Mechanical properties :

-------------------------------------------------------------------------------
  Convention :                    Reuss         Voigt         Hill
-------------------------------------------------------------------------------
  Bulk  Modulus (GPa)     =      61.39080      61.39080      61.39080
  Shear Modulus (GPa)     =      33.84570      36.83448      35.34009
-------------------------------------------------------------------------------
  Velocity S-wave (km/s)  =       4.12274       4.30092       4.21277
  Velocity P-wave (km/s)  =       7.31386       7.44942       7.38195
-------------------------------------------------------------------------------
  Compressibility (1/GPa) =    0.01628909
-------------------------------------------------------------------------------
  Stress axis :                     x             y             z
-------------------------------------------------------------------------------
  Youngs Moduli (GPa)     =      65.35947      65.35947      65.35947
-------------------------------------------------------------------------------
  Poissons Ratio (x)      =                     0.32256       0.32256
  Poissons Ratio (y)      =       0.32256                     0.32256
  Poissons Ratio (z)      =       0.32256       0.32256
-------------------------------------------------------------------------------


  Piezoelectric Strain Matrix: (Units=C/m**2)

-------------------------------------------------------------------------------
  Indices      1         2         3         4         5         6    
-------------------------------------------------------------------------------
       x    -0.00000   0.00000   0.00000  -0.00000  -0.00000   0.00000
       y    -0.00000   0.00000   0.00000  -0.00000  -0.00000  -0.00000
       z     0.00000   0.00000   0.00000   0.00000  -0.00000  -0.00000
-------------------------------------------------------------------------------


  Piezoelectric Stress Matrix: (Units=10**-11 C/N)

-------------------------------------------------------------------------------
  Indices      1         2         3         4         5         6    
-------------------------------------------------------------------------------
       x    -0.00000   0.00000   0.00000  -0.00000  -0.00000   0.00000
       y    -0.00000   0.00000   0.00000  -0.00000  -0.00000  -0.00000
       z    -0.00000  -0.00000   0.00000   0.00000  -0.00000  -0.00000
-------------------------------------------------------------------------------


  Static dielectric constant tensor : 

-------------------------------------------------------------------------------
              x         y         z
-------------------------------------------------------------------------------
       x    12.11703   0.00000  -0.00000
       y     0.00000  12.11703  -0.00000
       z    -0.00000  -0.00000  12.11703
--------------------------------------------------------------------------------

  High frequency dielectric constant tensor : 

-------------------------------------------------------------------------------
              x         y         z
-------------------------------------------------------------------------------
       x     1.74104   0.00000   0.00000
       y     0.00000   1.74104   0.00000
       z     0.00000   0.00000   1.74104
-------------------------------------------------------------------------------

  Static refractive indices : 

-------------------------------------------------------------------------------
    1 =    3.48095      2 =    3.48095      3 =    3.48095
-------------------------------------------------------------------------------

  High frequency refractive indices : 

-------------------------------------------------------------------------------
    1 =    1.31948      2 =    1.31948      3 =    1.31948
-------------------------------------------------------------------------------


  Time to end of optimisation =       0.0122 seconds

********************************************************************************
*  Defect calculation for configuration   1 :                                  *
********************************************************************************

  Total number of defects =      3

  Total charge on defect  =   1.00

  Defect centre is at   2.5473   0.0000   0.0000  Angs

  Region 1 radius =  20.0000      Number of ions =   3882

  Number of symmetry inequivalent region 1 ions  =    625

  Region 2 radius =  24.0000      Number of ions =   2868

  Number of symmetry inequivalent region 2a ions =    416

  Region 2a mode = 4 : screened electrostatics due to region 1 
                       neglect correction to region 1 forces from 2a
                       region 2a displacements based on defects only

  Region 2a ions will only interact with defects in region 1

  Vacancies:

--------------------------------------------------------------------------------
    Specification type     Symbol/Number         x          y          z
--------------------------------------------------------------------------------
    Cartesian                                0.000000   0.000000   0.000000
    Cartesian                                3.918873   0.000000   0.000000
--------------------------------------------------------------------------------

  Interstitials:

--------------------------------------------------------------------------------
    Specification type     Symbol/Number         x          y          z
--------------------------------------------------------------------------------
    Atom/Cartesian          Cl               2.547267   0.000000   0.000000
--------------------------------------------------------------------------------


  Symmetry reduced region 1 (Relative to defect centre) :

--------------------------------------------------------------------------------
   No.   Atomic       x            y             z       Radius  Multiplicity   
         Label      (Angs)       (Angs)        (Angs)    (Angs)     
--------------------------------------------------------------------------------
     1  Cl    c      0.0000       0.0000       0.0000    0.0000     1    Defect
     2  Li    c     -0.5869 *    -1.9603 *     0.0000    0.0000     4          
     3  O     c     -0.5869 *    -1.9603 *    -1.9603    0.0000     4          
     4  Li    c      1.3734 *    -1.9603 *    -1.9603    0.0000     4          
     5  Li    c     -2.5473 *    -1.9603 *    -1.9603    0.0000     4          
     6  Li    c      3.3337 *    -1.9603 *     0.0000    0.0000     4          
     7  Cl    c      1.3734 *     0.0000       3.9207 *  0.0000     4          
     8  O     c      3.3337 *    -1.9603 *    -1.9603    0.0000     4          
     9  Li    c     -0.5869 *    -1.9603 *     3.9207 *  0.0000     8          
    10  Cl    c     -2.5473 *     0.0000       3.9207 *  0.0000     4          
    11  Li    c     -4.5076 *    -1.9603 *     0.0000    0.0000     4          
    12  O     c     -4.5076 *    -1.9603 *    -1.9603    0.0000     4          
    13  Cl    c      5.2941 *     0.0000       0.0000    0.0000     1          
    14  Li    c      3.3337 *    -1.9603 *     3.9207 *  0.0000     8          
    15  Cl    c      1.3734 *     3.9207 *     3.9207    0.0000     4          
    16  Li    c     -0.5869 *     5.8810 *     0.0000    0.0000     4          
    17  Li    c      5.2941 *    -1.9603 *    -1.9603    0.0000     4          
    18  Cl    c     -2.5473 *     3.9207 *     3.9207    0.0000     4          
    19  O     c     -0.5869 *     5.8810 *    -1.9603 *  0.0000     8          
    20  Li    c     -4.5076 *     3.9207 *    -1.9603 *  0.0000     8          
    21  Li    c      1.3734 *    -1.9603 *     5.8810 *  0.0000     8          
    22  Cl    c     -6.4679 *     0.0000       0.0000    0.0000     1          
    23  Cl    c      5.2941 *     0.0000       3.9207 *  0.0000     4          
    24  Li    c     -2.5473 *    -1.9603 *     5.8810 *  0.0000     8          
    25  Li    c      3.3337 *     5.8810 *     0.0000    0.0000     4          
    26  Li    c     -6.4679 *    -1.9603 *    -1.9603    0.0000     4          
    27  O     c      3.3337 *    -1.9603 *     5.8810 *  0.0000     8          
    28  Li    c     -0.5869 *     5.8810 *     3.9207 *  0.0000     8          
    29  Li    c     -4.5076 *     5.8810 *     0.0000    0.0000     4          
    30  Li    c      7.2544 *    -1.9603 *     0.0000    0.0000     4          
    31  Cl    c     -6.4679 *     0.0000       3.9207 *  0.0000     4          
    32  O     c     -4.5076 *    -1.9603 *     5.8810 *  0.0000     8          
    33  Cl    c      5.2941 *     3.9207 *     3.9207    0.0000     4          
    34  O     c      7.2544 *    -1.9603 *    -1.9603    0.0000     4          
    35  Li    c      3.3337 *     5.8810 *     3.9207 *  0.0000     8          
    36  Cl    c      1.3734 *     0.0000       7.8414 *  0.0000     4          
    37  Li    c     -0.5869 *    -1.9603 *     7.8414 *  0.0000     8          
    38  Li    c      5.2941 *    -1.9603 *     5.8810 *  0.0000     8          
    39  Cl    c     -2.5473 *     0.0000       7.8414 *  0.0000     4          
    40  O     c     -0.5869 *     5.8810 *     5.8810    0.0000     4          
    41  Li    c     -4.5076 *     5.8810 *     3.9207 *  0.0000     8          
    42  Li    c      1.3734 *     5.8810 *     5.8810    0.0000     4          
    43  Li    c      7.2544 *    -1.9603 *     3.9207 *  0.0000     8          
    44  Cl    c     -6.4679 *     3.9207 *     3.9207    0.0000     4          
    45  Li    c     -8.4283 *    -1.9603 *     0.0000    0.0000     4          
    46  Li    c     -2.5473 *     5.8810 *     5.8810    0.0000     4          
    47  Li    c      3.3337 *    -1.9603 *     7.8414 *  0.0000     8          
    48  O     c     -8.4283 *    -1.9603 *    -1.9603    0.0000     4          
    49  Cl    c      1.3734 *     3.9207 *     7.8414 *  0.0000     8          
    50  Li    c     -6.4679 *    -1.9603 *     5.8810 *  0.0000     8          
    51  O     c      3.3337 *     5.8810 *     5.8810    0.0000     4          
    52  Cl    c     -2.5473 *     3.9207 *     7.8414 *  0.0000     8          
    53  Cl    c      9.2148 *     0.0000       0.0000    0.0000     1          
    54  Li    c     -4.5076 *    -1.9603 *     7.8414 *  0.0000     8          
    55  Li    c      7.2544 *     5.8810 *     0.0000    0.0000     4          
    56  O     c     -4.5076 *     5.8810 *     5.8810    0.0000     4          
    57  Cl    c      5.2941 *     0.0000       7.8414 *  0.0000     4          
    58  Li    c     -8.4283 *    -1.9603 *     3.9207 *  0.0000     8          
    59  O     c      7.2544 *    -1.9603 *     5.8810 *  0.0000     8          
    60  Li    c      9.2148 *    -1.9603 *    -1.9603    0.0000     4          
    61  Li    c     -0.5869 *     5.8810 *     7.8414 *  0.0000     8          
    62  Li    c     -0.5869 *     9.8017 *     0.0000    0.0000     4          
    63  Li    c      5.2941 *     5.8810 *     5.8810    0.0000     4          
    64  O     c     -0.5869 *    -1.9603 *     9.8017 *  0.0000     8          
    65  Cl    c      9.2148 *     0.0000       3.9207 *  0.0000     4          
    66  Li    c      1.3734 *    -1.9603 *     9.8017 *  0.0000     8          
    67  Li    c      7.2544 *     5.8810 *     3.9207 *  0.0000     8          
    68  Cl    c     -6.4679 *     0.0000       7.8414 *  0.0000     4          
    69  Cl    c      5.2941 *     3.9207 *     7.8414 *  0.0000     8          
    70  Li    c     -8.4283 *     5.8810 *     0.0000    0.0000     4          
    71  Li    c     -2.5473 *    -1.9603 *     9.8017 *  0.0000     8          
    72  Li    c      3.3337 *     7.8414 *     5.8810 *  0.0000     8          
    73  Li    c      3.3337 *     9.8017 *     0.0000    0.0000     4          
    74  Cl    c    -10.3886 *     0.0000       0.0000    0.0000     1          
    75  O     c     -8.4283 *    -1.9603 *     5.8810 *  0.0000     8          
    76  Li    c     -6.4679 *     5.8810 *     5.8810    0.0000     4          
    77  O     c      3.3337 *    -1.9603 *     9.8017 *  0.0000     8          
    78  Li    c     -0.5869 *     9.8017 *     3.9207 *  0.0000     8          
    79  Li    c    -10.3886 *    -1.9603 *    -1.9603    0.0000     4          
    80  Cl    c      9.2148 *     3.9207 *     3.9207    0.0000     4          
    81  Li    c     -4.5076 *     5.8810 *     7.8414 *  0.0000     8          
    82  Li    c     -4.5076 *     9.8017 *     0.0000    0.0000     4          
    83  Li    c      7.2544 *    -1.9603 *     7.8414 *  0.0000     8          
    84  Cl    c     -6.4679 *     3.9207 *     7.8414 *  0.0000     8          
    85  O     c     -4.5076 *    -1.9603 *     9.8017 *  0.0000     8          
    86  Li    c     -8.4283 *     5.8810 *     3.9207 *  0.0000     8          
    87  O     c      7.2544 *     5.8810 *     5.8810    0.0000     4          
    88  Li    c      3.3337 *     9.8017 *     3.9207 *  0.0000     8          
    89  Cl    c    -10.3886 *     0.0000       3.9207 *  0.0000     4          
    90  Li    c      9.2148 *    -1.9603 *     5.8810 *  0.0000     8          
    91  Cl    c      1.3734 *     7.8414 *     7.8414    0.0000     4          
    92  Li    c      5.2941 *    -1.9603 *     9.8017 *  0.0000     8          
    93  Li    c     11.1751 *    -1.9603 *     0.0000    0.0000     4          
    94  Cl    c     -2.5473 *     7.8414 *     7.8414    0.0000     4          
    95  O     c     -0.5869 *     5.8810 *     9.8017 *  0.0000     8          
    96  Li    c     -4.5076 *     9.8017 *     3.9207 *  0.0000     8          
    97  Li    c      1.3734 *     5.8810 *     9.8017 *  0.0000     8          
    98  O     c     11.1751 *    -1.9603 *    -1.9603    0.0000     4          
    99  Li    c     -8.4283 *    -1.9603 *     7.8414 *  0.0000     8          
   100  Li    c     -2.5473 *     5.8810 *     9.8017 *  0.0000     8          
   101  Cl    c    -10.3886 *     3.9207 *     3.9207    0.0000     4          
   102  O     c     -8.4283 *     5.8810 *     5.8810    0.0000     4          
   103  Cl    c      1.3734 *     0.0000      11.7620 *  0.0000     4          
   104  Li    c     -6.4679 *    -1.9603 *     9.8017 *  0.0000     8          
   105  O     c      3.3337 *     5.8810 *     9.8017 *  0.0000     8          
   106  Li    c     -0.5869 *    -1.9603 *    11.7620 *  0.0000     8          
   107  Li    c     11.1751 *    -1.9603 *     3.9207 *  0.0000     8          
   108  Cl    c     -2.5473 *     0.0000      11.7620 *  0.0000     4          
   109  Li    c    -10.3886 *     5.8810 *    -1.9603 *  0.0000     8          
   110  Cl    c      9.2148 *     0.0000       7.8414 *  0.0000     4          
   111  Li    c      7.2544 *     5.8810 *     7.8414 *  0.0000     8          
   112  Li    c      7.2544 *     9.8017 *     0.0000    0.0000     4          
   113  O     c     -4.5076 *     5.8810 *     9.8017 *  0.0000     8          
   114  Cl    c      5.2941 *     7.8414 *     7.8414    0.0000     4          
   115  O     c      7.2544 *    -1.9603 *     9.8017 *  0.0000     8          
   116  Li    c      3.3337 *    11.7620 *    -1.9603 *  0.0000     8          
   117  Li    c      9.2148 *     5.8810 *     5.8810    0.0000     4          
   118  Cl    c      1.3734 *     3.9207 *    11.7620 *  0.0000     8          
   119  Li    c    -12.3490 *    -1.9603 *     0.0000    0.0000     4          
   120  Li    c     -0.5869 *     9.8017 *     7.8414 *  0.0000     8          
   121  Li    c      5.2941 *     5.8810 *     9.8017 *  0.0000     8          
   122  Li    c     11.1751 *     5.8810 *     0.0000    0.0000     4          
   123  O     c    -12.3490 *    -1.9603 *    -1.9603    0.0000     4          
   124  Cl    c     -2.5473 *     3.9207 *    11.7620 *  0.0000     8          
   125  Cl    c      9.2148 *     3.9207 *     7.8414 *  0.0000     8          
   126  Li    c     -4.5076 *    11.7620 *    -1.9603 *  0.0000     8          
   127  O     c     11.1751 *     5.8810 *    -1.9603 *  0.0000     8          
   128  Li    c      7.2544 *     9.8017 *     3.9207 *  0.0000     8          
   129  Cl    c     -6.4679 *     7.8414 *     7.8414    0.0000     4          
   130  Cl    c      5.2941 *     0.0000      11.7620 *  0.0000     4          
   131  Li    c     -8.4283 *     5.8810 *     7.8414 *  0.0000     8          
   132  Li    c     -8.4283 *     9.8017 *     0.0000    0.0000     4          
   133  Li    c      3.3337 *     9.8017 *     7.8414 *  0.0000     8          
   134  Cl    c    -10.3886 *     0.0000       7.8414 *  0.0000     4          
   135  O     c     -8.4283 *    -1.9603 *     9.8017 *  0.0000     8          
   136  Li    c    -12.3490 *    -1.9603 *     3.9207 *  0.0000     8          
   137  Li    c     -6.4679 *     5.8810 *     9.8017 *  0.0000     8          
   138  Cl    c     13.1354 *     0.0000       0.0000    0.0000     1          
   139  Li    c     -0.5869 *     5.8810 *    11.7620 *  0.0000     8          
   140  Li    c     11.1751 *     5.8810 *     3.9207 *  0.0000     8          
   141  Li    c    -10.3886 *     5.8810 *     5.8810    0.0000     4          
   142  Li    c     -4.5076 *     9.8017 *     7.8414 *  0.0000     8          
   143  Cl    c     -6.4679 *     0.0000      11.7620 *  0.0000     4          
   144  Li    c     13.1354 *    -1.9603 *    -1.9603    0.0000     4          
   145  Cl    c      5.2941 *     3.9207 *    11.7620 *  0.0000     8          
   146  Li    c     -8.4283 *     9.8017 *     3.9207 *  0.0000     8          
   147  O     c      7.2544 *     5.8810 *     9.8017 *  0.0000     8          
   148  Li    c      3.3337 *     5.8810 *    11.7620 *  0.0000     8          
   149  Cl    c    -10.3886 *     7.8414 *     3.9207 *  0.0000     8          
   150  Li    c      9.2148 *    -1.9603 *     9.8017 *  0.0000     8          
   151  Li    c    -12.3490 *     5.8810 *     0.0000    0.0000     4          
   152  Cl    c     13.1354 *     0.0000       3.9207 *  0.0000     4          
   153  Li    c     -0.5869 *    13.7224 *     0.0000    0.0000     4          
   154  Li    c     11.1751 *    -1.9603 *     7.8414 *  0.0000     8          
   155  O     c    -12.3490 *    -1.9603 *     5.8810 *  0.0000     8          
   156  O     c     -0.5869 *    -1.9603 *    13.7224 *  0.0000     8          
   157  O     c     -0.5869 *     9.8017 *     9.8017    0.0000     4          
   158  Li    c     -4.5076 *     5.8810 *    11.7620 *  0.0000     8          
   159  Li    c      1.3734 *    -1.9603 *    13.7224 *  0.0000     8          
   160  Li    c      1.3734 *     9.8017 *     9.8017    0.0000     4          
   161  O     c     11.1751 *     5.8810 *     5.8810    0.0000     4          
   162  Li    c      7.2544 *    11.7620 *    -1.9603 *  0.0000     8          
   163  Cl    c     -6.4679 *     3.9207 *    11.7620 *  0.0000     8          
   164  Li    c     -2.5473 *    -1.9603 *    13.7224 *  0.0000     8          
   165  Li    c     -2.5473 *     9.8017 *     9.8017    0.0000     4          
   166  Li    c      3.3337 *    13.7224 *     0.0000    0.0000     4          
   167  O     c     -8.4283 *     5.8810 *     9.8017 *  0.0000     8          
   168  Cl    c      1.3734 *     7.8414 *    11.7620 *  0.0000     8          
   169  Li    c    -12.3490 *     5.8810 *     3.9207 *  0.0000     8          
   170  O     c      3.3337 *    13.7224 *    -1.9603 *  0.0000     8          
   171  O     c      3.3337 *     9.8017 *     9.8017    0.0000     4          
   172  Cl    c     13.1354 *     3.9207 *     3.9207    0.0000     4          
   173  Li    c     -0.5869 *    13.7224 *     3.9207 *  0.0000     8          
   174  Cl    c    -14.3093 *     0.0000       0.0000    0.0000     1          
   175  Cl    c     -2.5473 *     7.8414 *    11.7620 *  0.0000     8          
   176  Li    c    -10.3886 *     9.8017 *    -1.9603 *  0.0000     8          
   177  Cl    c      9.2148 *     7.8414 *     7.8414    0.0000     4          
   178  Li    c     -4.5076 *    13.7224 *     0.0000    0.0000     4          
   179  Li    c      7.2544 *     9.8017 *     7.8414 *  0.0000     8          
   180  Li    c     13.1354 *    -1.9603 *     5.8810 *  0.0000     8          
   181  Li    c    -14.3093 *    -1.9603 *    -1.9603    0.0000     4          
   182  O     c     -4.5076 *    13.7224 *    -1.9603 *  0.0000     8          
   183  O     c     -4.5076 *     9.8017 *     9.8017    0.0000     4          
   184  Li    c     -8.4283 *    11.7620 *    -1.9603 *  0.0000     8          
   185  Li    c      3.3337 *    13.7224 *     3.9207 *  0.0000     8          
   186  Li    c      9.2148 *     5.8810 *     9.8017 *  0.0000     8          
   187  Li    c    -12.3490 *    -1.9603 *     7.8414 *  0.0000     8          
   188  Cl    c    -14.3093 *     0.0000       3.9207 *  0.0000     4          
   189  Li    c      5.2941 *    -1.9603 *    13.7224 *  0.0000     8          
   190  Li    c      5.2941 *     9.8017 *     9.8017    0.0000     4          
   191  Li    c     11.1751 *     5.8810 *     7.8414 *  0.0000     8          
   192  Li    c     11.1751 *     9.8017 *     0.0000    0.0000     4          
   193  O     c    -12.3490 *     5.8810 *     5.8810    0.0000     4          
   194  O     c     -0.5869 *     5.8810 *    13.7224 *  0.0000     8          
   195  Cl    c      9.2148 *     0.0000      11.7620 *  0.0000     4          
   196  Li    c     -4.5076 *    13.7224 *     3.9207 *  0.0000     8          
   197  Li    c      1.3734 *     5.8810 *    13.7224 *  0.0000     8          
   198  O     c     11.1751 *     9.8017 *    -1.9603 *  0.0000     8          
   199  Li    c      7.2544 *    11.7620 *     5.8810 *  0.0000     8          
   200  Cl    c      5.2941 *     7.8414 *    11.7620 *  0.0000     8          
   201  Li    c     -8.4283 *     9.8017 *     7.8414 *  0.0000     8          
   202  Li    c     -2.5473 *     5.8810 *    13.7224 *  0.0000     8          
   203  Cl    c    -10.3886 *     7.8414 *     7.8414    0.0000     4          
   204  Li    c     15.0958 *    -1.9603 *     0.0000    0.0000     4          
   205  Li    c     -6.4679 *    -1.9603 *    13.7224 *  0.0000     8          
   206  Li    c     -6.4679 *     9.8017 *     9.8017    0.0000     4          
   207  O     c      3.3337 *    13.7224 *     5.8810 *  0.0000     8          
   208  Cl    c     13.1354 *     0.0000       7.8414 *  0.0000     4          
   209  Li    c     -0.5869 *     9.8017 *    11.7620 *  0.0000     8          
   210  Cl    c    -14.3093 *     3.9207 *     3.9207    0.0000     4          
   211  O     c     15.0958 *    -1.9603 *    -1.9603    0.0000     4          
   212  Li    c     11.1751 *     9.8017 *     3.9207 *  0.0000     8          
   213  Li    c    -10.3886 *     5.8810 *     9.8017 *  0.0000     8          
   214  Cl    c      9.2148 *    11.7620 *     3.9207 *  0.0000     8          
   215  Li    c      7.2544 *    13.7224 *     0.0000    0.0000     4          
   216  Cl    c     -6.4679 *     7.8414 *    11.7620 *  0.0000     8          
   217  Li    c     13.1354 *     5.8810 *     5.8810    0.0000     4          
   218  Li    c    -14.3093 *    -1.9603 *     5.8810 *  0.0000     8          
   219  O     c     -4.5076 *     5.8810 *    13.7224 *  0.0000     8          
   220  Li    c     -8.4283 *    11.7620 *     5.8810 *  0.0000     8          
   221  O     c      7.2544 *    -1.9603 *    13.7224 *  0.0000     8          
   222  O     c      7.2544 *     9.8017 *     9.8017    0.0000     4          
   223  Li    c      3.3337 *     9.8017 *    11.7620 *  0.0000     8          
   224  Cl    c    -10.3886 *     0.0000      11.7620 *  0.0000     4          
   225  Li    c     15.0958 *    -1.9603 *     3.9207 *  0.0000     8          
   226  Cl    c      1.3734 *     0.0000      15.6827 *  0.0000     4          
   227  Li    c    -12.3490 *     5.8810 *     7.8414 *  0.0000     8          
   228  Li    c    -12.3490 *     9.8017 *     0.0000    0.0000     4          
   229  Cl    c     13.1354 *     3.9207 *     7.8414 *  0.0000     8          
   230  Li    c     -0.5869 *    -1.9603 *    15.6827 *  0.0000     8          
   231  Li    c     -0.5869 *    13.7224 *     7.8414 *  0.0000     8          
   232  Li    c      5.2941 *     5.8810 *    13.7224 *  0.0000     8          
   233  O     c    -12.3490 *    -1.9603 *     9.8017 *  0.0000     8          
   234  Cl    c     -2.5473 *     0.0000      15.6827 *  0.0000     4          
   235  Li    c     -4.5076 *     9.8017 *    11.7620 *  0.0000     8          
   236  O     c     11.1751 *     5.8810 *     9.8017 *  0.0000     8          
   237  Li    c      7.2544 *     3.9207 *    13.7224 *  0.0000     8          
   238  Li    c     -8.4283 *    13.7224 *     0.0000    0.0000     4          
   239  Li    c      3.3337 *    -1.9603 *    15.6827 *  0.0000     8          
   240  Li    c      3.3337 *    13.7224 *     7.8414 *  0.0000     8          
   241  Cl    c    -10.3886 *     3.9207 *    11.7620 *  0.0000     8          
   242  Li    c     15.0958 *     5.8810 *     0.0000    0.0000     4          
   243  O     c     -8.4283 *    -1.9603 *    13.7224 *  0.0000     8          
   244  O     c     -8.4283 *     9.8017 *     9.8017    0.0000     4          
   245  Cl    c      1.3734 *     3.9207 *    15.6827 *  0.0000     8          
   246  Li    c    -12.3490 *     9.8017 *     3.9207 *  0.0000     8          
   247  Li    c     -6.4679 *     5.8810 *    13.7224 *  0.0000     8          
   248  Cl    c    -14.3093 *     0.0000       7.8414 *  0.0000     4          
   249  O     c     15.0958 *    -1.9603 *     5.8810 *  0.0000     8          
   250  Li    c     11.1751 *    -1.9603 *    11.7620 *  0.0000     8          
   251  Cl    c     -2.5473 *     3.9207 *    15.6827 *  0.0000     8          
   252  Li    c    -16.2696 *    -1.9603 *     0.0000    0.0000     4          
   253  Li    c     -4.5076 *    -1.9603 *    15.6827 *  0.0000     8          
   254  Li    c     -4.5076 *    13.7224 *     7.8414 *  0.0000     8          
   255  O     c    -16.2696 *    -1.9603 *    -1.9603    0.0000     4          
   256  Li    c     13.1354 *    -1.9603 *     9.8017 *  0.0000     8          
   257  Li    c    -14.3093 *     5.8810 *     5.8810    0.0000     4          
   258  Cl    c      5.2941 *     0.0000      15.6827 *  0.0000     4          
   259  Li    c     -8.4283 *     3.9207 *    13.7224 *  0.0000     8          
   260  O     c      7.2544 *     5.8810 *    13.7224 *  0.0000     8          
   261  Li    c      9.2148 *    -1.9603 *    13.7224 *  0.0000     8          
   262  Li    c      9.2148 *     9.8017 *     9.8017    0.0000     4          
   263  Li    c     15.0958 *     5.8810 *     3.9207 *  0.0000     8          
   264  Cl    c      1.3734 *    11.7620 *    11.7620    0.0000     4          
   265  Li    c     -0.5869 *     5.8810 *    15.6827 *  0.0000     8          
   266  Cl    c    -14.3093 *     3.9207 *     7.8414 *  0.0000     8          
   267  Li    c     11.1751 *     9.8017 *     7.8414 *  0.0000     8          
   268  O     c    -12.3490 *     5.8810 *     9.8017 *  0.0000     8          
   269  Cl    c     -2.5473 *    11.7620 *    11.7620    0.0000     4          
   270  Li    c    -16.2696 *    -1.9603 *     3.9207 *  0.0000     8          
   271  O     c     -0.5869 *     9.8017 *    13.7224 *  0.0000     8          
   272  Cl    c      9.2148 *     7.8414 *    11.7620 *  0.0000     8          
   273  Li    c      1.3734 *     9.8017 *    13.7224 *  0.0000     8          
   274  Li    c      7.2544 *     9.8017 *    11.7620 *  0.0000     8          
   275  Cl    c     -6.4679 *     0.0000      15.6827 *  0.0000     4          
   276  Cl    c      5.2941 *     3.9207 *    15.6827 *  0.0000     8          
   277  Li    c     -2.5473 *     9.8017 *    13.7224 *  0.0000     8          
   278  Cl    c     17.0561 *     0.0000       0.0000    0.0000     1          
   279  Li    c      3.3337 *     5.8810 *    15.6827 *  0.0000     8          
   280  Li    c     15.0958 *    -1.9603 *     7.8414 *  0.0000     8          
   281  O     c     -8.4283 *     5.8810 *    13.7224 *  0.0000     8          
   282  Li    c    -12.3490 *    -1.9603 *    11.7620 *  0.0000     8          
   283  O     c      3.3337 *     9.8017 *    13.7224 *  0.0000     8          
   284  Cl    c     13.1354 *     7.8414 *     7.8414    0.0000     4          
   285  O     c     15.0958 *     5.8810 *     5.8810    0.0000     4          
   286  Li    c     11.1751 *     5.8810 *    11.7620 *  0.0000     8          
   287  Li    c     17.0561 *    -1.9603 *    -1.9603    0.0000     4          
   288  Li    c    -16.2696 *     5.8810 *     0.0000    0.0000     4          
   289  Li    c    -10.3886 *    -1.9603 *    13.7224 *  0.0000     8          
   290  Li    c    -10.3886 *     9.8017 *     9.8017    0.0000     4          
   291  Li    c     -4.5076 *    15.6827 *     5.8810 *  0.0000     8          
   292  Li    c      7.2544 *    -1.9603 *    15.6827 *  0.0000     8          
   293  Li    c      7.2544 *     7.8414 *    13.7224 *  0.0000     8          
   294  O     c    -16.2696 *     5.8810 *    -1.9603 *  0.0000     8          
   295  Cl    c     -6.4679 *     3.9207 *    15.6827 *  0.0000     8          
   296  Li    c     13.1354 *     5.8810 *     9.8017 *  0.0000     8          
   297  Li    c    -14.3093 *    -1.9603 *     9.8017 *  0.0000     8          
   298  O     c     -4.5076 *     9.8017 *    13.7224 *  0.0000     8          
   299  Cl    c      5.2941 *    11.7620 *    11.7620    0.0000     4          
   300  Li    c     -8.4283 *     9.8017 *    11.7620 *  0.0000     8          
   301  Cl    c     17.0561 *     0.0000       3.9207 *  0.0000     4          
   302  Cl    c    -10.3886 *     7.8414 *    11.7620 *  0.0000     8          
   303  Li    c      9.2148 *     5.8810 *    13.7224 *  0.0000     8          
   304  Cl    c      1.3734 *     7.8414 *    15.6827 *  0.0000     8          
   305  Li    c    -12.3490 *     9.8017 *     7.8414 *  0.0000     8          
   306  Cl    c     13.1354 *     0.0000      11.7620 *  0.0000     4          
   307  Li    c     -0.5869 *    17.6430 *     0.0000    0.0000     4          
   308  Li    c      5.2941 *     9.8017 *    13.7224 *  0.0000     8          
   309  Li    c     11.1751 *    13.7224 *     0.0000    0.0000     4          
   310  Cl    c     -2.5473 *     7.8414 *    15.6827 *  0.0000     8          
   311  Li    c    -16.2696 *     5.8810 *     3.9207 *  0.0000     8          
   312  O     c     -0.5869 *    -1.9603 *    17.6430 *  0.0000     8          
   313  Li    c      1.3734 *    17.6430 *    -1.9603 *  0.0000     8          
   314  O     c     11.1751 *    13.7224 *    -1.9603 *  0.0000     8          
   315  O     c     11.1751 *     9.8017 *     9.8017    0.0000     4          
   316  Cl    c     -6.4679 *    11.7620 *    11.7620    0.0000     4          
   317  Li    c     -8.4283 *    -1.9603 *    15.6827 *  0.0000     8          
   318  Li    c     -8.4283 *     7.8414 *    13.7224 *  0.0000     8          
   319  Li    c     -2.5473 *    -1.9603 *    17.6430 *  0.0000     8          
   320  Cl    c     17.0561 *     3.9207 *     3.9207    0.0000     4          
   321  Li    c      3.3337 *    17.6430 *     0.0000    0.0000     4          
   322  Li    c     15.0958 *     5.8810 *     7.8414 *  0.0000     8          
   323  Li    c     15.0958 *     9.8017 *     0.0000    0.0000     4          
   324  Li    c    -12.3490 *     5.8810 *    11.7620 *  0.0000     8          
   325  Li    c     -6.4679 *     9.8017 *    13.7224 *  0.0000     8          
   326  O     c      3.3337 *    -1.9603 *    17.6430 *  0.0000     8          
   327  Cl    c     13.1354 *     3.9207 *    11.7620 *  0.0000     8          
   328  Li    c     -0.5869 *    13.7224 *    11.7620 *  0.0000     8          
   329  Li    c     -0.5869 *     3.9207 *    17.6430 *  0.0000     8          
   330  Cl    c    -14.3093 *     7.8414 *     7.8414    0.0000     4          
   331  O     c     15.0958 *    -1.9603 *     9.8017 *  0.0000     8          
   332  Li    c     11.1751 *    13.7224 *     3.9207 *  0.0000     8          
   333  Li    c     17.0561 *    -1.9603 *     5.8810 *  0.0000     8          
   334  Li    c    -16.2696 *    -1.9603 *     7.8414 *  0.0000     8          
   335  Li    c    -10.3886 *     5.8810 *    13.7224 *  0.0000     8          
   336  Cl    c      9.2148 *     0.0000      15.6827 *  0.0000     4          
   337  Li    c     -4.5076 *    17.6430 *     0.0000    0.0000     4          
   338  Cl    c    -18.2300 *     0.0000       0.0000    0.0000     1          
   339  Li    c      7.2544 *     5.8810 *    15.6827 *  0.0000     8          
   340  O     c    -16.2696 *     5.8810 *     5.8810    0.0000     4          
   341  Li    c    -14.3093 *     5.8810 *     9.8017 *  0.0000     8          
   342  O     c     -4.5076 *    -1.9603 *    17.6430 *  0.0000     8          
   343  Cl    c      5.2941 *     7.8414 *    15.6827 *  0.0000     8          
   344  O     c      7.2544 *     9.8017 *    13.7224 *  0.0000     8          
   345  Li    c      3.3337 *    13.7224 *    11.7620 *  0.0000     8          
   346  Li    c      3.3337 *     3.9207 *    17.6430 *  0.0000     8          
   347  Li    c     15.0958 *     3.9207 *     9.8017 *  0.0000     8          
   348  Li    c    -18.2300 *    -1.9603 *    -1.9603    0.0000     4          
   349  Li    c    -12.3490 *    13.7224 *     0.0000    0.0000     4          
   350  Li    c     -0.5869 *     9.8017 *    15.6827 *  0.0000     8          
   351  Cl    c    -14.3093 *     0.0000      11.7620 *  0.0000     4          
   352  Li    c      5.2941 *    17.6430 *    -1.9603 *  0.0000     8          
   353  O     c    -12.3490 *    -1.9603 *    13.7224 *  0.0000     8          
   354  O     c    -12.3490 *     9.8017 *     9.8017    0.0000     4          
   355  O     c     -0.5869 *     5.8810 *    17.6430 *  0.0000     8          
   356  Cl    c      9.2148 *     3.9207 *    15.6827 *  0.0000     8          
   357  Li    c     -4.5076 *    13.7224 *    11.7620 *  0.0000     8          
   358  Li    c     -4.5076 *     3.9207 *    17.6430 *  0.0000     8          
   359  Cl    c    -18.2300 *     0.0000       3.9207 *  0.0000     4          
   360  Li    c      1.3734 *     5.8810 *    17.6430 *  0.0000     8          
   361  O     c     11.1751 *     5.8810 *    13.7224 *  0.0000     8          
   362  Cl    c     -6.4679 *     7.8414 *    15.6827 *  0.0000     8          
   363  Li    c     -8.4283 *     5.8810 *    15.6827 *  0.0000     8          
   364  Li    c     -2.5473 *     5.8810 *    17.6430 *  0.0000     8          
   365  Cl    c     17.0561 *     0.0000       7.8414 *  0.0000     4          
   366  Li    c      3.3337 *    15.6827 *     9.8017 *  0.0000     8          
   367  Cl    c    -10.3886 *     0.0000      15.6827 *  0.0000     4          
   368  O     c     -8.4283 *     9.8017 *    13.7224 *  0.0000     8          
   369  Li    c    -12.3490 *     3.9207 *    13.7224 *  0.0000     8          
   370  Li    c     -6.4679 *    -1.9603 *    17.6430 *  0.0000     8          
   371  O     c      3.3337 *     5.8810 *    17.6430 *  0.0000     8          
   372  Cl    c    -14.3093 *     3.9207 *    11.7620 *  0.0000     8          
   373  O     c     15.0958 *     5.8810 *     9.8017 *  0.0000     8          
   374  Li    c     11.1751 *     9.8017 *    11.7620 *  0.0000     8          
   375  Li    c     17.0561 *     5.8810 *     5.8810    0.0000     4          
   376  Li    c    -16.2696 *     5.8810 *     7.8414 *  0.0000     8          
   377  Li    c    -16.2696 *     9.8017 *     0.0000    0.0000     4          
   378  Cl    c      9.2148 *    11.7620 *    11.7620    0.0000     4          
   379  Li    c     -4.5076 *     9.8017 *    15.6827 *  0.0000     8          
   380  Cl    c    -18.2300 *     3.9207 *     3.9207    0.0000     4          
   381  Li    c      7.2544 *    17.6430 *     0.0000    0.0000     4          
   382  O     c    -16.2696 *    -1.9603 *     9.8017 *  0.0000     8          
   383  Li    c     13.1354 *    -1.9603 *    13.7224 *  0.0000     8          
   384  Li    c     13.1354 *     9.8017 *     9.8017    0.0000     4          
   385  Li    c     19.0164 *    -1.9603 *     0.0000    0.0000     4          
   386  O     c     -4.5076 *     5.8810 *    17.6430 *  0.0000     8          
   387  O     c      7.2544 *    -1.9603 *    17.6430 *  0.0000     8          
   388  Cl    c     17.0561 *     3.9207 *     7.8414 *  0.0000     8          
   389  Cl    c    -10.3886 *     3.9207 *    15.6827 *  0.0000     8          
   390  Li    c      9.2148 *     9.8017 *    13.7224 *  0.0000     8          
   391  O     c     19.0164 *    -1.9603 *    -1.9603    0.0000     4          
   392  Li    c     15.0958 *    11.7620 *    -1.9603 *  0.0000     8          
   393  Li    c    -18.2300 *    -1.9603 *     5.8810 *  0.0000     8          
   394  Cl    c     13.1354 *     7.8414 *    11.7620 *  0.0000     8          
   395  Li    c     -0.5869 *     7.8414 *    17.6430 *  0.0000     8          
   396  Li    c      5.2941 *    17.6430 *     5.8810 *  0.0000     8          
   397  Li    c     11.1751 *    -1.9603 *    15.6827 *  0.0000     8          
   398  Li    c     11.1751 *    13.7224 *     7.8414 *  0.0000     8          
   399  O     c    -12.3490 *     5.8810 *    13.7224 *  0.0000     8          
   400  Li    c    -16.2696 *     3.9207 *     9.8017 *  0.0000     8          
   401  O     c     -0.5869 *    13.7224 *    13.7224    0.0000     4          
   402  Li    c      1.3734 *    13.7224 *    13.7224    0.0000     4          
   403  Li    c      7.2544 *    13.7224 *    11.7620 *  0.0000     8          
   404  Li    c      7.2544 *    17.6430 *     3.9207 *  0.0000     8          
   405  Li    c     19.0164 *    -1.9603 *     3.9207 *  0.0000     8          
   406  Li    c     -8.4283 *    17.6430 *     0.0000    0.0000     4          
   407  Li    c     -2.5473 *    13.7224 *    13.7224    0.0000     4          
   408  Li    c      3.3337 *     7.8414 *    17.6430 *  0.0000     8          
   409  Cl    c    -10.3886 *    11.7620 *    11.7620    0.0000     4          
   410  Li    c     15.0958 *     7.8414 *     9.8017 *  0.0000     8          
   411  O     c     -8.4283 *    -1.9603 *    17.6430 *  0.0000     8          
   412  Cl    c      1.3734 *    11.7620 *    15.6827 *  0.0000     8          
   413  Cl    c      1.3734 *     0.0000      19.6034 *  0.0000     4          
   414  Li    c    -12.3490 *     9.8017 *    11.7620 *  0.0000     8          
   415  Li    c     -6.4679 *     5.8810 *    17.6430 *  0.0000     8          
   416  O     c      3.3337 *    13.7224 *    13.7224    0.0000     4          
   417  Li    c     -0.5869 *    -1.9603 *    19.6034 *  0.0000     8          
   418  Cl    c     -2.5473 *    11.7620 *    15.6827 *  0.0000     8          
   419  Cl    c     -2.5473 *     0.0000      19.6034 *  0.0000     4          
   420  Li    c     17.0561 *     9.8017 *    -1.9603 *  0.0000     8          
   421  Li    c    -10.3886 *     9.8017 *    13.7224 *  0.0000     8          
   422  Cl    c      9.2148 *     7.8414 *    15.6827 *  0.0000     8          
   423  Li    c     -4.5076 *     7.8414 *    17.6430 *  0.0000     8          
   424  Cl    c    -18.2300 *     0.0000       7.8414 *  0.0000     4          
   425  Li    c      7.2544 *     9.8017 *    15.6827 *  0.0000     8          
   426  O     c    -16.2696 *     5.8810 *     9.8017 *  0.0000     8          
   427  Li    c     13.1354 *     5.8810 *    13.7224 *  0.0000     8          
   428  Li    c     19.0164 *     5.8810 *     0.0000    0.0000     4          
   429  Li    c    -14.3093 *    -1.9603 *    13.7224 *  0.0000     8          
   430  Li    c    -14.3093 *     9.8017 *     9.8017    0.0000     4          
   431  O     c     -4.5076 *    13.7224 *    13.7224    0.0000     4          
   432  Li    c     -8.4283 *    13.7224 *    11.7620 *  0.0000     8          
   433  Li    c     -8.4283 *    17.6430 *     3.9207 *  0.0000     8          
   434  O     c      7.2544 *     5.8810 *    17.6430 *  0.0000     8          
   435  Li    c      3.3337 *    -1.9603 *    19.6034 *  0.0000     8          
   436  Cl    s      0.0000       0.0000       0.0000    0.0000     1    Defect
   437  O     s     -0.5869 *    -1.9603 *    -1.9603    0.0000     4          
   438  Cl    s      1.3734 *     0.0000       3.9207 *  0.0000     4          
   439  O     s      3.3337 *    -1.9603 *    -1.9603    0.0000     4          
   440  Cl    s     -2.5473 *     0.0000       3.9207 *  0.0000     4          
   441  O     s     -4.5076 *    -1.9603 *    -1.9603    0.0000     4          
   442  Cl    s      5.2941 *     0.0000       0.0000    0.0000     1          
   443  Cl    s      1.3734 *     3.9207 *     3.9207    0.0000     4          
   444  Cl    s     -2.5473 *     3.9207 *     3.9207    0.0000     4          
   445  O     s     -0.5869 *     5.8810 *    -1.9603 *  0.0000     8          
   446  Cl    s     -6.4679 *     0.0000       0.0000    0.0000     1          
   447  Cl    s      5.2941 *     0.0000       3.9207 *  0.0000     4          
   448  O     s      3.3337 *    -1.9603 *     5.8810 *  0.0000     8          
   449  Cl    s     -6.4679 *     0.0000       3.9207 *  0.0000     4          
   450  O     s     -4.5076 *    -1.9603 *     5.8810 *  0.0000     8          
   451  Cl    s      5.2941 *     3.9207 *     3.9207    0.0000     4          
   452  O     s      7.2544 *    -1.9603 *    -1.9603    0.0000     4          
   453  Cl    s      1.3734 *     0.0000       7.8414 *  0.0000     4          
   454  Cl    s     -2.5473 *     0.0000       7.8414 *  0.0000     4          
   455  O     s     -0.5869 *     5.8810 *     5.8810    0.0000     4          
   456  Cl    s     -6.4679 *     3.9207 *     3.9207    0.0000     4          
   457  O     s     -8.4283 *    -1.9603 *    -1.9603    0.0000     4          
   458  Cl    s      1.3734 *     3.9207 *     7.8414 *  0.0000     8          
   459  O     s      3.3337 *     5.8810 *     5.8810    0.0000     4          
   460  Cl    s     -2.5473 *     3.9207 *     7.8414 *  0.0000     8          
   461  Cl    s      9.2148 *     0.0000       0.0000    0.0000     1          
   462  O     s     -4.5076 *     5.8810 *     5.8810    0.0000     4          
   463  Cl    s      5.2941 *     0.0000       7.8414 *  0.0000     4          
   464  O     s      7.2544 *    -1.9603 *     5.8810 *  0.0000     8          
   465  O     s     -0.5869 *    -1.9603 *     9.8017 *  0.0000     8          
   466  Cl    s      9.2148 *     0.0000       3.9207 *  0.0000     4          
   467  Cl    s     -6.4679 *     0.0000       7.8414 *  0.0000     4          
   468  Cl    s      5.2941 *     3.9207 *     7.8414 *  0.0000     8          
   469  Cl    s    -10.3886 *     0.0000       0.0000    0.0000     1          
   470  O     s     -8.4283 *    -1.9603 *     5.8810 *  0.0000     8          
   471  O     s      3.3337 *    -1.9603 *     9.8017 *  0.0000     8          
   472  Cl    s      9.2148 *     3.9207 *     3.9207    0.0000     4          
   473  Cl    s     -6.4679 *     3.9207 *     7.8414 *  0.0000     8          
   474  O     s     -4.5076 *    -1.9603 *     9.8017 *  0.0000     8          
   475  O     s      7.2544 *     5.8810 *     5.8810    0.0000     4          
   476  Cl    s    -10.3886 *     0.0000       3.9207 *  0.0000     4          
   477  Cl    s      1.3734 *     7.8414 *     7.8414    0.0000     4          
   478  Cl    s     -2.5473 *     7.8414 *     7.8414    0.0000     4          
   479  O     s     -0.5869 *     5.8810 *     9.8017 *  0.0000     8          
   480  O     s     11.1751 *    -1.9603 *    -1.9603    0.0000     4          
   481  Cl    s    -10.3886 *     3.9207 *     3.9207    0.0000     4          
   482  O     s     -8.4283 *     5.8810 *     5.8810    0.0000     4          
   483  Cl    s      1.3734 *     0.0000      11.7620 *  0.0000     4          
   484  O     s      3.3337 *     5.8810 *     9.8017 *  0.0000     8          
   485  Cl    s     -2.5473 *     0.0000      11.7620 *  0.0000     4          
   486  Cl    s      9.2148 *     0.0000       7.8414 *  0.0000     4          
   487  O     s     -4.5076 *     5.8810 *     9.8017 *  0.0000     8          
   488  Cl    s      5.2941 *     7.8414 *     7.8414    0.0000     4          
   489  O     s      7.2544 *    -1.9603 *     9.8017 *  0.0000     8          
   490  Cl    s      1.3734 *     3.9207 *    11.7620 *  0.0000     8          
   491  O     s    -12.3490 *    -1.9603 *    -1.9603    0.0000     4          
   492  Cl    s     -2.5473 *     3.9207 *    11.7620 *  0.0000     8          
   493  Cl    s      9.2148 *     3.9207 *     7.8414 *  0.0000     8          
   494  O     s     11.1751 *     5.8810 *    -1.9603 *  0.0000     8          
   495  Cl    s     -6.4679 *     7.8414 *     7.8414    0.0000     4          
   496  Cl    s      5.2941 *     0.0000      11.7620 *  0.0000     4          
   497  Cl    s    -10.3886 *     0.0000       7.8414 *  0.0000     4          
   498  O     s     -8.4283 *    -1.9603 *     9.8017 *  0.0000     8          
   499  Cl    s     13.1354 *     0.0000       0.0000    0.0000     1          
   500  Cl    s     -6.4679 *     0.0000      11.7620 *  0.0000     4          
   501  Cl    s      5.2941 *     3.9207 *    11.7620 *  0.0000     8          
   502  O     s      7.2544 *     5.8810 *     9.8017 *  0.0000     8          
   503  Cl    s    -10.3886 *     7.8414 *     3.9207 *  0.0000     8          
   504  Cl    s     13.1354 *     0.0000       3.9207 *  0.0000     4          
   505  O     s    -12.3490 *    -1.9603 *     5.8810 *  0.0000     8          
   506  O     s     -0.5869 *    -1.9603 *    13.7224 *  0.0000     8          
   507  O     s     -0.5869 *     9.8017 *     9.8017    0.0000     4          
   508  O     s     11.1751 *     5.8810 *     5.8810    0.0000     4          
   509  Cl    s     -6.4679 *     3.9207 *    11.7620 *  0.0000     8          
   510  O     s     -8.4283 *     5.8810 *     9.8017 *  0.0000     8          
   511  Cl    s      1.3734 *     7.8414 *    11.7620 *  0.0000     8          
   512  O     s      3.3337 *    13.7224 *    -1.9603 *  0.0000     8          
   513  O     s      3.3337 *     9.8017 *     9.8017    0.0000     4          
   514  Cl    s     13.1354 *     3.9207 *     3.9207    0.0000     4          
   515  Cl    s    -14.3093 *     0.0000       0.0000    0.0000     1          
   516  Cl    s     -2.5473 *     7.8414 *    11.7620 *  0.0000     8          
   517  Cl    s      9.2148 *     7.8414 *     7.8414    0.0000     4          
   518  O     s     -4.5076 *    13.7224 *    -1.9603 *  0.0000     8          
   519  O     s     -4.5076 *     9.8017 *     9.8017    0.0000     4          
   520  Cl    s    -14.3093 *     0.0000       3.9207 *  0.0000     4          
   521  O     s    -12.3490 *     5.8810 *     5.8810    0.0000     4          
   522  O     s     -0.5869 *     5.8810 *    13.7224 *  0.0000     8          
   523  Cl    s      9.2148 *     0.0000      11.7620 *  0.0000     4          
   524  O     s     11.1751 *     9.8017 *    -1.9603 *  0.0000     8          
   525  Cl    s      5.2941 *     7.8414 *    11.7620 *  0.0000     8          
   526  Cl    s    -10.3886 *     7.8414 *     7.8414    0.0000     4          
   527  O     s      3.3337 *    13.7224 *     5.8810 *  0.0000     8          
   528  Cl    s     13.1354 *     0.0000       7.8414 *  0.0000     4          
   529  Cl    s    -14.3093 *     3.9207 *     3.9207    0.0000     4          
   530  O     s     15.0958 *    -1.9603 *    -1.9603    0.0000     4          
   531  Cl    s      9.2148 *    11.7620 *     3.9207 *  0.0000     8          
   532  Cl    s     -6.4679 *     7.8414 *    11.7620 *  0.0000     8          
   533  O     s     -4.5076 *     5.8810 *    13.7224 *  0.0000     8          
   534  O     s      7.2544 *    -1.9603 *    13.7224 *  0.0000     8          
   535  O     s      7.2544 *     9.8017 *     9.8017    0.0000     4          
   536  Cl    s    -10.3886 *     0.0000      11.7620 *  0.0000     4          
   537  Cl    s      1.3734 *     0.0000      15.6827 *  0.0000     4          
   538  Cl    s     13.1354 *     3.9207 *     7.8414 *  0.0000     8          
   539  O     s    -12.3490 *    -1.9603 *     9.8017 *  0.0000     8          
   540  Cl    s     -2.5473 *     0.0000      15.6827 *  0.0000     4          
   541  O     s     11.1751 *     5.8810 *     9.8017 *  0.0000     8          
   542  Cl    s    -10.3886 *     3.9207 *    11.7620 *  0.0000     8          
   543  O     s     -8.4283 *    -1.9603 *    13.7224 *  0.0000     8          
   544  O     s     -8.4283 *     9.8017 *     9.8017    0.0000     4          
   545  Cl    s      1.3734 *     3.9207 *    15.6827 *  0.0000     8          
   546  Cl    s    -14.3093 *     0.0000       7.8414 *  0.0000     4          
   547  O     s     15.0958 *    -1.9603 *     5.8810 *  0.0000     8          
   548  Cl    s     -2.5473 *     3.9207 *    15.6827 *  0.0000     8          
   549  O     s    -16.2696 *    -1.9603 *    -1.9603    0.0000     4          
   550  Cl    s      5.2941 *     0.0000      15.6827 *  0.0000     4          
   551  O     s      7.2544 *     5.8810 *    13.7224 *  0.0000     8          
   552  Cl    s      1.3734 *    11.7620 *    11.7620    0.0000     4          
   553  Cl    s    -14.3093 *     3.9207 *     7.8414 *  0.0000     8          
   554  O     s    -12.3490 *     5.8810 *     9.8017 *  0.0000     8          
   555  Cl    s     -2.5473 *    11.7620 *    11.7620    0.0000     4          
   556  O     s     -0.5869 *     9.8017 *    13.7224 *  0.0000     8          
   557  Cl    s      9.2148 *     7.8414 *    11.7620 *  0.0000     8          
   558  Cl    s     -6.4679 *     0.0000      15.6827 *  0.0000     4          
   559  Cl    s      5.2941 *     3.9207 *    15.6827 *  0.0000     8          
   560  Cl    s     17.0561 *     0.0000       0.0000    0.0000     1          
   561  O     s     -8.4283 *     5.8810 *    13.7224 *  0.0000     8          
   562  O     s      3.3337 *     9.8017 *    13.7224 *  0.0000     8          
   563  Cl    s     13.1354 *     7.8414 *     7.8414    0.0000     4          
   564  O     s     15.0958 *     5.8810 *     5.8810    0.0000     4          
   565  O     s    -16.2696 *     5.8810 *    -1.9603 *  0.0000     8          
   566  Cl    s     -6.4679 *     3.9207 *    15.6827 *  0.0000     8          
   567  O     s     -4.5076 *     9.8017 *    13.7224 *  0.0000     8          
   568  Cl    s      5.2941 *    11.7620 *    11.7620    0.0000     4          
   569  Cl    s     17.0561 *     0.0000       3.9207 *  0.0000     4          
   570  Cl    s    -10.3886 *     7.8414 *    11.7620 *  0.0000     8          
   571  Cl    s      1.3734 *     7.8414 *    15.6827 *  0.0000     8          
   572  Cl    s     13.1354 *     0.0000      11.7620 *  0.0000     4          
   573  Cl    s     -2.5473 *     7.8414 *    15.6827 *  0.0000     8          
   574  O     s     -0.5869 *    -1.9603 *    17.6430 *  0.0000     8          
   575  O     s     11.1751 *    13.7224 *    -1.9603 *  0.0000     8          
   576  O     s     11.1751 *     9.8017 *     9.8017    0.0000     4          
   577  Cl    s     -6.4679 *    11.7620 *    11.7620    0.0000     4          
   578  Cl    s     17.0561 *     3.9207 *     3.9207    0.0000     4          
   579  O     s      3.3337 *    -1.9603 *    17.6430 *  0.0000     8          
   580  Cl    s     13.1354 *     3.9207 *    11.7620 *  0.0000     8          
   581  Cl    s    -14.3093 *     7.8414 *     7.8414    0.0000     4          
   582  O     s     15.0958 *    -1.9603 *     9.8017 *  0.0000     8          
   583  Cl    s      9.2148 *     0.0000      15.6827 *  0.0000     4          
   584  Cl    s    -18.2300 *     0.0000       0.0000    0.0000     1          
   585  O     s    -16.2696 *     5.8810 *     5.8810    0.0000     4          
   586  O     s     -4.5076 *    -1.9603 *    17.6430 *  0.0000     8          
   587  Cl    s      5.2941 *     7.8414 *    15.6827 *  0.0000     8          
   588  O     s      7.2544 *     9.8017 *    13.7224 *  0.0000     8          
   589  Cl    s    -14.3093 *     0.0000      11.7620 *  0.0000     4          
   590  O     s    -12.3490 *    -1.9603 *    13.7224 *  0.0000     8          
   591  O     s    -12.3490 *     9.8017 *     9.8017    0.0000     4          
   592  O     s     -0.5869 *     5.8810 *    17.6430 *  0.0000     8          
   593  Cl    s      9.2148 *     3.9207 *    15.6827 *  0.0000     8          
   594  Cl    s    -18.2300 *     0.0000       3.9207 *  0.0000     4          
   595  O     s     11.1751 *     5.8810 *    13.7224 *  0.0000     8          
   596  Cl    s     -6.4679 *     7.8414 *    15.6827 *  0.0000     8          
   597  Cl    s     17.0561 *     0.0000       7.8414 *  0.0000     4          
   598  Cl    s    -10.3886 *     0.0000      15.6827 *  0.0000     4          
   599  O     s     -8.4283 *     9.8017 *    13.7224 *  0.0000     8          
   600  O     s      3.3337 *     5.8810 *    17.6430 *  0.0000     8          
   601  Cl    s    -14.3093 *     3.9207 *    11.7620 *  0.0000     8          
   602  O     s     15.0958 *     5.8810 *     9.8017 *  0.0000     8          
   603  Cl    s      9.2148 *    11.7620 *    11.7620    0.0000     4          
   604  Cl    s    -18.2300 *     3.9207 *     3.9207    0.0000     4          
   605  O     s    -16.2696 *    -1.9603 *     9.8017 *  0.0000     8          
   606  O     s     -4.5076 *     5.8810 *    17.6430 *  0.0000     8          
   607  O     s      7.2544 *    -1.9603 *    17.6430 *  0.0000     8          
   608  Cl    s     17.0561 *     3.9207 *     7.8414 *  0.0000     8          
   609  Cl    s    -10.3886 *     3.9207 *    15.6827 *  0.0000     8          
   610  O     s     19.0164 *    -1.9603 *    -1.9603    0.0000     4          
   611  Cl    s     13.1354 *     7.8414 *    11.7620 *  0.0000     8          
   612  O     s    -12.3490 *     5.8810 *    13.7224 *  0.0000     8          
   613  O     s     -0.5869 *    13.7224 *    13.7224    0.0000     4          
   614  Cl    s    -10.3886 *    11.7620 *    11.7620    0.0000     4          
   615  O     s     -8.4283 *    -1.9603 *    17.6430 *  0.0000     8          
   616  Cl    s      1.3734 *    11.7620 *    15.6827 *  0.0000     8          
   617  Cl    s      1.3734 *     0.0000      19.6034 *  0.0000     4          
   618  O     s      3.3337 *    13.7224 *    13.7224    0.0000     4          
   619  Cl    s     -2.5473 *    11.7620 *    15.6827 *  0.0000     8          
   620  Cl    s     -2.5473 *     0.0000      19.6034 *  0.0000     4          
   621  Cl    s      9.2148 *     7.8414 *    15.6827 *  0.0000     8          
   622  Cl    s    -18.2300 *     0.0000       7.8414 *  0.0000     4          
   623  O     s    -16.2696 *     5.8810 *     9.8017 *  0.0000     8          
   624  O     s     -4.5076 *    13.7224 *    13.7224    0.0000     4          
   625  O     s      7.2544 *     5.8810 *    17.6430 *  0.0000     8          
--------------------------------------------------------------------------------


  Constraints on symmetry reduced coordinates :

--------------------------------------------------------------------------------
  Constraint no.      Unconstrained     Constrained    Coefficient    
                         Variable         Variable
--------------------------------------------------------------------------------
           1                 3 y             3 z         1.00000
           2                 4 y             4 z         1.00000
           3                 5 y             5 z         1.00000
           4                 8 y             8 z         1.00000
           5                12 y            12 z         1.00000
           6                15 y            15 z         1.00000
           7                17 y            17 z         1.00000
           8                18 y            18 z         1.00000
           9                26 y            26 z         1.00000
          10                33 y            33 z         1.00000
          11                34 y            34 z         1.00000
          12                40 y            40 z         1.00000
          13                42 y            42 z         1.00000
          14                44 y            44 z         1.00000
          15                46 y            46 z         1.00000
          16                48 y            48 z         1.00000
          17                51 y            51 z         1.00000
          18                56 y            56 z         1.00000
          19                60 y            60 z         1.00000
          20                63 y            63 z         1.00000
          21                76 y            76 z         1.00000
          22                79 y            79 z         1.00000
          23                80 y            80 z         1.00000
          24                87 y            87 z         1.00000
          25                91 y            91 z         1.00000
          26                94 y            94 z         1.00000
          27                98 y            98 z         1.00000
          28               101 y           101 z         1.00000
          29               102 y           102 z         1.00000
          30               114 y           114 z         1.00000
          31               117 y           117 z         1.00000
          32               123 y           123 z         1.00000
          33               129 y           129 z         1.00000
          34               141 y           141 z         1.00000
          35               144 y           144 z         1.00000
          36               157 y           157 z         1.00000
          37               160 y           160 z         1.00000
          38               161 y           161 z         1.00000
          39               165 y           165 z         1.00000
          40               171 y           171 z         1.00000
          41               172 y           172 z         1.00000
          42               177 y           177 z         1.00000
          43               181 y           181 z         1.00000
          44               183 y           183 z         1.00000
          45               190 y           190 z         1.00000
          46               193 y           193 z         1.00000
          47               203 y           203 z         1.00000
          48               206 y           206 z         1.00000
          49               210 y           210 z         1.00000
          50               211 y           211 z         1.00000
          51               217 y           217 z         1.00000
          52               222 y           222 z         1.00000
          53               244 y           244 z         1.00000
          54               255 y           255 z         1.00000
          55               257 y           257 z         1.00000
          56               262 y           262 z         1.00000
          57               264 y           264 z         1.00000
          58               269 y           269 z         1.00000
          59               284 y           284 z         1.00000
          60               285 y           285 z         1.00000
          61               287 y           287 z         1.00000
          62               290 y           290 z         1.00000
          63               299 y           299 z         1.00000
          64               315 y           315 z         1.00000
          65               316 y           316 z         1.00000
          66               320 y           320 z         1.00000
          67               330 y           330 z         1.00000
          68               340 y           340 z         1.00000
          69               348 y           348 z         1.00000
          70               354 y           354 z         1.00000
          71               375 y           375 z         1.00000
          72               378 y           378 z         1.00000
          73               380 y           380 z         1.00000
          74               384 y           384 z         1.00000
          75               391 y           391 z         1.00000
          76               401 y           401 z         1.00000
          77               402 y           402 z         1.00000
          78               407 y           407 z         1.00000
          79               409 y           409 z         1.00000
          80               416 y           416 z         1.00000
          81               430 y           430 z         1.00000
          82               431 y           431 z         1.00000
          83               437 y           437 z         1.00000
          84               439 y           439 z         1.00000
          85               441 y           441 z         1.00000
[...]
    545 y          3.920675      3.920367    -0.000308    Cartesian   -0.01
    545 z         15.682702     15.680446    -0.002256    Cartesian   -0.01
    546 x        -11.762026    -11.758246     0.003781    Cartesian   -0.03
    546 y          0.000000      0.000000     0.000000    Cartesian    0.00
    546 z          7.841351      7.837958    -0.003393    Cartesian   -0.04
    547 x         17.643040     17.638538    -0.004502    Cartesian   -0.03
    547 y         -1.960338     -1.959373     0.000965    Cartesian   -0.05
    547 z          5.881013      5.878675    -0.002338    Cartesian   -0.04
    548 x          0.000000     -0.001391    -0.001391    Cartesian    0.00
    548 y          3.920675      3.920866     0.000190    Cartesian    0.00
    548 z         15.682702     15.681123    -0.001579    Cartesian   -0.01
    549 x        -13.722364    -13.722140     0.000224    Cartesian   -0.00
    549 y         -1.960338     -1.960050     0.000287    Cartesian   -0.01
    549 z         -1.960338     -1.960050     0.000287    Cartesian   -0.01
    550 x          7.841351      7.838260    -0.003091    Cartesian   -0.04
    550 y          0.000000      0.000000     0.000000    Cartesian    0.00
    550 z         15.682702     15.679161    -0.003541    Cartesian   -0.02
    551 x          9.801689      9.800061    -0.001627    Cartesian   -0.02
    551 y          5.881013      5.879637    -0.001376    Cartesian   -0.02
    551 z         13.722364     13.720427    -0.001937    Cartesian   -0.01
    552 x          3.920675      3.919961    -0.000714    Cartesian   -0.02
    552 y         11.762026     11.759973    -0.002054    Cartesian   -0.02
    552 z         11.762026     11.759973    -0.002054    Cartesian   -0.02
    553 x        -11.762026    -11.758526     0.003501    Cartesian   -0.03
    553 y          3.920675      3.918937    -0.001738    Cartesian   -0.04
    553 z          7.841351      7.837880    -0.003471    Cartesian   -0.04
    554 x         -9.801689     -9.802797    -0.001108    Cartesian    0.01
    554 y          5.881013      5.881063     0.000050    Cartesian    0.00
    554 z          9.801689      9.801687    -0.000001    Cartesian   -0.00
    555 x          0.000000     -0.001062    -0.001062    Cartesian    0.00
    555 y         11.762026     11.760771    -0.001255    Cartesian   -0.01
    555 z         11.762026     11.760771    -0.001255    Cartesian   -0.01
    556 x          1.960338      1.959757    -0.000581    Cartesian   -0.03
    556 y          9.801689      9.802387     0.000698    Cartesian    0.01
    556 z         13.722364     13.723331     0.000967    Cartesian    0.01
    557 x         11.762026     11.758511    -0.003515    Cartesian   -0.03
    557 y          7.841351      7.838160    -0.003191    Cartesian   -0.04
    557 z         11.762026     11.757761    -0.004266    Cartesian   -0.04
    558 x         -3.920675     -3.920999    -0.000323    Cartesian    0.01
    558 y          0.000000      0.000000     0.000000    Cartesian    0.00
    558 z         15.682702     15.680779    -0.001922    Cartesian   -0.01
    559 x          7.841351      7.838611    -0.002740    Cartesian   -0.03
    559 y          3.920675      3.919210    -0.001465    Cartesian   -0.04
    559 z         15.682702     15.678899    -0.003803    Cartesian   -0.02
    560 x         19.603377     19.597647    -0.005731    Cartesian   -0.03
    560 y          0.000000      0.000000     0.000000    Cartesian    0.00
    560 z          0.000000      0.000000     0.000000    Cartesian    0.00
    561 x         -5.881013     -5.883250    -0.002237    Cartesian    0.04
    561 y          5.881013      5.881802     0.000789    Cartesian    0.01
    561 z         13.722364     13.723917     0.001553    Cartesian    0.01
    562 x          5.881013      5.881469     0.000456    Cartesian    0.01
    562 y          9.801689      9.801665    -0.000023    Cartesian   -0.00
    562 z         13.722364     13.722508     0.000143    Cartesian    0.00
    563 x         15.682702     15.676519    -0.006183    Cartesian   -0.04
    563 y          7.841351      7.837630    -0.003721    Cartesian   -0.05
    563 z          7.841351      7.837630    -0.003721    Cartesian   -0.05
    564 x         17.643040     17.639467    -0.003573    Cartesian   -0.02
    564 y          5.881013      5.879693    -0.001320    Cartesian   -0.02
    564 z          5.881013      5.879693    -0.001320    Cartesian   -0.02
    565 x        -13.722364    -13.722288     0.000076    Cartesian   -0.00
    565 y          5.881013      5.880701    -0.000312    Cartesian   -0.01
    565 z         -1.960338     -1.960608    -0.000270    Cartesian    0.01
    566 x         -3.920675     -3.921421    -0.000746    Cartesian    0.02
    566 y          3.920675      3.920781     0.000106    Cartesian    0.00
    566 z         15.682702     15.680833    -0.001869    Cartesian   -0.01
    567 x         -1.960338     -1.962153    -0.001815    Cartesian    0.09
    567 y          9.801689      9.802951     0.001262    Cartesian    0.01
    567 z         13.722364     13.723849     0.001485    Cartesian    0.01
    568 x          7.841351      7.840717    -0.000634    Cartesian   -0.01
    568 y         11.762026     11.759815    -0.002211    Cartesian   -0.02
    568 z         11.762026     11.759815    -0.002211    Cartesian   -0.02
    569 x         19.603377     19.598365    -0.005013    Cartesian   -0.03
    569 y          0.000000      0.000000     0.000000    Cartesian    0.00
    569 z          3.920675      3.919687    -0.000988    Cartesian   -0.03
    570 x         -7.841351     -7.842460    -0.001109    Cartesian    0.01
    570 y          7.841351      7.840007    -0.001344    Cartesian   -0.02
    570 z         11.762026     11.760587    -0.001440    Cartesian   -0.01
    571 x          3.920675      3.919930    -0.000745    Cartesian   -0.02
    571 y          7.841351      7.840781    -0.000570    Cartesian   -0.01
    571 z         15.682702     15.680854    -0.001848    Cartesian   -0.01
    572 x         15.682702     15.678112    -0.004590    Cartesian   -0.03
    572 y          0.000000      0.000000     0.000000    Cartesian    0.00
    572 z         11.762026     11.758108    -0.003919    Cartesian   -0.03
    573 x          0.000000     -0.000700    -0.000700    Cartesian    0.00
    573 y          7.841351      7.841189    -0.000162    Cartesian   -0.00
    573 z         15.682702     15.681321    -0.001381    Cartesian   -0.01
    574 x          1.960338      1.959887    -0.000451    Cartesian   -0.02
    574 y         -1.960338     -1.961253    -0.000916    Cartesian    0.05
    574 z         17.643040     17.643752     0.000713    Cartesian    0.00
    575 x         13.722364     13.721311    -0.001054    Cartesian   -0.01
    575 y         13.722364     13.720989    -0.001375    Cartesian   -0.01
    575 z         -1.960338     -1.959835     0.000503    Cartesian   -0.03
    576 x         13.722364     13.720436    -0.001928    Cartesian   -0.01
    576 y          9.801689      9.799918    -0.001771    Cartesian   -0.02
    576 z          9.801689      9.799918    -0.001771    Cartesian   -0.02
    577 x         -3.920675     -3.921935    -0.001260    Cartesian    0.03
    577 y         11.762026     11.761477    -0.000549    Cartesian   -0.00
    577 z         11.762026     11.761477    -0.000549    Cartesian   -0.00
    578 x         19.603377     19.598720    -0.004657    Cartesian   -0.02
    578 y          3.920675      3.919741    -0.000934    Cartesian   -0.02
    578 z          3.920675      3.919741    -0.000934    Cartesian   -0.02
    579 x          5.881013      5.880884    -0.000129    Cartesian   -0.00
    579 y         -1.960338     -1.960591    -0.000254    Cartesian    0.01
    579 z         17.643040     17.643538     0.000498    Cartesian    0.00
    580 x         15.682702     15.678498    -0.004204    Cartesian   -0.03
    580 y          3.920675      3.918817    -0.001858    Cartesian   -0.05
    580 z         11.762026     11.758155    -0.003872    Cartesian   -0.03
    581 x        -11.762026    -11.759761     0.002265    Cartesian   -0.02
    581 y          7.841351      7.839403    -0.001948    Cartesian   -0.02
    581 z          7.841351      7.839403    -0.001948    Cartesian   -0.02
    582 x         17.643040     17.640959    -0.002081    Cartesian   -0.01
    582 y         -1.960338     -1.959797     0.000541    Cartesian   -0.03
    582 z          9.801689      9.800464    -0.001225    Cartesian   -0.01
    583 x         11.762026     11.759985    -0.002042    Cartesian   -0.02
    583 y          0.000000      0.000000     0.000000    Cartesian    0.00
    583 z         15.682702     15.679208    -0.003494    Cartesian   -0.02
    584 x        -15.682702    -15.679151     0.003551    Cartesian   -0.02
    584 y          0.000000      0.000000     0.000000    Cartesian    0.00
    584 z          0.000000      0.000000     0.000000    Cartesian    0.00
    585 x        -13.722364    -13.721967     0.000398    Cartesian   -0.00
    585 y          5.881013      5.880483    -0.000530    Cartesian   -0.01
    585 z          5.881013      5.880483    -0.000530    Cartesian   -0.01
    586 x         -1.960338     -1.961107    -0.000769    Cartesian    0.04
    586 y         -1.960338     -1.960805    -0.000468    Cartesian    0.02
    586 z         17.643040     17.643082     0.000042    Cartesian    0.00
    587 x          7.841351      7.840011    -0.001340    Cartesian   -0.02
    587 y          7.841351      7.840456    -0.000895    Cartesian   -0.01
    587 z         15.682702     15.679959    -0.002743    Cartesian   -0.02
    588 x          9.801689      9.801639    -0.000050    Cartesian   -0.00
    588 y          9.801689      9.801727     0.000038    Cartesian    0.00
    588 z         13.722364     13.722158    -0.000206    Cartesian   -0.00
    589 x        -11.762026    -11.760695     0.001332    Cartesian   -0.01
    589 y          0.000000      0.000000     0.000000    Cartesian    0.00
    589 z         11.762026     11.759414    -0.002612    Cartesian   -0.02
    590 x         -9.801689     -9.803057    -0.001369    Cartesian    0.01
    590 y         -1.960338     -1.960216     0.000122    Cartesian   -0.01
    590 z         13.722364     13.722728     0.000364    Cartesian    0.00
    591 x         -9.801689     -9.803538    -0.001849    Cartesian    0.02
    591 y          9.801689      9.802154     0.000466    Cartesian    0.00
    591 z          9.801689      9.802154     0.000466    Cartesian    0.00
    592 x          1.960338      1.960079    -0.000259    Cartesian   -0.01
    592 y          5.881013      5.881455     0.000442    Cartesian    0.01
    592 z         17.643040     17.642978    -0.000061    Cartesian   -0.00
    593 x         11.762026     11.760278    -0.001749    Cartesian   -0.01
    593 y          3.920675      3.919261    -0.001415    Cartesian   -0.04
    593 z         15.682702     15.678841    -0.003861    Cartesian   -0.02
    594 x        -15.682702    -15.678801     0.003901    Cartesian   -0.02
    594 y          0.000000      0.000000     0.000000    Cartesian    0.00
    594 z          3.920675      3.919478    -0.001197    Cartesian   -0.03
    595 x         13.722364     13.721520    -0.000844    Cartesian   -0.01
    595 y          5.881013      5.879964    -0.001049    Cartesian   -0.02
    595 z         13.722364     13.720949    -0.001416    Cartesian   -0.01
    596 x         -3.920675     -3.921451    -0.000775    Cartesian    0.02
    596 y          7.841351      7.840978    -0.000373    Cartesian   -0.00
    596 z         15.682702     15.680844    -0.001858    Cartesian   -0.01
    597 x         19.603377     19.598679    -0.004699    Cartesian   -0.02
    597 y          0.000000      0.000000     0.000000    Cartesian    0.00
    597 z          7.841351      7.838951    -0.002400    Cartesian   -0.03
    598 x         -7.841351     -7.841344     0.000007    Cartesian   -0.00
    598 y          0.000000      0.000000     0.000000    Cartesian    0.00
    598 z         15.682702     15.679988    -0.002714    Cartesian   -0.02
    599 x         -5.881013     -5.882428    -0.001415    Cartesian    0.02
    599 y          9.801689      9.802436     0.000747    Cartesian    0.01
    599 z         13.722364     13.723239     0.000875    Cartesian    0.01
    600 x          5.881013      5.880746    -0.000267    Cartesian   -0.00
    600 y          5.881013      5.880925    -0.000088    Cartesian   -0.00
    600 z         17.643040     17.642525    -0.000515    Cartesian   -0.00
    601 x        -11.762026    -11.760127     0.001899    Cartesian   -0.02
    601 y          3.920675      3.919747    -0.000928    Cartesian   -0.02
    601 z         11.762026     11.759576    -0.002450    Cartesian   -0.02
    602 x         17.643040     17.640645    -0.002394    Cartesian   -0.01
    602 y          5.881013      5.880027    -0.000986    Cartesian   -0.02
    602 z          9.801689      9.799944    -0.001745    Cartesian   -0.02
    603 x         11.762026     11.760280    -0.001747    Cartesian   -0.01
    603 y         11.762026     11.759016    -0.003010    Cartesian   -0.03
    603 z         11.762026     11.759016    -0.003010    Cartesian   -0.03
    604 x        -15.682702    -15.678245     0.004457    Cartesian   -0.03
    604 y          3.920675      3.919526    -0.001150    Cartesian   -0.03
    604 z          3.920675      3.919526    -0.001150    Cartesian   -0.03
    605 x        -13.722364    -13.721359     0.001005    Cartesian   -0.01
    605 y         -1.960338     -1.960177     0.000161    Cartesian   -0.01
    605 z          9.801689      9.800473    -0.001216    Cartesian   -0.01
    606 x         -1.960338     -1.960812    -0.000474    Cartesian    0.02
    606 y          5.881013      5.881424     0.000411    Cartesian    0.01
    606 z         17.643040     17.643246     0.000206    Cartesian    0.00
    607 x          9.801689      9.800606    -0.001083    Cartesian   -0.01
    607 y         -1.960338     -1.960060     0.000278    Cartesian   -0.01
    607 z         17.643040     17.641264    -0.001776    Cartesian   -0.01
    608 x         19.603377     19.597605    -0.005773    Cartesian   -0.03
    608 y          3.920675      3.919342    -0.001333    Cartesian   -0.03
    608 z          7.841351      7.838754    -0.002597    Cartesian   -0.03
    609 x         -7.841351     -7.840743     0.000608    Cartesian   -0.01
    609 y          3.920675      3.919828    -0.000848    Cartesian   -0.02
    609 z         15.682702     15.679745    -0.002957    Cartesian   -0.02
    610 x         21.563715     21.561848    -0.001867    Cartesian   -0.01
    610 y         -1.960338     -1.960229     0.000108    Cartesian   -0.01
    610 z         -1.960338     -1.960229     0.000108    Cartesian   -0.01
    611 x         15.682702     15.678337    -0.004365    Cartesian   -0.03
    611 y          7.841351      7.838829    -0.002522    Cartesian   -0.03
    611 z         11.762026     11.758125    -0.003901    Cartesian   -0.03
    612 x         -9.801689     -9.800984     0.000705    Cartesian   -0.01
    612 y          5.881013      5.880005    -0.001008    Cartesian   -0.02
    612 z         13.722364     13.721048    -0.001316    Cartesian   -0.01
    613 x          1.960338      1.960289    -0.000049    Cartesian   -0.00
    613 y         13.722364     13.721777    -0.000587    Cartesian   -0.00
    613 z         13.722364     13.721777    -0.000587    Cartesian   -0.00
    614 x         -7.841351     -7.841551    -0.000200    Cartesian    0.00
    614 y         11.762026     11.760582    -0.001445    Cartesian   -0.01
    614 z         11.762026     11.760582    -0.001445    Cartesian   -0.01
    615 x         -5.881013     -5.880713     0.000300    Cartesian   -0.01
    615 y         -1.960338     -1.960325     0.000013    Cartesian   -0.00
    615 z         17.643040     17.642039    -0.001001    Cartesian   -0.01
    616 x          3.920675      3.919943    -0.000732    Cartesian   -0.02
    616 y         11.762026     11.759419    -0.002608    Cartesian   -0.02
    616 z         15.682702     15.678870    -0.003832    Cartesian   -0.02
    617 x          3.920675      3.919765    -0.000910    Cartesian   -0.02
    617 y          0.000000      0.000000     0.000000    Cartesian    0.00
    617 z         19.603377     19.598456    -0.004922    Cartesian   -0.03
    618 x          5.881013      5.880326    -0.000687    Cartesian   -0.01
    618 y         13.722364     13.720699    -0.001666    Cartesian   -0.01
    618 z         13.722364     13.720699    -0.001666    Cartesian   -0.01
    619 x          0.000000      0.000351     0.000351    Cartesian    0.00
    619 y         11.762026     11.759681    -0.002346    Cartesian   -0.02
    619 z         15.682702     15.679083    -0.003619    Cartesian   -0.02
    620 x          0.000000      0.000106     0.000106    Cartesian    0.00
    620 y          0.000000      0.000000     0.000000    Cartesian    0.00
    620 z         19.603377     19.597518    -0.005859    Cartesian   -0.03
    621 x         11.762026     11.759606    -0.002421    Cartesian   -0.02
    621 y          7.841351      7.838950    -0.002401    Cartesian   -0.03
    621 z         15.682702     15.677854    -0.004848    Cartesian   -0.03
    622 x        -15.682702    -15.677126     0.005576    Cartesian   -0.04
    622 y          0.000000      0.000000     0.000000    Cartesian    0.00
    622 z          7.841351      7.838711    -0.002640    Cartesian   -0.03
    623 x        -13.722364    -13.720192     0.002172    Cartesian   -0.02
    623 y          5.881013      5.879728    -0.001285    Cartesian   -0.02
    623 z          9.801689      9.799903    -0.001786    Cartesian   -0.02
    624 x         -1.960338     -1.959741     0.000596    Cartesian   -0.03
    624 y         13.722364     13.721099    -0.001265    Cartesian   -0.01
    624 z         13.722364     13.721099    -0.001265    Cartesian   -0.01
    625 x          9.801689      9.800543    -0.001146    Cartesian   -0.01
    625 y          5.881013      5.879877    -0.001136    Cartesian   -0.02
    625 z         17.643040     17.640421    -0.002619    Cartesian   -0.01
--------------------------------------------------------------------------------


  Time to end of optimisation  =       92.9160 seconds


  Peak dynamic memory used =    1737.46 MB 


  Timing analysis for GULP :

--------------------------------------------------------------------------------
  Task / Subroutine                                          Time (Seconds)
--------------------------------------------------------------------------------
  Calculation of reciprocal space energy and derivatives          0.0003
  Calculation of reciprocal space energy using symmetry           0.0004
  Calculation of real space energy and derivatives                0.0017
  Calculation of real space energy using symmetry                 0.0042
  Calculation for region 1 energy and derivatives (2-b)          51.1839
  Calculation for region 2a energy                               13.2659
  Calculation for region 2b energy                                0.0021
  Calculation and manipulation of Hessian matrix                 25.5122
  Calculation of matrix inversion                                 2.0752
  Symmetry generation of equivalent positions                     0.0017
--------------------------------------------------------------------------------
  Total CPU time                                                 92.9161
--------------------------------------------------------------------------------


  Dump file written as Li3OCl.grs


  Job Finished at 13:22.27 21st October    2020                               

