********************************************************************************
*                       GENERAL UTILITY LATTICE PROGRAM                        *
*                                 Julian Gale                                  *
*                       Curtin Institute for Computation                       *
*                    School of Molecular and Life Sciences                     *
*                    Curtin University, Western Australia                      *
********************************************************************************
* Version = 5.2.0 * Last modified =  10th September 2020                       *
********************************************************************************
*  optimise     - perform optimisation run                                     *
*  conp         - constant pressure calculation                                *
*  property     - calculate properties for final geometry                      *
*  defect       - perform defect calculation after bulk run                    *
*  compare      - compare initial and final structures                         *
********************************************************************************

  Job Started  at 13:22.27 21st October    2020                               

  Number of CPUs =     1


  Total number of configurations input =      1

********************************************************************************
*  Input for Configuration =   1                                               *
********************************************************************************

  Formula = ClOLi3                                                      

  Number of irreducible atoms/shells =       5


  Total number atoms/shells =       7

  Dimensionality = 3               :  Bulk   


  Symmetry :

  Crystal family                   :  Cubic       
  Crystal class  (Groth - 1921)    :  Cubic Hexakisoctahedral              

  Space group (centrosymmetric)    :  P M 3 M         

  Patterson group                  :  P m -3 m 

  Cartesian lattice vectors (Angstroms) :

        3.918873    0.000000    0.000000
        0.000000    3.918873    0.000000
        0.000000    0.000000    3.918873

  Cell parameters (Angstroms/Degrees):

  a =       3.9189    alpha =  90.0000
  b =       3.9189    beta  =  90.0000
  c =       3.9189    gamma =  90.0000

  Initial cell volume =          60.184349 Angs**3

  Temperature of configuration =   0.00     K 

  Pressure of configuration =         0.000 GPa 

  Fractional coordinates of asymmetric unit :

--------------------------------------------------------------------------------
   No.  Atomic       x           y          z         Charge      Occupancy
        Label      (Frac)      (Frac)     (Frac)        (e)         (Frac)  
--------------------------------------------------------------------------------
      1 Cl    c    0.000000    0.000000    0.000000     1.48500    1.000000    
      2 O     c    0.500000    0.500000    0.500000     0.18300    1.000000    
      3 Li    c    0.500000    0.500000    0.000000     1.00000    1.000000    
      4 Cl    s    0.000000    0.000000    0.000000    -2.48500    1.000000    
      5 O     s    0.500000    0.500000    0.500000    -2.18300    1.000000    
--------------------------------------------------------------------------------


  Constraints : 

--------------------------------------------------------------------------------
  Constraint no.      Unconstrained     Constrained    Coefficient    Offset
                         Variable         Variable
--------------------------------------------------------------------------------
           1              Strain 1        Strain 2       1.00000      0.0000
           2              Strain 1        Strain 3       1.00000      0.0000
--------------------------------------------------------------------------------


********************************************************************************
*  General input information                                                   *
********************************************************************************

  Species output for all configurations : 

--------------------------------------------------------------------------------
  Species    Type    Atomic    Atomic    Charge       Radii (Angs)     Library
                     Number     Mass       (e)     Cova   Ionic  VDW   Symbol
--------------------------------------------------------------------------------
    Li       Core        3       6.94   1.000000   0.680  0.000  1.800          
    O        Core        8      16.00   0.183000   0.730  0.000  1.360          
    O        Shell       8       0.00  -2.183000   0.730  0.000  1.360          
    Cl       Core       17      35.45   1.485000   0.990  0.000  1.650          
    Cl       Shell      17       0.00  -2.485000   0.990  0.000  1.650          
--------------------------------------------------------------------------------


  Lattice summation method               =    Ewald          (3-D)
                                         =    Parry          (2-D)
                                         =    Saunders et al (1-D)
  Accuracy factor for lattice sums       =   12.000


  Analytic derivatives to be used

  Time limit = Infinity

  Maximum range for interatomic potentials =    100000.000000 Angstroms

  General interatomic potentials :

--------------------------------------------------------------------------------
Atom  Types   Potential      Parameter       Value         Units   Cutoffs(Ang)
  1     2                                                            Min /  Max 
--------------------------------------------------------------------------------
O    c O    s Spring (c-s)  Spring k 2       593.72000    eV*Ang^-2 0.000  0.800
                            Spring k 4       0.0000000    eV*Ang^-4 
--------------------------------------------------------------------------------
Cl   c Cl   s Spring (c-s)  Spring k 2       29.380000    eV*Ang^-2 0.000  0.800
                            Spring k 4       0.0000000    eV*Ang^-4 
--------------------------------------------------------------------------------
Li   c Li   c Buckingham    Buckingham A     360.53000    eV        0.000 12.000
                            Buckingham rho  0.16100000    Ang       
                            Buckingham C     0.0000000    eV*Ang^6  
--------------------------------------------------------------------------------
Li   c O    s Buckingham    Buckingham A     292.30000    eV        0.000 12.000
                            Buckingham rho  0.34720000    Ang       
                            Buckingham C     0.0000000    eV*Ang^6  
--------------------------------------------------------------------------------
Li   c Cl   s Buckingham    Buckingham A     421.04000    eV        0.000 12.000
                            Buckingham rho  0.33400000    Ang       
                            Buckingham C     0.0000000    eV*Ang^6  
--------------------------------------------------------------------------------
O    s O    s Buckingham    Buckingham A     22764.300    eV        0.000 12.000
                            Buckingham rho  0.14900000    Ang       
                            Buckingham C     13.190000    eV*Ang^6  
--------------------------------------------------------------------------------
O    s Cl   s Buckingham    Buckingham A     8286.9100    eV        0.000 12.000
                            Buckingham rho  0.25900000    Ang       
                            Buckingham C     62.200000    eV*Ang^6  
--------------------------------------------------------------------------------
Cl   s Cl   s Buckingham    Buckingham A     1227.2000    eV        0.000 12.000
                            Buckingham rho  0.32100000    Ang       
                            Buckingham C     14.530000    eV*Ang^6  
--------------------------------------------------------------------------------

********************************************************************************
*  Output for configuration   1                                                *
********************************************************************************


  Components of energy : 

--------------------------------------------------------------------------------
  Interatomic potentials     =           7.26836263 eV    
  Monopole - monopole (real) =         -11.53475722 eV    
  Monopole - monopole (recip)=         -33.94580548 eV    
  Monopole - monopole (total)=         -45.48056271 eV    
--------------------------------------------------------------------------------
  Total lattice energy       =         -38.21220008 eV    
--------------------------------------------------------------------------------
  Total lattice energy       =           -3686.8932 kJ/(mole unit cells)
--------------------------------------------------------------------------------


  Number of variables =        1

  Maximum number of calculations  =          1000
  Maximum Hessian update interval =            10
  Maximum step size               =   1.000000000
  Maximum parameter tolerance     =   0.000010000
  Maximum function  tolerance     =   0.000010000
  Maximum gradient  tolerance     =   0.001000000
  Maximum gradient  component     =   0.010000000

  Symmetry constrained optimisation

  Symmetry used for second derivatives

  Cell parameters to be optimised using strains

  Newton-Raphson optimiser to be used

  BFGS hessian update to be used

  Lower half triangular hessian to be used

  Start of bulk optimisation :

  Cycle:      0 Energy:       -38.212200  Gnorm:      0.095699  CPU:    0.006
  ** Hessian calculated **
  Cycle:      1 Energy:       -38.212222  Gnorm:      0.000105  CPU:    0.007


  **** Optimisation achieved ****


  Final energy =     -38.21222207 eV
  Final Gnorm  =       0.00000016

  Components of energy : 

--------------------------------------------------------------------------------
  Interatomic potentials     =           7.24743141 eV    
  Monopole - monopole (real) =         -11.52945423 eV    
  Monopole - monopole (recip)=         -33.93019924 eV    
  Monopole - monopole (total)=         -45.45965348 eV    
--------------------------------------------------------------------------------
  Total lattice energy       =         -38.21222207 eV    
--------------------------------------------------------------------------------
  Total lattice energy       =           -3686.8953 kJ/(mole unit cells)
--------------------------------------------------------------------------------

  Final asymmetric unit coordinates :

--------------------------------------------------------------------------------
   No.  Atomic        x           y           z         Radius
        Label       (Frac)      (Frac)      (Frac)       (Angs) 
--------------------------------------------------------------------------------
     1  Cl    c     0.000000    0.000000    0.000000    0.000000
     2  O     c     0.500000    0.500000    0.500000    0.000000
     3  Li    c     0.500000    0.500000    0.000000    0.000000
     4  Cl    s     0.000000    0.000000    0.000000    0.000000
     5  O     s     0.500000    0.500000    0.500000    0.000000
--------------------------------------------------------------------------------

  Final Cartesian lattice vectors (Angstroms) :

        3.920675    0.000000    0.000000
        0.000000    3.920675    0.000000
        0.000000    0.000000    3.920675


  Final cell parameters and derivatives :

--------------------------------------------------------------------------------
       a            3.920675 Angstrom     dE/de1(xx)    -0.000000 eV/strain
       b            3.920675 Angstrom     dE/de2(yy)     0.000000 eV/strain
       c            3.920675 Angstrom     dE/de3(zz)     0.000000 eV/strain
       alpha       90.000000 Degrees      dE/de4(yz)     0.000000 eV/strain
       beta        90.000000 Degrees      dE/de5(xz)     0.000000 eV/strain
       gamma       90.000000 Degrees      dE/de6(xy)     0.000000 eV/strain
--------------------------------------------------------------------------------

  Primitive cell volume =            60.267433 Angs**3

  Density of cell =      1.991276 g/cm**3

  Non-primitive cell volume =            60.267433 Angs**3


  Final internal derivatives :

--------------------------------------------------------------------------------
   No.  Atomic          a             b             c           Radius
        Label          (eV)          (eV)          (eV)        (eV/Angs)
--------------------------------------------------------------------------------
      1 Cl    c       0.000000      0.000000      0.000000      0.000000
      2 O     c       0.000000      0.000000      0.000000      0.000000
      3 Li    c       0.000000      0.000000      0.000000      0.000000
      4 Cl    s       0.000000      0.000000      0.000000      0.000000
      5 O     s       0.000000      0.000000      0.000000      0.000000
--------------------------------------------------------------------------------
  Maximum abs         0.000000      0.000000      0.000000      0.000000
--------------------------------------------------------------------------------

  Comparison of initial and final structures : 

--------------------------------------------------------------------------------
  Parameter   Initial value   Final value   Difference    Units      Percent
--------------------------------------------------------------------------------
    Volume        60.184349     60.267433     0.083084    Angs**3      0.14
    a              3.918873      3.920675     0.001802    Angstroms    0.05
    b              3.918873      3.920675     0.001802    Angstroms    0.05
    c              3.918873      3.920675     0.001802    Angstroms    0.05
    alpha         90.000000     90.000000     0.000000    Degrees      0.00
    beta          90.000000     90.000000     0.000000    Degrees      0.00
    gamma         90.000000     90.000000     0.000000    Degrees      0.00
      1 x          0.000000      0.000000     0.000000    Fractional   0.00
      1 y          0.000000      0.000000     0.000000    Fractional   0.00
      1 z          0.000000      0.000000     0.000000    Fractional   0.00
      2 x          0.500000      0.500000     0.000000    Fractional   0.00
      2 y          0.500000      0.500000     0.000000    Fractional   0.00
      2 z          0.500000      0.500000     0.000000    Fractional   0.00
      3 x          0.500000      0.500000     0.000000    Fractional   0.00
      3 y          0.500000      0.500000     0.000000    Fractional   0.00
      3 z          0.000000      0.000000     0.000000    Fractional   0.00
      4 x          0.000000      0.000000     0.000000    Fractional   0.00
      4 y          0.000000      0.000000     0.000000    Fractional   0.00
      4 z          0.000000      0.000000     0.000000    Fractional   0.00
      5 x          0.500000      0.500000     0.000000    Fractional   0.00
      5 y          0.500000      0.500000     0.000000    Fractional   0.00
      5 z          0.500000      0.500000     0.000000    Fractional   0.00
--------------------------------------------------------------------------------


  Born effective charge tensors : 

-------------------------------------------------------------------------------
  Atom             x           y             z
-------------------------------------------------------------------------------
    1 Cl    x      -0.9489     -0.0000     -0.0000
            y      -0.0000     -0.9489     -0.0000
            z      -0.0000     -0.0000     -0.9489
-------------------------------------------------------------------------------
    2 O     x      -2.4688      0.0000      0.0000
            y       0.0000     -2.4688      0.0000
            z       0.0000      0.0000     -2.4688
-------------------------------------------------------------------------------
    3 Li    x       1.3129      0.0000     -0.0000
            y       0.0000      1.3129      0.0000
            z      -0.0000      0.0000      0.7919
-------------------------------------------------------------------------------




  Elastic Constant Matrix: (Units=GPa)

-------------------------------------------------------------------------------
  Indices      1         2         3         4         5         6    
-------------------------------------------------------------------------------
       1     94.3368   44.9178   44.9178    0.0000   -0.0000    0.0000
       2     44.9178   94.3368   44.9178   -0.0000    0.0000   -0.0000
       3     44.9178   44.9178   94.3368    0.0000   -0.0000    0.0000
       4      0.0000   -0.0000    0.0000   44.9178   -0.0000    0.0000
       5     -0.0000    0.0000   -0.0000   -0.0000   44.9178    0.0000
       6      0.0000   -0.0000    0.0000    0.0000    0.0000   44.9178
-------------------------------------------------------------------------------


  Elastic Compliance Matrix: (Units=1/GPa)

-------------------------------------------------------------------------------
  Indices      1         2         3         4         5         6    
-------------------------------------------------------------------------------
       1    0.015300 -0.004935 -0.004935 -0.000000  0.000000 -0.000000
       2   -0.004935  0.015300 -0.004935  0.000000 -0.000000  0.000000
       3   -0.004935 -0.004935  0.015300 -0.000000  0.000000 -0.000000
       4   -0.000000  0.000000 -0.000000  0.022263  0.000000 -0.000000
       5    0.000000 -0.000000  0.000000  0.000000  0.022263 -0.000000
       6   -0.000000  0.000000 -0.000000 -0.000000 -0.000000  0.022263
-------------------------------------------------------------------------------

  Mechanical properties :

-------------------------------------------------------------------------------
  Convention :                    Reuss         Voigt         Hill
-------------------------------------------------------------------------------
  Bulk  Modulus (GPa)     =      61.39080      61.39080      61.39080
  Shear Modulus (GPa)     =      33.84570      36.83448      35.34009
-------------------------------------------------------------------------------
  Velocity S-wave (km/s)  =       4.12274       4.30092       4.21277
  Velocity P-wave (km/s)  =       7.31386       7.44942       7.38195
-------------------------------------------------------------------------------
  Compressibility (1/GPa) =    0.01628909
-------------------------------------------------------------------------------
  Stress axis :                     x             y             z
-------------------------------------------------------------------------------
  Youngs Moduli (GPa)     =      65.35947      65.35947      65.35947
-------------------------------------------------------------------------------
  Poissons Ratio (x)      =                     0.32256       0.32256
  Poissons Ratio (y)      =       0.32256                     0.32256
  Poissons Ratio (z)      =       0.32256       0.32256
-------------------------------------------------------------------------------


  Piezoelectric Strain Matrix: (Units=C/m**2)

-------------------------------------------------------------------------------
  Indices      1         2         3         4         5         6    
-------------------------------------------------------------------------------
       x    -0.00000   0.00000   0.00000  -0.00000  -0.00000   0.00000
       y    -0.00000   0.00000   0.00000  -0.00000  -0.00000  -0.00000
       z     0.00000   0.00000   0.00000   0.00000  -0.00000  -0.00000
-------------------------------------------------------------------------------


  Piezoelectric Stress Matrix: (Units=10**-11 C/N)

-------------------------------------------------------------------------------
  Indices      1         2         3         4         5         6    
-------------------------------------------------------------------------------
       x    -0.00000   0.00000   0.00000  -0.00000  -0.00000   0.00000
       y    -0.00000   0.00000   0.00000  -0.00000  -0.00000  -0.00000
       z    -0.00000  -0.00000   0.00000   0.00000  -0.00000  -0.00000
-------------------------------------------------------------------------------


  Static dielectric constant tensor : 

-------------------------------------------------------------------------------
              x         y         z
-------------------------------------------------------------------------------
       x    12.11703   0.00000  -0.00000
       y     0.00000  12.11703  -0.00000
       z    -0.00000  -0.00000  12.11703
--------------------------------------------------------------------------------

  High frequency dielectric constant tensor : 

-------------------------------------------------------------------------------
              x         y         z
-------------------------------------------------------------------------------
       x     1.74104   0.00000   0.00000
       y     0.00000   1.74104   0.00000
       z     0.00000   0.00000   1.74104
-------------------------------------------------------------------------------

  Static refractive indices : 

-------------------------------------------------------------------------------
    1 =    3.48095      2 =    3.48095      3 =    3.48095
-------------------------------------------------------------------------------

  High frequency refractive indices : 

-------------------------------------------------------------------------------
    1 =    1.31948      2 =    1.31948      3 =    1.31948
-------------------------------------------------------------------------------


  Time to end of optimisation =       0.0120 seconds

********************************************************************************
*  Defect calculation for configuration   1 :                                  *
********************************************************************************

  Total number of defects =      3

  Total charge on defect  =   1.00

  Defect centre is at   2.7432   0.0000   0.0000  Angs

  Region 1 radius =  20.0000      Number of ions =   3862

  Number of symmetry inequivalent region 1 ions  =    621

  Region 2 radius =  24.0000      Number of ions =   2876

  Number of symmetry inequivalent region 2a ions =    420

  Region 2a mode = 4 : screened electrostatics due to region 1 
                       neglect correction to region 1 forces from 2a
                       region 2a displacements based on defects only

  Region 2a ions will only interact with defects in region 1

  Vacancies:

--------------------------------------------------------------------------------
    Specification type     Symbol/Number         x          y          z
--------------------------------------------------------------------------------
    Cartesian                                0.000000   0.000000   0.000000
    Cartesian                                3.918873   0.000000   0.000000
--------------------------------------------------------------------------------

  Interstitials:

--------------------------------------------------------------------------------
    Specification type     Symbol/Number         x          y          z
--------------------------------------------------------------------------------
    Atom/Cartesian          Cl               2.743211   0.000000   0.000000
--------------------------------------------------------------------------------


  Symmetry reduced region 1 (Relative to defect centre) :

--------------------------------------------------------------------------------
   No.   Atomic       x            y             z       Radius  Multiplicity   
         Label      (Angs)       (Angs)        (Angs)    (Angs)     
--------------------------------------------------------------------------------
     1  Cl    c      0.0000       0.0000       0.0000    0.0000     1    Defect
     2  Li    c     -0.7829 *    -1.9603 *     0.0000    0.0000     4          
     3  O     c     -0.7829 *    -1.9603 *    -1.9603    0.0000     4          
     4  Li    c      1.1775 *    -1.9603 *    -1.9603    0.0000     4          
     5  Li    c      3.1378 *    -1.9603 *     0.0000    0.0000     4          
     6  Li    c     -2.7432 *    -1.9603 *    -1.9603    0.0000     4          
     7  Cl    c      1.1775 *     0.0000       3.9207 *  0.0000     4          
     8  O     c      3.1378 *    -1.9603 *    -1.9603    0.0000     4          
     9  Li    c     -0.7829 *    -1.9603 *     3.9207 *  0.0000     8          
    10  Cl    c     -2.7432 *     0.0000       3.9207 *  0.0000     4          
    11  Li    c     -4.7035 *    -1.9603 *     0.0000    0.0000     4          
    12  Cl    c      5.0981 *     0.0000       0.0000    0.0000     1          
    13  Li    c      3.1378 *    -1.9603 *     3.9207 *  0.0000     8          
    14  O     c     -4.7035 *    -1.9603 *    -1.9603    0.0000     4          
    15  Cl    c      1.1775 *     3.9207 *     3.9207    0.0000     4          
    16  Li    c      5.0981 *    -1.9603 *    -1.9603    0.0000     4          
    17  Li    c     -0.7829 *     5.8810 *     0.0000    0.0000     4          
    18  Cl    c     -2.7432 *     3.9207 *     3.9207    0.0000     4          
    19  O     c     -0.7829 *    -1.9603 *     5.8810 *  0.0000     8          
    20  Li    c      1.1775 *    -1.9603 *     5.8810 *  0.0000     8          
    21  Li    c     -4.7035 *    -1.9603 *     3.9207 *  0.0000     8          
    22  Cl    c      5.0981 *     0.0000       3.9207 *  0.0000     4          
    23  Cl    c     -6.6639 *     0.0000       0.0000    0.0000     1          
    24  Li    c      3.1378 *     5.8810 *     0.0000    0.0000     4          
    25  Li    c     -2.7432 *    -1.9603 *     5.8810 *  0.0000     8          
    26  O     c      3.1378 *     5.8810 *    -1.9603 *  0.0000     8          
    27  Li    c     -0.7829 *     5.8810 *     3.9207 *  0.0000     8          
    28  Li    c     -6.6639 *    -1.9603 *    -1.9603    0.0000     4          
    29  Li    c      7.0585 *    -1.9603 *     0.0000    0.0000     4          
    30  Li    c     -4.7035 *     5.8810 *     0.0000    0.0000     4          
    31  Cl    c      5.0981 *     3.9207 *     3.9207    0.0000     4          
    32  O     c      7.0585 *    -1.9603 *    -1.9603    0.0000     4          
    33  Cl    c     -6.6639 *     0.0000       3.9207 *  0.0000     4          
    34  Li    c      3.1378 *     5.8810 *     3.9207 *  0.0000     8          
    35  O     c     -4.7035 *    -1.9603 *     5.8810 *  0.0000     8          
    36  Cl    c      1.1775 *     0.0000       7.8414 *  0.0000     4          
    37  Li    c      5.0981 *    -1.9603 *     5.8810 *  0.0000     8          
    38  Li    c     -0.7829 *    -1.9603 *     7.8414 *  0.0000     8          
    39  Cl    c     -2.7432 *     0.0000       7.8414 *  0.0000     4          
    40  Li    c      7.0585 *    -1.9603 *     3.9207 *  0.0000     8          
    41  O     c     -0.7829 *     5.8810 *     5.8810    0.0000     4          
    42  Li    c      1.1775 *     5.8810 *     5.8810    0.0000     4          
    43  Li    c     -4.7035 *     3.9207 *     5.8810 *  0.0000     8          
    44  Cl    c     -6.6639 *     3.9207 *     3.9207    0.0000     4          
    45  Li    c      3.1378 *    -1.9603 *     7.8414 *  0.0000     8          
    46  Li    c     -2.7432 *     5.8810 *     5.8810    0.0000     4          
    47  Li    c     -8.6242 *    -1.9603 *     0.0000    0.0000     4          
    48  Cl    c      1.1775 *     3.9207 *     7.8414 *  0.0000     8          
    49  O     c      3.1378 *     5.8810 *     5.8810    0.0000     4          
    50  Cl    c      9.0188 *     0.0000       0.0000    0.0000     1          
    51  O     c     -8.6242 *    -1.9603 *    -1.9603    0.0000     4          
    52  Li    c     -6.6639 *    -1.9603 *     5.8810 *  0.0000     8          
    53  Cl    c     -2.7432 *     3.9207 *     7.8414 *  0.0000     8          
    54  Li    c      7.0585 *     5.8810 *     0.0000    0.0000     4          
    55  Li    c     -4.7035 *    -1.9603 *     7.8414 *  0.0000     8          
    56  Cl    c      5.0981 *     0.0000       7.8414 *  0.0000     4          
    57  O     c      7.0585 *    -1.9603 *     5.8810 *  0.0000     8          
    58  Li    c      9.0188 *    -1.9603 *    -1.9603    0.0000     4          
    59  O     c     -4.7035 *     5.8810 *     5.8810    0.0000     4          
    60  Li    c     -8.6242 *    -1.9603 *     3.9207 *  0.0000     8          
    61  Li    c      5.0981 *     5.8810 *     5.8810    0.0000     4          
    62  Li    c     -0.7829 *     5.8810 *     7.8414 *  0.0000     8          
    63  Li    c     -0.7829 *     9.8017 *     0.0000    0.0000     4          
    64  Cl    c      9.0188 *     0.0000       3.9207 *  0.0000     4          
    65  Li    c      7.0585 *     5.8810 *     3.9207 *  0.0000     8          
    66  O     c     -0.7829 *    -1.9603 *     9.8017 *  0.0000     8          
    67  Li    c      1.1775 *    -1.9603 *     9.8017 *  0.0000     8          
    68  Cl    c      5.0981 *     3.9207 *     7.8414 *  0.0000     8          
    69  Cl    c     -6.6639 *     0.0000       7.8414 *  0.0000     4          
    70  Li    c      3.1378 *     5.8810 *     7.8414 *  0.0000     8          
    71  Li    c      3.1378 *     9.8017 *     0.0000    0.0000     4          
    72  Li    c     -2.7432 *    -1.9603 *     9.8017 *  0.0000     8          
    73  Li    c     -8.6242 *     5.8810 *     0.0000    0.0000     4          
    74  O     c      3.1378 *    -1.9603 *     9.8017 *  0.0000     8          
    75  Cl    c    -10.5846 *     0.0000       0.0000    0.0000     1          
    76  Li    c     -0.7829 *     9.8017 *     3.9207 *  0.0000     8          
    77  Cl    c      9.0188 *     3.9207 *     3.9207    0.0000     4          
    78  O     c     -8.6242 *    -1.9603 *     5.8810 *  0.0000     8          
    79  Li    c     -6.6639 *     5.8810 *     5.8810    0.0000     4          
    80  Li    c      7.0585 *    -1.9603 *     7.8414 *  0.0000     8          
    81  Li    c     -4.7035 *     5.8810 *     7.8414 *  0.0000     8          
    82  Li    c     -4.7035 *     9.8017 *     0.0000    0.0000     4          
    83  O     c      7.0585 *     5.8810 *     5.8810    0.0000     4          
    84  Li    c    -10.5846 *    -1.9603 *    -1.9603    0.0000     4          
    85  Li    c      9.0188 *    -1.9603 *     5.8810 *  0.0000     8          
    86  Cl    c     -6.6639 *     3.9207 *     7.8414 *  0.0000     8          
    87  Li    c      3.1378 *     9.8017 *     3.9207 *  0.0000     8          
    88  O     c     -4.7035 *    -1.9603 *     9.8017 *  0.0000     8          
    89  Li    c     -8.6242 *     5.8810 *     3.9207 *  0.0000     8          
    90  Cl    c      1.1775 *     7.8414 *     7.8414    0.0000     4          
    91  Li    c     10.9792 *    -1.9603 *     0.0000    0.0000     4          
    92  Li    c      5.0981 *    -1.9603 *     9.8017 *  0.0000     8          
    93  Cl    c    -10.5846 *     0.0000       3.9207 *  0.0000     4          
    94  O     c     10.9792 *    -1.9603 *    -1.9603    0.0000     4          
    95  Cl    c     -2.7432 *     7.8414 *     7.8414    0.0000     4          
    96  O     c     -0.7829 *     9.8017 *     5.8810 *  0.0000     8          
    97  Li    c      1.1775 *     9.8017 *     5.8810 *  0.0000     8          
    98  Li    c     -4.7035 *     9.8017 *     3.9207 *  0.0000     8          
    99  Li    c     -2.7432 *     5.8810 *     9.8017 *  0.0000     8          
   100  Li    c     -8.6242 *     7.8414 *    -1.9603 *  0.0000     8          
   101  Cl    c      1.1775 *     0.0000      11.7620 *  0.0000     4          
   102  Li    c     10.9792 *    -1.9603 *     3.9207 *  0.0000     8          
   103  O     c      3.1378 *     5.8810 *     9.8017 *  0.0000     8          
   104  Cl    c    -10.5846 *     3.9207 *     3.9207    0.0000     4          
   105  Li    c     -0.7829 *    -1.9603 *    11.7620 *  0.0000     8          
   106  Cl    c      9.0188 *     0.0000       7.8414 *  0.0000     4          
   107  O     c     -8.6242 *     5.8810 *     5.8810    0.0000     4          
   108  Li    c     -6.6639 *    -1.9603 *     9.8017 *  0.0000     8          
   109  Cl    c     -2.7432 *     0.0000      11.7620 *  0.0000     4          
   110  Li    c      7.0585 *     5.8810 *     7.8414 *  0.0000     8          
   111  Li    c      7.0585 *     9.8017 *     0.0000    0.0000     4          
   112  Cl    c      5.0981 *     7.8414 *     7.8414    0.0000     4          
   113  O     c      7.0585 *     9.8017 *    -1.9603 *  0.0000     8          
   114  Li    c    -10.5846 *     5.8810 *    -1.9603 *  0.0000     8          
   115  Li    c      9.0188 *     5.8810 *     5.8810    0.0000     4          
   116  Li    c      3.1378 *    -1.9603 *    11.7620 *  0.0000     8          
   117  O     c     -4.7035 *     5.8810 *     9.8017 *  0.0000     8          
   118  Cl    c      1.1775 *     3.9207 *    11.7620 *  0.0000     8          
   119  Li    c     10.9792 *     5.8810 *     0.0000    0.0000     4          
   120  Li    c      5.0981 *     5.8810 *     9.8017 *  0.0000     8          
   121  Li    c     -0.7829 *     9.8017 *     7.8414 *  0.0000     8          
   122  Cl    c      9.0188 *     3.9207 *     7.8414 *  0.0000     8          
   123  O     c     10.9792 *     5.8810 *    -1.9603 *  0.0000     8          
   124  Li    c    -12.5449 *    -1.9603 *     0.0000    0.0000     4          
   125  Cl    c     -2.7432 *    11.7620 *     3.9207 *  0.0000     8          
   126  Li    c      7.0585 *     9.8017 *     3.9207 *  0.0000     8          
   127  Li    c     -4.7035 *    -1.9603 *    11.7620 *  0.0000     8          
   128  Cl    c      5.0981 *     0.0000      11.7620 *  0.0000     4          
   129  O     c    -12.5449 *    -1.9603 *    -1.9603    0.0000     4          
   130  Cl    c     -6.6639 *     7.8414 *     7.8414    0.0000     4          
   131  Li    c      3.1378 *     9.8017 *     7.8414 *  0.0000     8          
   132  Cl    c     12.9395 *     0.0000       0.0000    0.0000     1          
   133  Li    c     -8.6242 *     5.8810 *     7.8414 *  0.0000     8          
   134  Li    c     -8.6242 *     9.8017 *     0.0000    0.0000     4          
   135  Li    c     10.9792 *     5.8810 *     3.9207 *  0.0000     8          
   136  Cl    c    -10.5846 *     0.0000       7.8414 *  0.0000     4          
   137  Li    c     -0.7829 *     5.8810 *    11.7620 *  0.0000     8          
   138  O     c     -8.6242 *     9.8017 *    -1.9603 *  0.0000     8          
   139  Li    c     -6.6639 *     5.8810 *     9.8017 *  0.0000     8          
   140  Li    c     12.9395 *    -1.9603 *    -1.9603    0.0000     4          
   141  Li    c    -12.5449 *    -1.9603 *     3.9207 *  0.0000     8          
   142  Li    c     -4.7035 *     9.8017 *     7.8414 *  0.0000     8          
   143  Cl    c      5.0981 *    11.7620 *     3.9207 *  0.0000     8          
   144  O     c      7.0585 *     5.8810 *     9.8017 *  0.0000     8          
   145  Li    c    -10.5846 *     5.8810 *     5.8810    0.0000     4          
   146  Li    c      9.0188 *    -1.9603 *     9.8017 *  0.0000     8          
   147  Cl    c     -6.6639 *     0.0000      11.7620 *  0.0000     4          
   148  Li    c      3.1378 *     5.8810 *    11.7620 *  0.0000     8          
   149  Cl    c     12.9395 *     0.0000       3.9207 *  0.0000     4          
   150  Li    c     -8.6242 *     9.8017 *     3.9207 *  0.0000     8          
   151  Li    c     10.9792 *    -1.9603 *     7.8414 *  0.0000     8          
   152  Cl    c    -10.5846 *     3.9207 *     7.8414 *  0.0000     8          
   153  Li    c     -0.7829 *    13.7224 *     0.0000    0.0000     4          
   154  O     c     10.9792 *     5.8810 *     5.8810    0.0000     4          
   155  Li    c    -12.5449 *     5.8810 *     0.0000    0.0000     4          
   156  Li    c      7.0585 *    -1.9603 *    11.7620 *  0.0000     8          
   157  O     c     -0.7829 *    -1.9603 *    13.7224 *  0.0000     8          
   158  O     c     -0.7829 *     9.8017 *     9.8017    0.0000     4          
   159  Li    c      1.1775 *    -1.9603 *    13.7224 *  0.0000     8          
   160  Li    c      1.1775 *     9.8017 *     9.8017    0.0000     4          
   161  Li    c     -4.7035 *     5.8810 *    11.7620 *  0.0000     8          
   162  O     c    -12.5449 *    -1.9603 *     5.8810 *  0.0000     8          
   163  Cl    c     -6.6639 *     3.9207 *    11.7620 *  0.0000     8          
   164  Li    c      3.1378 *    13.7224 *     0.0000    0.0000     4          
   165  Cl    c     12.9395 *     3.9207 *     3.9207    0.0000     4          
   166  Li    c     -2.7432 *    13.7224 *    -1.9603 *  0.0000     8          
   167  Li    c     -2.7432 *     9.8017 *     9.8017    0.0000     4          
   168  Cl    c      1.1775 *     7.8414 *    11.7620 *  0.0000     8          
   169  O     c      3.1378 *    -1.9603 *    13.7224 *  0.0000     8          
   170  O     c      3.1378 *     9.8017 *     9.8017    0.0000     4          
   171  Li    c     -0.7829 *    13.7224 *     3.9207 *  0.0000     8          
   172  Cl    c      9.0188 *     7.8414 *     7.8414    0.0000     4          
   173  O     c     -8.6242 *     5.8810 *     9.8017 *  0.0000     8          
   174  Li    c     12.9395 *    -1.9603 *     5.8810 *  0.0000     8          
   175  Li    c    -12.5449 *     5.8810 *     3.9207 *  0.0000     8          
   176  Cl    c     -2.7432 *     7.8414 *    11.7620 *  0.0000     8          
   177  Li    c      7.0585 *     9.8017 *     7.8414 *  0.0000     8          
   178  Cl    c    -14.5052 *     0.0000       0.0000    0.0000     1          
   179  Li    c     -4.7035 *    13.7224 *     0.0000    0.0000     4          
   180  Li    c    -10.5846 *     9.8017 *    -1.9603 *  0.0000     8          
   181  Li    c      9.0188 *     5.8810 *     9.8017 *  0.0000     8          
   182  Li    c      3.1378 *    13.7224 *     3.9207 *  0.0000     8          
   183  O     c     -4.7035 *    -1.9603 *    13.7224 *  0.0000     8          
   184  O     c     -4.7035 *     9.8017 *     9.8017    0.0000     4          
   185  Li    c     -8.6242 *    -1.9603 *    11.7620 *  0.0000     8          
   186  Li    c     10.9792 *     5.8810 *     7.8414 *  0.0000     8          
   187  Li    c     10.9792 *     9.8017 *     0.0000    0.0000     4          
   188  Li    c    -14.5052 *    -1.9603 *    -1.9603    0.0000     4          
   189  Li    c      5.0981 *    13.7224 *    -1.9603 *  0.0000     8          
   190  Li    c      5.0981 *     9.8017 *     9.8017    0.0000     4          
   191  Cl    c      9.0188 *     0.0000      11.7620 *  0.0000     4          
   192  O     c     10.9792 *     9.8017 *    -1.9603 *  0.0000     8          
   193  Li    c    -12.5449 *    -1.9603 *     7.8414 *  0.0000     8          
   194  Li    c      7.0585 *     5.8810 *    11.7620 *  0.0000     8          
   195  O     c     -0.7829 *     5.8810 *    13.7224 *  0.0000     8          
   196  Li    c      1.1775 *     5.8810 *    13.7224 *  0.0000     8          
   197  Cl    c    -14.5052 *     0.0000       3.9207 *  0.0000     4          
   198  Li    c     -4.7035 *    13.7224 *     3.9207 *  0.0000     8          
   199  Cl    c      5.0981 *    11.7620 *     7.8414 *  0.0000     8          
   200  Li    c     14.8998 *    -1.9603 *     0.0000    0.0000     4          
   201  O     c    -12.5449 *     5.8810 *     5.8810    0.0000     4          
   202  Cl    c     12.9395 *     0.0000       7.8414 *  0.0000     4          
   203  O     c     14.8998 *    -1.9603 *    -1.9603    0.0000     4          
   204  Li    c     -2.7432 *    13.7224 *     5.8810 *  0.0000     8          
   205  Li    c     -8.6242 *     9.8017 *     7.8414 *  0.0000     8          
   206  Li    c     10.9792 *     9.8017 *     3.9207 *  0.0000     8          
   207  O     c      3.1378 *     5.8810 *    13.7224 *  0.0000     8          
   208  Cl    c    -10.5846 *     7.8414 *     7.8414    0.0000     4          
   209  Li    c     -0.7829 *     9.8017 *    11.7620 *  0.0000     8          
   210  Cl    c      9.0188 *    11.7620 *     3.9207 *  0.0000     8          
   211  Li    c     -6.6639 *    -1.9603 *    13.7224 *  0.0000     8          
   212  Li    c     -6.6639 *     9.8017 *     9.8017    0.0000     4          
   213  Li    c     12.9395 *     5.8810 *     5.8810    0.0000     4          
   214  Li    c      7.0585 *    13.7224 *     0.0000    0.0000     4          
   215  Cl    c    -14.5052 *     3.9207 *     3.9207    0.0000     4          
   216  Li    c     14.8998 *    -1.9603 *     3.9207 *  0.0000     8          
   217  O     c      7.0585 *    13.7224 *    -1.9603 *  0.0000     8          
   218  O     c      7.0585 *     9.8017 *     9.8017    0.0000     4          
   219  Li    c    -10.5846 *     5.8810 *     9.8017 *  0.0000     8          
   220  Cl    c     -6.6639 *     7.8414 *    11.7620 *  0.0000     8          
   221  Li    c      3.1378 *     9.8017 *    11.7620 *  0.0000     8          
   222  Cl    c     12.9395 *     3.9207 *     7.8414 *  0.0000     8          
   223  O     c     -4.7035 *     5.8810 *    13.7224 *  0.0000     8          
   224  Li    c     -8.6242 *     5.8810 *    11.7620 *  0.0000     8          
   225  Cl    c      1.1775 *     0.0000      15.6827 *  0.0000     4          
   226  Li    c    -14.5052 *    -1.9603 *     5.8810 *  0.0000     8          
   227  Li    c      5.0981 *     5.8810 *    13.7224 *  0.0000     8          
   228  Cl    c    -10.5846 *     0.0000      11.7620 *  0.0000     4          
   229  Li    c     -0.7829 *    -1.9603 *    15.6827 *  0.0000     8          
   230  Li    c     -0.7829 *    13.7224 *     7.8414 *  0.0000     8          
   231  O     c     10.9792 *     5.8810 *     9.8017 *  0.0000     8          
   232  Li    c    -12.5449 *     5.8810 *     7.8414 *  0.0000     8          
   233  Li    c    -12.5449 *     9.8017 *     0.0000    0.0000     4          
   234  Cl    c     -2.7432 *     0.0000      15.6827 *  0.0000     4          
   235  Li    c      7.0585 *    13.7224 *     3.9207 *  0.0000     8          
   236  Li    c     -4.7035 *     9.8017 *    11.7620 *  0.0000     8          
   237  Li    c     14.8998 *     5.8810 *     0.0000    0.0000     4          
   238  O     c    -12.5449 *    -1.9603 *     9.8017 *  0.0000     8          
   239  Li    c      3.1378 *    -1.9603 *    15.6827 *  0.0000     8          
   240  Li    c      3.1378 *    13.7224 *     7.8414 *  0.0000     8          
   241  O     c     14.8998 *    -1.9603 *     5.8810 *  0.0000     8          
   242  Li    c     -8.6242 *    13.7224 *     0.0000    0.0000     4          
   243  Cl    c      1.1775 *     3.9207 *    15.6827 *  0.0000     8          
   244  Li    c     10.9792 *    -1.9603 *    11.7620 *  0.0000     8          
   245  Cl    c    -10.5846 *     3.9207 *    11.7620 *  0.0000     8          
   246  O     c     -8.6242 *    -1.9603 *    13.7224 *  0.0000     8          
   247  O     c     -8.6242 *     9.8017 *     9.8017    0.0000     4          
   248  Li    c     -6.6639 *     5.8810 *    13.7224 *  0.0000     8          
   249  Li    c     12.9395 *    -1.9603 *     9.8017 *  0.0000     8          
   250  Li    c    -12.5449 *     9.8017 *     3.9207 *  0.0000     8          
   251  Cl    c     -2.7432 *     3.9207 *    15.6827 *  0.0000     8          
   252  Cl    c    -14.5052 *     0.0000       7.8414 *  0.0000     4          
   253  Li    c     -4.7035 *    -1.9603 *    15.6827 *  0.0000     8          
   254  Li    c     -4.7035 *    13.7224 *     7.8414 *  0.0000     8          
   255  Cl    c      5.0981 *     0.0000      15.6827 *  0.0000     4          
   256  Li    c     14.8998 *     5.8810 *     3.9207 *  0.0000     8          
   257  O     c      7.0585 *     5.8810 *    13.7224 *  0.0000     8          
   258  Li    c      9.0188 *    -1.9603 *    13.7224 *  0.0000     8          
   259  Li    c      9.0188 *     9.8017 *     9.8017    0.0000     4          
   260  Li    c    -16.4656 *    -1.9603 *     0.0000    0.0000     4          
   261  Li    c     -8.6242 *     3.9207 *    13.7224 *  0.0000     8          
   262  Cl    c      1.1775 *    11.7620 *    11.7620    0.0000     4          
   263  Li    c     10.9792 *     9.8017 *     7.8414 *  0.0000     8          
   264  O     c    -16.4656 *    -1.9603 *    -1.9603    0.0000     4          
   265  Li    c    -14.5052 *     5.8810 *     5.8810    0.0000     4          
   266  Li    c     -0.7829 *     5.8810 *    15.6827 *  0.0000     8          
   267  Cl    c      9.0188 *     7.8414 *    11.7620 *  0.0000     8          
   268  Cl    c     -2.7432 *    11.7620 *    11.7620    0.0000     4          
   269  Li    c      7.0585 *     9.8017 *    11.7620 *  0.0000     8          
   270  Cl    c     16.8602 *     0.0000       0.0000    0.0000     1          
   271  O     c     -0.7829 *     9.8017 *    13.7224 *  0.0000     8          
   272  Li    c      1.1775 *     9.8017 *    13.7224 *  0.0000     8          
   273  Cl    c    -14.5052 *     3.9207 *     7.8414 *  0.0000     8          
   274  Cl    c      5.0981 *     3.9207 *    15.6827 *  0.0000     8          
   275  Li    c     14.8998 *    -1.9603 *     7.8414 *  0.0000     8          
   276  O     c    -12.5449 *     5.8810 *     9.8017 *  0.0000     8          
   277  Li    c    -16.4656 *    -1.9603 *     3.9207 *  0.0000     8          
   278  Cl    c     -6.6639 *     0.0000      15.6827 *  0.0000     4          
   279  Li    c      3.1378 *     5.8810 *    15.6827 *  0.0000     8          
   280  Cl    c     12.9395 *     7.8414 *     7.8414    0.0000     4          
   281  O     c     14.8998 *     5.8810 *     5.8810    0.0000     4          
   282  Li    c     -2.7432 *     9.8017 *    13.7224 *  0.0000     8          
   283  Li    c     16.8602 *    -1.9603 *    -1.9603    0.0000     4          
   284  Li    c     10.9792 *     5.8810 *    11.7620 *  0.0000     8          
   285  O     c      3.1378 *     9.8017 *    13.7224 *  0.0000     8          
   286  O     c     -8.6242 *     5.8810 *    13.7224 *  0.0000     8          
   287  Li    c     12.9395 *     5.8810 *     9.8017 *  0.0000     8          
   288  Li    c    -12.5449 *    -1.9603 *    11.7620 *  0.0000     8          
   289  Li    c      7.0585 *    -1.9603 *    15.6827 *  0.0000     8          
   290  Li    c      7.0585 *    13.7224 *     7.8414 *  0.0000     8          
   291  Cl    c     16.8602 *     0.0000       3.9207 *  0.0000     4          
   292  Li    c     -4.7035 *     5.8810 *    15.6827 *  0.0000     8          
   293  Cl    c      5.0981 *    11.7620 *    11.7620    0.0000     4          
   294  Li    c    -10.5846 *    -1.9603 *    13.7224 *  0.0000     8          
   295  Li    c    -10.5846 *     9.8017 *     9.8017    0.0000     4          
   296  Li    c      9.0188 *     5.8810 *    13.7224 *  0.0000     8          
   297  Li    c    -16.4656 *     5.8810 *     0.0000    0.0000     4          
   298  Cl    c     -6.6639 *     3.9207 *    15.6827 *  0.0000     8          
   299  Cl    c     12.9395 *     0.0000      11.7620 *  0.0000     4          
   300  O     c     -4.7035 *     9.8017 *    13.7224 *  0.0000     8          
   301  Li    c     -8.6242 *     9.8017 *    11.7620 *  0.0000     8          
   302  Cl    c      1.1775 *     7.8414 *    15.6827 *  0.0000     8          
   303  Li    c     10.9792 *    13.7224 *     0.0000    0.0000     4          
   304  O     c    -16.4656 *    -1.9603 *     5.8810 *  0.0000     8          
   305  Li    c    -14.5052 *    -1.9603 *     9.8017 *  0.0000     8          
   306  Li    c      5.0981 *     9.8017 *    13.7224 *  0.0000     8          
   307  Cl    c    -10.5846 *     7.8414 *    11.7620 *  0.0000     8          
   308  Li    c     -0.7829 *    17.6430 *     0.0000    0.0000     4          
   309  O     c     10.9792 *    13.7224 *    -1.9603 *  0.0000     8          
   310  O     c     10.9792 *     9.8017 *     9.8017    0.0000     4          
   311  Li    c    -12.5449 *     9.8017 *     7.8414 *  0.0000     8          
   312  Cl    c     -2.7432 *     7.8414 *    15.6827 *  0.0000     8          
   313  Cl    c     16.8602 *     3.9207 *     3.9207    0.0000     4          
   314  O     c     -0.7829 *    17.6430 *    -1.9603 *  0.0000     8          
   315  Li    c      1.1775 *    -1.9603 *    17.6430 *  0.0000     8          
   316  Li    c     14.8998 *     5.8810 *     7.8414 *  0.0000     8          
   317  Li    c     14.8998 *     9.8017 *     0.0000    0.0000     4          
   318  Li    c    -16.4656 *     3.9207 *     5.8810 *  0.0000     8          
   319  Cl    c     -6.6639 *    11.7620 *    11.7620    0.0000     4          
   320  Li    c      3.1378 *    17.6430 *     0.0000    0.0000     4          
   321  Cl    c     12.9395 *     3.9207 *    11.7620 *  0.0000     8          
   322  O     c     14.8998 *    -1.9603 *     9.8017 *  0.0000     8          
   323  Li    c     -2.7432 *    -1.9603 *    17.6430 *  0.0000     8          
   324  Li    c     16.8602 *    -1.9603 *     5.8810 *  0.0000     8          
   325  Li    c     -8.6242 *    15.6827 *    -1.9603 *  0.0000     8          
   326  Li    c     -8.6242 *     7.8414 *    13.7224 *  0.0000     8          
   327  Li    c     10.9792 *    13.7224 *     3.9207 *  0.0000     8          
   328  O     c      3.1378 *    -1.9603 *    17.6430 *  0.0000     8          
   329  Li    c     -0.7829 *    13.7224 *    11.7620 *  0.0000     8          
   330  Li    c     -0.7829 *    17.6430 *     3.9207 *  0.0000     8          
   331  Cl    c      9.0188 *     0.0000      15.6827 *  0.0000     4          
   332  Li    c     -6.6639 *     9.8017 *    13.7224 *  0.0000     8          
   333  Li    c    -12.5449 *     5.8810 *    11.7620 *  0.0000     8          
   334  Li    c      7.0585 *     5.8810 *    15.6827 *  0.0000     8          
   335  Cl    c    -14.5052 *     7.8414 *     7.8414    0.0000     4          
   336  Li    c     -4.7035 *    17.6430 *     0.0000    0.0000     4          
   337  Cl    c      5.0981 *     7.8414 *    15.6827 *  0.0000     8          
   338  Li    c     14.8998 *     3.9207 *     9.8017 *  0.0000     8          
   339  O     c      7.0585 *     9.8017 *    13.7224 *  0.0000     8          
   340  Li    c    -10.5846 *     5.8810 *    13.7224 *  0.0000     8          
   341  Li    c    -16.4656 *    -1.9603 *     7.8414 *  0.0000     8          
   342  Li    c      3.1378 *    13.7224 *    11.7620 *  0.0000     8          
   343  Li    c      3.1378 *     3.9207 *    17.6430 *  0.0000     8          
   344  O     c     -4.7035 *    17.6430 *    -1.9603 *  0.0000     8          
   345  Cl    c    -18.4259 *     0.0000       0.0000    0.0000     1          
   346  O     c    -16.4656 *     5.8810 *     5.8810    0.0000     4          
   347  Li    c    -14.5052 *     5.8810 *     9.8017 *  0.0000     8          
   348  Li    c      5.0981 *    -1.9603 *    17.6430 *  0.0000     8          
   349  Li    c     -0.7829 *     9.8017 *    15.6827 *  0.0000     8          
   350  Cl    c      9.0188 *     3.9207 *    15.6827 *  0.0000     8          
   351  O     c     10.9792 *     5.8810 *    13.7224 *  0.0000     8          
   352  Li    c    -12.5449 *    13.7224 *     0.0000    0.0000     4          
   353  Cl    c     16.8602 *     0.0000       7.8414 *  0.0000     4          
   354  O     c     -0.7829 *     5.8810 *    17.6430 *  0.0000     8          
   355  Li    c    -18.4259 *    -1.9603 *    -1.9603    0.0000     4          
   356  Li    c      1.1775 *     5.8810 *    17.6430 *  0.0000     8          
   357  Cl    c    -14.5052 *     0.0000      11.7620 *  0.0000     4          
   358  Li    c     -4.7035 *    13.7224 *    11.7620 *  0.0000     8          
   359  Li    c     -4.7035 *    17.6430 *     3.9207 *  0.0000     8          
   360  O     c    -12.5449 *    -1.9603 *    13.7224 *  0.0000     8          
   361  O     c    -12.5449 *     9.8017 *     9.8017    0.0000     4          
   362  Cl    c     -6.6639 *     7.8414 *    15.6827 *  0.0000     8          
   363  Li    c      3.1378 *     9.8017 *    15.6827 *  0.0000     8          
   364  O     c     14.8998 *     5.8810 *     9.8017 *  0.0000     8          
   365  Li    c     -2.7432 *     5.8810 *    17.6430 *  0.0000     8          
   366  Li    c     16.8602 *     5.8810 *     5.8810    0.0000     4          
   367  Cl    c    -18.4259 *     0.0000       3.9207 *  0.0000     4          
   368  Li    c     -8.6242 *    15.6827 *     5.8810 *  0.0000     8          
   369  Li    c     10.9792 *     9.8017 *    11.7620 *  0.0000     8          
   370  O     c      3.1378 *     5.8810 *    17.6430 *  0.0000     8          
   371  Cl    c    -10.5846 *     0.0000      15.6827 *  0.0000     4          
   372  Cl    c      9.0188 *    11.7620 *    11.7620    0.0000     4          
   373  Li    c     18.8205 *    -1.9603 *     0.0000    0.0000     4          
   374  O     c     -8.6242 *     9.8017 *    13.7224 *  0.0000     8          
   375  Li    c     -6.6639 *    -1.9603 *    17.6430 *  0.0000     8          
   376  Li    c     12.9395 *    -1.9603 *    13.7224 *  0.0000     8          
   377  Li    c     12.9395 *     9.8017 *     9.8017    0.0000     4          
   378  Li    c    -12.5449 *    13.7224 *     3.9207 *  0.0000     8          
   379  Li    c      7.0585 *    17.6430 *     0.0000    0.0000     4          
   380  Cl    c     16.8602 *     3.9207 *     7.8414 *  0.0000     8          
   381  O     c     18.8205 *    -1.9603 *    -1.9603    0.0000     4          
   382  Cl    c    -14.5052 *     3.9207 *    11.7620 *  0.0000     8          
   383  Li    c     -4.7035 *     9.8017 *    15.6827 *  0.0000     8          
   384  Li    c     14.8998 *    11.7620 *    -1.9603 *  0.0000     8          
   385  O     c      7.0585 *    -1.9603 *    17.6430 *  0.0000     8          
   386  Li    c      9.0188 *     9.8017 *    13.7224 *  0.0000     8          
   387  Li    c    -16.4656 *     9.8017 *     0.0000    0.0000     4          
   388  Li    c    -16.4656 *     7.8414 *     5.8810 *  0.0000     8          
   389  Cl    c     12.9395 *     7.8414 *    11.7620 *  0.0000     8          
   390  O     c     -4.7035 *    17.6430 *     5.8810 *  0.0000     8          
   391  Cl    c    -18.4259 *     3.9207 *     3.9207    0.0000     4          
   392  Li    c     10.9792 *    -1.9603 *    15.6827 *  0.0000     8          
   393  Li    c     10.9792 *    13.7224 *     7.8414 *  0.0000     8          
   394  O     c    -16.4656 *     9.8017 *    -1.9603 *  0.0000     8          
   395  Li    c      5.0981 *    17.6430 *     5.8810 *  0.0000     8          
   396  Cl    c    -10.5846 *     3.9207 *    15.6827 *  0.0000     8          
   397  Li    c     -0.7829 *    17.6430 *     7.8414 *  0.0000     8          
   398  Li    c     18.8205 *    -1.9603 *     3.9207 *  0.0000     8          
   399  Li    c      7.0585 *    13.7224 *    11.7620 *  0.0000     8          
   400  Li    c      7.0585 *    17.6430 *     3.9207 *  0.0000     8          
   401  O     c     -0.7829 *    13.7224 *    13.7224    0.0000     4          
   402  Li    c    -18.4259 *     5.8810 *    -1.9603 *  0.0000     8          
   403  Li    c      1.1775 *    13.7224 *    13.7224    0.0000     4          
   404  Li    c     14.8998 *     7.8414 *     9.8017 *  0.0000     8          
   405  O     c    -12.5449 *     5.8810 *    13.7224 *  0.0000     8          
   406  Li    c    -16.4656 *     9.8017 *     3.9207 *  0.0000     8          
   407  Li    c      3.1378 *     7.8414 *    17.6430 *  0.0000     8          
   408  Li    c     -2.7432 *    13.7224 *    13.7224    0.0000     4          
   409  Li    c     16.8602 *     9.8017 *    -1.9603 *  0.0000     8          
   410  Li    c     -8.6242 *    17.6430 *     0.0000    0.0000     4          
   411  Cl    c      1.1775 *    11.7620 *    15.6827 *  0.0000     8          
   412  Cl    c      1.1775 *     0.0000      19.6034 *  0.0000     4          
   413  O     c      3.1378 *    13.7224 *    13.7224    0.0000     4          
   414  Cl    c    -10.5846 *    11.7620 *    11.7620    0.0000     4          
   415  Li    c     -0.7829 *    19.6034 *    -1.9603 *  0.0000     8          
   416  Cl    c      9.0188 *     7.8414 *    15.6827 *  0.0000     8          
   417  Li    c     18.8205 *     5.8810 *     0.0000    0.0000     4          
   418  O     c     -8.6242 *    -1.9603 *    17.6430 *  0.0000     8          
   419  Li    c     -6.6639 *     5.8810 *    17.6430 *  0.0000     8          
   420  Li    c     12.9395 *     5.8810 *    13.7224 *  0.0000     8          
   421  Li    c    -12.5449 *     9.8017 *    11.7620 *  0.0000     8          
   422  Cl    c     -2.7432 *    11.7620 *    15.6827 *  0.0000     8          
   423  Cl    c     -2.7432 *     0.0000      19.6034 *  0.0000     4          
   424  Li    c      7.0585 *     9.8017 *    15.6827 *  0.0000     8          
   425  O     c     18.8205 *     5.8810 *    -1.9603 *  0.0000     8          
   426  Li    c     -4.7035 *    17.6430 *     7.8414 *  0.0000     8          
   427  Li    c     14.8998 *    11.7620 *     5.8810 *  0.0000     8          
   428  O     c      7.0585 *     5.8810 *    17.6430 *  0.0000     8          
   429  Li    c    -10.5846 *     9.8017 *    13.7224 *  0.0000     8          
   430  Li    c      9.0188 *    17.6430 *    -1.9603 *  0.0000     8          
   431  Li    c      3.1378 *    -1.9603 *    19.6034 *  0.0000     8          
   432  O     c     -4.7035 *    13.7224 *    13.7224    0.0000     4          
   433  Cl    s      0.0000       0.0000       0.0000    0.0000     1    Defect
   434  O     s     -0.7829 *    -1.9603 *    -1.9603    0.0000     4          
   435  Cl    s      1.1775 *     0.0000       3.9207 *  0.0000     4          
   436  O     s      3.1378 *    -1.9603 *    -1.9603    0.0000     4          
   437  Cl    s     -2.7432 *     0.0000       3.9207 *  0.0000     4          
   438  Cl    s      5.0981 *     0.0000       0.0000    0.0000     1          
   439  O     s     -4.7035 *    -1.9603 *    -1.9603    0.0000     4          
   440  Cl    s      1.1775 *     3.9207 *     3.9207    0.0000     4          
   441  Cl    s     -2.7432 *     3.9207 *     3.9207    0.0000     4          
   442  O     s     -0.7829 *    -1.9603 *     5.8810 *  0.0000     8          
   443  Cl    s      5.0981 *     0.0000       3.9207 *  0.0000     4          
   444  Cl    s     -6.6639 *     0.0000       0.0000    0.0000     1          
   445  O     s      3.1378 *     5.8810 *    -1.9603 *  0.0000     8          
   446  Cl    s      5.0981 *     3.9207 *     3.9207    0.0000     4          
   447  O     s      7.0585 *    -1.9603 *    -1.9603    0.0000     4          
   448  Cl    s     -6.6639 *     0.0000       3.9207 *  0.0000     4          
   449  O     s     -4.7035 *    -1.9603 *     5.8810 *  0.0000     8          
   450  Cl    s      1.1775 *     0.0000       7.8414 *  0.0000     4          
   451  Cl    s     -2.7432 *     0.0000       7.8414 *  0.0000     4          
   452  O     s     -0.7829 *     5.8810 *     5.8810    0.0000     4          
   453  Cl    s     -6.6639 *     3.9207 *     3.9207    0.0000     4          
   454  Cl    s      1.1775 *     3.9207 *     7.8414 *  0.0000     8          
   455  O     s      3.1378 *     5.8810 *     5.8810    0.0000     4          
   456  Cl    s      9.0188 *     0.0000       0.0000    0.0000     1          
   457  O     s     -8.6242 *    -1.9603 *    -1.9603    0.0000     4          
   458  Cl    s     -2.7432 *     3.9207 *     7.8414 *  0.0000     8          
   459  Cl    s      5.0981 *     0.0000       7.8414 *  0.0000     4          
   460  O     s      7.0585 *    -1.9603 *     5.8810 *  0.0000     8          
   461  O     s     -4.7035 *     5.8810 *     5.8810    0.0000     4          
   462  Cl    s      9.0188 *     0.0000       3.9207 *  0.0000     4          
   463  O     s     -0.7829 *    -1.9603 *     9.8017 *  0.0000     8          
   464  Cl    s      5.0981 *     3.9207 *     7.8414 *  0.0000     8          
   465  Cl    s     -6.6639 *     0.0000       7.8414 *  0.0000     4          
   466  O     s      3.1378 *    -1.9603 *     9.8017 *  0.0000     8          
   467  Cl    s    -10.5846 *     0.0000       0.0000    0.0000     1          
   468  Cl    s      9.0188 *     3.9207 *     3.9207    0.0000     4          
   469  O     s     -8.6242 *    -1.9603 *     5.8810 *  0.0000     8          
   470  O     s      7.0585 *     5.8810 *     5.8810    0.0000     4          
   471  Cl    s     -6.6639 *     3.9207 *     7.8414 *  0.0000     8          
   472  O     s     -4.7035 *    -1.9603 *     9.8017 *  0.0000     8          
   473  Cl    s      1.1775 *     7.8414 *     7.8414    0.0000     4          
   474  Cl    s    -10.5846 *     0.0000       3.9207 *  0.0000     4          
   475  O     s     10.9792 *    -1.9603 *    -1.9603    0.0000     4          
   476  Cl    s     -2.7432 *     7.8414 *     7.8414    0.0000     4          
   477  O     s     -0.7829 *     9.8017 *     5.8810 *  0.0000     8          
   478  Cl    s      1.1775 *     0.0000      11.7620 *  0.0000     4          
   479  O     s      3.1378 *     5.8810 *     9.8017 *  0.0000     8          
   480  Cl    s    -10.5846 *     3.9207 *     3.9207    0.0000     4          
   481  Cl    s      9.0188 *     0.0000       7.8414 *  0.0000     4          
   482  O     s     -8.6242 *     5.8810 *     5.8810    0.0000     4          
   483  Cl    s     -2.7432 *     0.0000      11.7620 *  0.0000     4          
   484  Cl    s      5.0981 *     7.8414 *     7.8414    0.0000     4          
   485  O     s      7.0585 *     9.8017 *    -1.9603 *  0.0000     8          
   486  O     s     -4.7035 *     5.8810 *     9.8017 *  0.0000     8          
   487  Cl    s      1.1775 *     3.9207 *    11.7620 *  0.0000     8          
   488  Cl    s      9.0188 *     3.9207 *     7.8414 *  0.0000     8          
   489  O     s     10.9792 *     5.8810 *    -1.9603 *  0.0000     8          
   490  Cl    s     -2.7432 *    11.7620 *     3.9207 *  0.0000     8          
   491  Cl    s      5.0981 *     0.0000      11.7620 *  0.0000     4          
   492  O     s    -12.5449 *    -1.9603 *    -1.9603    0.0000     4          
   493  Cl    s     -6.6639 *     7.8414 *     7.8414    0.0000     4          
   494  Cl    s     12.9395 *     0.0000       0.0000    0.0000     1          
   495  Cl    s    -10.5846 *     0.0000       7.8414 *  0.0000     4          
   496  O     s     -8.6242 *     9.8017 *    -1.9603 *  0.0000     8          
   497  Cl    s      5.0981 *    11.7620 *     3.9207 *  0.0000     8          
   498  O     s      7.0585 *     5.8810 *     9.8017 *  0.0000     8          
   499  Cl    s     -6.6639 *     0.0000      11.7620 *  0.0000     4          
   500  Cl    s     12.9395 *     0.0000       3.9207 *  0.0000     4          
   501  Cl    s    -10.5846 *     3.9207 *     7.8414 *  0.0000     8          
   502  O     s     10.9792 *     5.8810 *     5.8810    0.0000     4          
   503  O     s     -0.7829 *    -1.9603 *    13.7224 *  0.0000     8          
   504  O     s     -0.7829 *     9.8017 *     9.8017    0.0000     4          
   505  O     s    -12.5449 *    -1.9603 *     5.8810 *  0.0000     8          
   506  Cl    s     -6.6639 *     3.9207 *    11.7620 *  0.0000     8          
   507  Cl    s     12.9395 *     3.9207 *     3.9207    0.0000     4          
   508  Cl    s      1.1775 *     7.8414 *    11.7620 *  0.0000     8          
   509  O     s      3.1378 *    -1.9603 *    13.7224 *  0.0000     8          
   510  O     s      3.1378 *     9.8017 *     9.8017    0.0000     4          
   511  Cl    s      9.0188 *     7.8414 *     7.8414    0.0000     4          
   512  O     s     -8.6242 *     5.8810 *     9.8017 *  0.0000     8          
   513  Cl    s     -2.7432 *     7.8414 *    11.7620 *  0.0000     8          
   514  Cl    s    -14.5052 *     0.0000       0.0000    0.0000     1          
   515  O     s     -4.7035 *    -1.9603 *    13.7224 *  0.0000     8          
   516  O     s     -4.7035 *     9.8017 *     9.8017    0.0000     4          
   517  Cl    s      9.0188 *     0.0000      11.7620 *  0.0000     4          
   518  O     s     10.9792 *     9.8017 *    -1.9603 *  0.0000     8          
   519  O     s     -0.7829 *     5.8810 *    13.7224 *  0.0000     8          
   520  Cl    s    -14.5052 *     0.0000       3.9207 *  0.0000     4          
   521  Cl    s      5.0981 *    11.7620 *     7.8414 *  0.0000     8          
   522  O     s    -12.5449 *     5.8810 *     5.8810    0.0000     4          
   523  Cl    s     12.9395 *     0.0000       7.8414 *  0.0000     4          
   524  O     s     14.8998 *    -1.9603 *    -1.9603    0.0000     4          
   525  O     s      3.1378 *     5.8810 *    13.7224 *  0.0000     8          
   526  Cl    s    -10.5846 *     7.8414 *     7.8414    0.0000     4          
   527  Cl    s      9.0188 *    11.7620 *     3.9207 *  0.0000     8          
   528  Cl    s    -14.5052 *     3.9207 *     3.9207    0.0000     4          
   529  O     s      7.0585 *    13.7224 *    -1.9603 *  0.0000     8          
   530  O     s      7.0585 *     9.8017 *     9.8017    0.0000     4          
   531  Cl    s     -6.6639 *     7.8414 *    11.7620 *  0.0000     8          
   532  Cl    s     12.9395 *     3.9207 *     7.8414 *  0.0000     8          
   533  O     s     -4.7035 *     5.8810 *    13.7224 *  0.0000     8          
   534  Cl    s      1.1775 *     0.0000      15.6827 *  0.0000     4          
   535  Cl    s    -10.5846 *     0.0000      11.7620 *  0.0000     4          
   536  O     s     10.9792 *     5.8810 *     9.8017 *  0.0000     8          
   537  Cl    s     -2.7432 *     0.0000      15.6827 *  0.0000     4          
   538  O     s    -12.5449 *    -1.9603 *     9.8017 *  0.0000     8          
   539  O     s     14.8998 *    -1.9603 *     5.8810 *  0.0000     8          
   540  Cl    s      1.1775 *     3.9207 *    15.6827 *  0.0000     8          
   541  Cl    s    -10.5846 *     3.9207 *    11.7620 *  0.0000     8          
   542  O     s     -8.6242 *    -1.9603 *    13.7224 *  0.0000     8          
   543  O     s     -8.6242 *     9.8017 *     9.8017    0.0000     4          
   544  Cl    s     -2.7432 *     3.9207 *    15.6827 *  0.0000     8          
   545  Cl    s    -14.5052 *     0.0000       7.8414 *  0.0000     4          
   546  Cl    s      5.0981 *     0.0000      15.6827 *  0.0000     4          
   547  O     s      7.0585 *     5.8810 *    13.7224 *  0.0000     8          
   548  Cl    s      1.1775 *    11.7620 *    11.7620    0.0000     4          
   549  O     s    -16.4656 *    -1.9603 *    -1.9603    0.0000     4          
   550  Cl    s      9.0188 *     7.8414 *    11.7620 *  0.0000     8          
   551  Cl    s     -2.7432 *    11.7620 *    11.7620    0.0000     4          
   552  Cl    s     16.8602 *     0.0000       0.0000    0.0000     1          
   553  O     s     -0.7829 *     9.8017 *    13.7224 *  0.0000     8          
   554  Cl    s    -14.5052 *     3.9207 *     7.8414 *  0.0000     8          
   555  Cl    s      5.0981 *     3.9207 *    15.6827 *  0.0000     8          
   556  O     s    -12.5449 *     5.8810 *     9.8017 *  0.0000     8          
   557  Cl    s     -6.6639 *     0.0000      15.6827 *  0.0000     4          
   558  Cl    s     12.9395 *     7.8414 *     7.8414    0.0000     4          
   559  O     s     14.8998 *     5.8810 *     5.8810    0.0000     4          
   560  O     s      3.1378 *     9.8017 *    13.7224 *  0.0000     8          
   561  O     s     -8.6242 *     5.8810 *    13.7224 *  0.0000     8          
   562  Cl    s     16.8602 *     0.0000       3.9207 *  0.0000     4          
   563  Cl    s      5.0981 *    11.7620 *    11.7620    0.0000     4          
   564  Cl    s     -6.6639 *     3.9207 *    15.6827 *  0.0000     8          
   565  Cl    s     12.9395 *     0.0000      11.7620 *  0.0000     4          
   566  O     s     -4.7035 *     9.8017 *    13.7224 *  0.0000     8          
   567  Cl    s      1.1775 *     7.8414 *    15.6827 *  0.0000     8          
   568  O     s    -16.4656 *    -1.9603 *     5.8810 *  0.0000     8          
   569  Cl    s    -10.5846 *     7.8414 *    11.7620 *  0.0000     8          
   570  O     s     10.9792 *    13.7224 *    -1.9603 *  0.0000     8          
   571  O     s     10.9792 *     9.8017 *     9.8017    0.0000     4          
   572  Cl    s     -2.7432 *     7.8414 *    15.6827 *  0.0000     8          
   573  Cl    s     16.8602 *     3.9207 *     3.9207    0.0000     4          
   574  O     s     -0.7829 *    17.6430 *    -1.9603 *  0.0000     8          
   575  Cl    s     -6.6639 *    11.7620 *    11.7620    0.0000     4          
   576  Cl    s     12.9395 *     3.9207 *    11.7620 *  0.0000     8          
   577  O     s     14.8998 *    -1.9603 *     9.8017 *  0.0000     8          
   578  O     s      3.1378 *    -1.9603 *    17.6430 *  0.0000     8          
   579  Cl    s      9.0188 *     0.0000      15.6827 *  0.0000     4          
   580  Cl    s    -14.5052 *     7.8414 *     7.8414    0.0000     4          
   581  Cl    s      5.0981 *     7.8414 *    15.6827 *  0.0000     8          
   582  O     s      7.0585 *     9.8017 *    13.7224 *  0.0000     8          
   583  O     s     -4.7035 *    17.6430 *    -1.9603 *  0.0000     8          
   584  Cl    s    -18.4259 *     0.0000       0.0000    0.0000     1          
   585  O     s    -16.4656 *     5.8810 *     5.8810    0.0000     4          
   586  Cl    s      9.0188 *     3.9207 *    15.6827 *  0.0000     8          
   587  O     s     10.9792 *     5.8810 *    13.7224 *  0.0000     8          
   588  Cl    s     16.8602 *     0.0000       7.8414 *  0.0000     4          
   589  O     s     -0.7829 *     5.8810 *    17.6430 *  0.0000     8          
   590  Cl    s    -14.5052 *     0.0000      11.7620 *  0.0000     4          
   591  O     s    -12.5449 *    -1.9603 *    13.7224 *  0.0000     8          
   592  O     s    -12.5449 *     9.8017 *     9.8017    0.0000     4          
   593  Cl    s     -6.6639 *     7.8414 *    15.6827 *  0.0000     8          
   594  O     s     14.8998 *     5.8810 *     9.8017 *  0.0000     8          
   595  Cl    s    -18.4259 *     0.0000       3.9207 *  0.0000     4          
   596  O     s      3.1378 *     5.8810 *    17.6430 *  0.0000     8          
   597  Cl    s    -10.5846 *     0.0000      15.6827 *  0.0000     4          
   598  Cl    s      9.0188 *    11.7620 *    11.7620    0.0000     4          
   599  O     s     -8.6242 *     9.8017 *    13.7224 *  0.0000     8          
   600  Cl    s     16.8602 *     3.9207 *     7.8414 *  0.0000     8          
   601  O     s     18.8205 *    -1.9603 *    -1.9603    0.0000     4          
   602  Cl    s    -14.5052 *     3.9207 *    11.7620 *  0.0000     8          
   603  O     s      7.0585 *    -1.9603 *    17.6430 *  0.0000     8          
   604  Cl    s     12.9395 *     7.8414 *    11.7620 *  0.0000     8          
   605  O     s     -4.7035 *    17.6430 *     5.8810 *  0.0000     8          
   606  Cl    s    -18.4259 *     3.9207 *     3.9207    0.0000     4          
   607  O     s    -16.4656 *     9.8017 *    -1.9603 *  0.0000     8          
   608  Cl    s    -10.5846 *     3.9207 *    15.6827 *  0.0000     8          
   609  O     s     -0.7829 *    13.7224 *    13.7224    0.0000     4          
   610  O     s    -12.5449 *     5.8810 *    13.7224 *  0.0000     8          
   611  Cl    s      1.1775 *    11.7620 *    15.6827 *  0.0000     8          
   612  Cl    s      1.1775 *     0.0000      19.6034 *  0.0000     4          
   613  O     s      3.1378 *    13.7224 *    13.7224    0.0000     4          
   614  Cl    s    -10.5846 *    11.7620 *    11.7620    0.0000     4          
   615  Cl    s      9.0188 *     7.8414 *    15.6827 *  0.0000     8          
   616  O     s     -8.6242 *    -1.9603 *    17.6430 *  0.0000     8          
   617  Cl    s     -2.7432 *    11.7620 *    15.6827 *  0.0000     8          
   618  Cl    s     -2.7432 *     0.0000      19.6034 *  0.0000     4          
   619  O     s     18.8205 *     5.8810 *    -1.9603 *  0.0000     8          
   620  O     s      7.0585 *     5.8810 *    17.6430 *  0.0000     8          
   621  O     s     -4.7035 *    13.7224 *    13.7224    0.0000     4          
--------------------------------------------------------------------------------


  Constraints on symmetry reduced coordinates :

--------------------------------------------------------------------------------
  Constraint no.      Unconstrained     Constrained    Coefficient    
                         Variable         Variable
--------------------------------------------------------------------------------
           1                 3 y             3 z         1.00000
           2                 4 y             4 z         1.00000
           3                 6 y             6 z         1.00000
           4                 8 y             8 z         1.00000
           5                14 y            14 z         1.00000
           6                15 y            15 z         1.00000
           7                16 y            16 z         1.00000
           8                18 y            18 z         1.00000
           9                28 y            28 z         1.00000
          10                31 y            31 z         1.00000
          11                32 y            32 z         1.00000
          12                41 y            41 z         1.00000
          13                42 y            42 z         1.00000
          14                44 y            44 z         1.00000
          15                46 y            46 z         1.00000
          16                49 y            49 z         1.00000
          17                51 y            51 z         1.00000
          18                58 y            58 z         1.00000
          19                59 y            59 z         1.00000
          20                61 y            61 z         1.00000
          21                77 y            77 z         1.00000
          22                79 y            79 z         1.00000
          23                83 y            83 z         1.00000
          24                84 y            84 z         1.00000
          25                90 y            90 z         1.00000
          26                94 y            94 z         1.00000
          27                95 y            95 z         1.00000
          28               104 y           104 z         1.00000
          29               107 y           107 z         1.00000
          30               112 y           112 z         1.00000
          31               115 y           115 z         1.00000
          32               129 y           129 z         1.00000
          33               130 y           130 z         1.00000
          34               140 y           140 z         1.00000
          35               145 y           145 z         1.00000
          36               154 y           154 z         1.00000
          37               158 y           158 z         1.00000
          38               160 y           160 z         1.00000
          39               165 y           165 z         1.00000
          40               167 y           167 z         1.00000
          41               170 y           170 z         1.00000
          42               172 y           172 z         1.00000
          43               184 y           184 z         1.00000
          44               188 y           188 z         1.00000
          45               190 y           190 z         1.00000
          46               201 y           201 z         1.00000
          47               203 y           203 z         1.00000
          48               208 y           208 z         1.00000
          49               212 y           212 z         1.00000
          50               213 y           213 z         1.00000
          51               215 y           215 z         1.00000
          52               218 y           218 z         1.00000
          53               247 y           247 z         1.00000
          54               259 y           259 z         1.00000
          55               262 y           262 z         1.00000
          56               264 y           264 z         1.00000
          57               265 y           265 z         1.00000
          58               268 y           268 z         1.00000
          59               280 y           280 z         1.00000
          60               281 y           281 z         1.00000
          61               283 y           283 z         1.00000
          62               293 y           293 z         1.00000
          63               295 y           295 z         1.00000
          64               310 y           310 z         1.00000
          65               313 y           313 z         1.00000
          66               319 y           319 z         1.00000
          67               335 y           335 z         1.00000
          68               346 y           346 z         1.00000
          69               355 y           355 z         1.00000
          70               361 y           361 z         1.00000
          71               366 y           366 z         1.00000
          72               372 y           372 z         1.00000
          73               377 y           377 z         1.00000
          74               381 y           381 z         1.00000
          75               391 y           391 z         1.00000
          76               401 y           401 z         1.00000
          77               403 y           403 z         1.00000
          78               408 y           408 z         1.00000
          79               413 y           413 z         1.00000
          80               414 y           414 z         1.00000
          81               432 y           432 z         1.00000
          82               434 y           434 z         1.00000
          83               436 y           436 z         1.00000
          84               439 y           439 z         1.00000
          85               440 y           440 z         1.00000
          86               441 y           441 z         1.00000
          87               446 y           446 z         1.00000
          88               447 y           447 z         1.00000
          89               452 y           452 z         1.00000
          90               453 y           453 z         1.00000
[...]
    541 y          3.920675      3.919715    -0.000960    Cartesian   -0.02
    541 z         11.762026     11.759392    -0.002635    Cartesian   -0.02
    542 x         -5.881013     -5.882988    -0.001975    Cartesian    0.03
    542 y         -1.960338     -1.960434    -0.000096    Cartesian    0.00
    542 z         13.722364     13.723678     0.001314    Cartesian    0.01
    543 x         -5.881013     -5.884892    -0.003879    Cartesian    0.07
    543 y          9.801689      9.803137     0.001448    Cartesian    0.01
    543 z          9.801689      9.803137     0.001448    Cartesian    0.01
    544 x          0.000000     -0.001539    -0.001539    Cartesian    0.00
    544 y          3.920675      3.920718     0.000042    Cartesian    0.00
    544 z         15.682702     15.680868    -0.001833    Cartesian   -0.01
    545 x        -11.762026    -11.759332     0.002695    Cartesian   -0.02
    545 y          0.000000      0.000000     0.000000    Cartesian    0.00
    545 z          7.841351      7.838265    -0.003086    Cartesian   -0.04
    546 x          7.841351      7.838396    -0.002955    Cartesian   -0.04
    546 y          0.000000      0.000000     0.000000    Cartesian    0.00
    546 z         15.682702     15.679401    -0.003301    Cartesian   -0.02
    547 x          9.801689      9.799616    -0.002073    Cartesian   -0.02
    547 y          5.881013      5.879496    -0.001517    Cartesian   -0.03
    547 z         13.722364     13.720125    -0.002239    Cartesian   -0.02
    548 x          3.920675      3.919642    -0.001033    Cartesian   -0.03
    548 y         11.762026     11.759354    -0.002672    Cartesian   -0.02
    548 z         11.762026     11.759354    -0.002672    Cartesian   -0.02
    549 x        -13.722364    -13.723084    -0.000720    Cartesian    0.01
    549 y         -1.960338     -1.960240     0.000097    Cartesian   -0.00
    549 z         -1.960338     -1.960240     0.000097    Cartesian   -0.00
    550 x         11.762026     11.757929    -0.004097    Cartesian   -0.03
    550 y          7.841351      7.838144    -0.003207    Cartesian   -0.04
    550 z         11.762026     11.757577    -0.004449    Cartesian   -0.04
    551 x          0.000000     -0.001102    -0.001102    Cartesian    0.00
    551 y         11.762026     11.760063    -0.001964    Cartesian   -0.02
    551 z         11.762026     11.760063    -0.001964    Cartesian   -0.02
    552 x         19.603377     19.596845    -0.006532    Cartesian   -0.03
    552 y          0.000000      0.000000     0.000000    Cartesian    0.00
    552 z          0.000000      0.000000     0.000000    Cartesian    0.00
    553 x          1.960338      1.959706    -0.000632    Cartesian   -0.03
    553 y          9.801689      9.801938     0.000250    Cartesian    0.00
    553 z         13.722364     13.722842     0.000478    Cartesian    0.00
    554 x        -11.762026    -11.759994     0.002032    Cartesian   -0.02
    554 y          3.920675      3.919913    -0.000763    Cartesian   -0.02
    554 z          7.841351      7.838751    -0.002600    Cartesian   -0.03
    555 x          7.841351      7.838511    -0.002840    Cartesian   -0.04
    555 y          3.920675      3.919041    -0.001635    Cartesian   -0.04
    555 z         15.682702     15.678917    -0.003785    Cartesian   -0.02
    556 x         -9.801689     -9.803186    -0.001497    Cartesian    0.02
    556 y          5.881013      5.881162     0.000148    Cartesian    0.00
    556 z          9.801689      9.801743     0.000055    Cartesian    0.00
    557 x         -3.920675     -3.920696    -0.000020    Cartesian    0.00
    557 y          0.000000      0.000000     0.000000    Cartesian    0.00
    557 z         15.682702     15.679988    -0.002714    Cartesian   -0.02
    558 x         15.682702     15.676538    -0.006164    Cartesian   -0.04
    558 y          7.841351      7.837891    -0.003460    Cartesian   -0.04
    558 z          7.841351      7.837891    -0.003460    Cartesian   -0.04
    559 x         17.643040     17.639108    -0.003931    Cartesian   -0.02
    559 y          5.881013      5.879913    -0.001100    Cartesian   -0.02
    559 z          5.881013      5.879913    -0.001100    Cartesian   -0.02
    560 x          5.881013      5.881204     0.000191    Cartesian    0.00
    560 y          9.801689      9.801320    -0.000369    Cartesian   -0.00
    560 z         13.722364     13.722100    -0.000265    Cartesian   -0.00
    561 x         -5.881013     -5.883089    -0.002076    Cartesian    0.04
    561 y          5.881013      5.881839     0.000826    Cartesian    0.01
    561 z         13.722364     13.723716     0.001352    Cartesian    0.01
    562 x         19.603377     19.596520    -0.006857    Cartesian   -0.03
    562 y          0.000000      0.000000     0.000000    Cartesian    0.00
    562 z          3.920675      3.918409    -0.002266    Cartesian   -0.06
    563 x          7.841351      7.840262    -0.001089    Cartesian   -0.01
    563 y         11.762026     11.759444    -0.002583    Cartesian   -0.02
    563 z         11.762026     11.759444    -0.002583    Cartesian   -0.02
    564 x         -3.920675     -3.921722    -0.001047    Cartesian    0.03
    564 y          3.920675      3.920769     0.000093    Cartesian    0.00
    564 z         15.682702     15.680674    -0.002028    Cartesian   -0.01
    565 x         15.682702     15.677834    -0.004868    Cartesian   -0.03
    565 y          0.000000      0.000000     0.000000    Cartesian    0.00
    565 z         11.762026     11.758261    -0.003766    Cartesian   -0.03
    566 x         -1.960338     -1.962014    -0.001676    Cartesian    0.09
    566 y          9.801689      9.802525     0.000837    Cartesian    0.01
    566 z         13.722364     13.723465     0.001101    Cartesian    0.01
    567 x          3.920675      3.919742    -0.000934    Cartesian   -0.02
    567 y          7.841351      7.840591    -0.000760    Cartesian   -0.01
    567 z         15.682702     15.680609    -0.002093    Cartesian   -0.01
    568 x        -13.722364    -13.723310    -0.000945    Cartesian    0.01
    568 y         -1.960338     -1.960289     0.000048    Cartesian   -0.00
    568 z          5.881013      5.881669     0.000656    Cartesian    0.01
    569 x         -7.841351     -7.842347    -0.000996    Cartesian    0.01
    569 y          7.841351      7.839523    -0.001828    Cartesian   -0.02
    569 z         11.762026     11.760031    -0.001996    Cartesian   -0.02
    570 x         13.722364     13.720930    -0.001434    Cartesian   -0.01
    570 y         13.722364     13.720831    -0.001533    Cartesian   -0.01
    570 z         -1.960338     -1.959838     0.000500    Cartesian   -0.03
    571 x         13.722364     13.720185    -0.002179    Cartesian   -0.02
    571 y          9.801689      9.799874    -0.001815    Cartesian   -0.02
    571 z          9.801689      9.799874    -0.001815    Cartesian   -0.02
    572 x          0.000000     -0.000765    -0.000765    Cartesian    0.00
    572 y          7.841351      7.840997    -0.000354    Cartesian   -0.00
    572 z         15.682702     15.681078    -0.001624    Cartesian   -0.01
    573 x         19.603377     19.597403    -0.005974    Cartesian   -0.03
    573 y          3.920675      3.919926    -0.000749    Cartesian   -0.02
    573 z          3.920675      3.919926    -0.000749    Cartesian   -0.02
    574 x          1.960338      1.959863    -0.000475    Cartesian   -0.02
    574 y         17.643040     17.643613     0.000573    Cartesian    0.00
    574 z         -1.960338     -1.961256    -0.000918    Cartesian    0.05
    575 x         -3.920675     -3.922522    -0.001847    Cartesian    0.05
    575 y         11.762026     11.761063    -0.000964    Cartesian   -0.01
    575 z         11.762026     11.761063    -0.000964    Cartesian   -0.01
    576 x         15.682702     15.678195    -0.004507    Cartesian   -0.03
    576 y          3.920675      3.918766    -0.001910    Cartesian   -0.05
    576 z         11.762026     11.758348    -0.003678    Cartesian   -0.03
    577 x         17.643040     17.640648    -0.002392    Cartesian   -0.01
    577 y         -1.960338     -1.959930     0.000407    Cartesian   -0.02
    577 z          9.801689      9.800675    -0.001014    Cartesian   -0.01
    578 x          5.881013      5.880906    -0.000107    Cartesian   -0.00
    578 y         -1.960338     -1.960535    -0.000197    Cartesian    0.01
    578 z         17.643040     17.643421     0.000381    Cartesian    0.00
    579 x         11.762026     11.759932    -0.002095    Cartesian   -0.02
    579 y          0.000000      0.000000     0.000000    Cartesian    0.00
    579 z         15.682702     15.679208    -0.003494    Cartesian   -0.02
    580 x        -11.762026    -11.760580     0.001447    Cartesian   -0.01
    580 y          7.841351      7.839630    -0.001721    Cartesian   -0.02
    580 z          7.841351      7.839630    -0.001721    Cartesian   -0.02
    581 x          7.841351      7.839720    -0.001631    Cartesian   -0.02
    581 y          7.841351      7.840345    -0.001006    Cartesian   -0.01
    581 z         15.682702     15.679765    -0.002937    Cartesian   -0.02
    582 x          9.801689      9.801328    -0.000360    Cartesian   -0.00
    582 y          9.801689      9.801558    -0.000130    Cartesian   -0.00
    582 z         13.722364     13.721905    -0.000459    Cartesian   -0.00
    583 x         -1.960338     -1.961077    -0.000739    Cartesian    0.04
    583 y         17.643040     17.642950    -0.000089    Cartesian   -0.00
    583 z         -1.960338     -1.960730    -0.000392    Cartesian    0.02
    584 x        -15.682702    -15.679402     0.003300    Cartesian   -0.02
    584 y          0.000000      0.000000     0.000000    Cartesian    0.00
    584 z          0.000000      0.000000     0.000000    Cartesian    0.00
    585 x        -13.722364    -13.722775    -0.000411    Cartesian    0.00
    585 y          5.881013      5.880971    -0.000042    Cartesian   -0.00
    585 z          5.881013      5.880971    -0.000042    Cartesian   -0.00
    586 x         11.762026     11.760163    -0.001863    Cartesian   -0.02
    586 y          3.920675      3.919524    -0.001152    Cartesian   -0.03
    586 z         15.682702     15.678909    -0.003792    Cartesian   -0.02
    587 x         13.722364     13.721267    -0.001097    Cartesian   -0.01
    587 y          5.881013      5.879971    -0.001042    Cartesian   -0.02
    587 z         13.722364     13.720820    -0.001544    Cartesian   -0.01
    588 x         19.603377     19.597923    -0.005455    Cartesian   -0.03
    588 y          0.000000      0.000000     0.000000    Cartesian    0.00
    588 z          7.841351      7.840024    -0.001327    Cartesian   -0.02
    589 x          1.960338      1.960059    -0.000279    Cartesian   -0.01
    589 y          5.881013      5.881373     0.000360    Cartesian    0.01
    589 z         17.643040     17.642850    -0.000190    Cartesian   -0.00
    590 x        -11.762026    -11.760259     0.001767    Cartesian   -0.02
    590 y          0.000000      0.000000     0.000000    Cartesian    0.00
    590 z         11.762026     11.759306    -0.002720    Cartesian   -0.02
    591 x         -9.801689     -9.801875    -0.000186    Cartesian    0.00
    591 y         -1.960338     -1.960221     0.000117    Cartesian   -0.01
    591 z         13.722364     13.721495    -0.000869    Cartesian   -0.01
    592 x         -9.801689     -9.802769    -0.001081    Cartesian    0.01
    592 y          9.801689      9.801437    -0.000252    Cartesian   -0.00
    592 z          9.801689      9.801437    -0.000252    Cartesian   -0.00
    593 x         -3.920675     -3.921413    -0.000737    Cartesian    0.02
    593 y          7.841351      7.840866    -0.000485    Cartesian   -0.01
    593 z         15.682702     15.680579    -0.002123    Cartesian   -0.01
    594 x         17.643040     17.640947    -0.002093    Cartesian   -0.01
    594 y          5.881013      5.880214    -0.000800    Cartesian   -0.01
    594 z          9.801689      9.800463    -0.001226    Cartesian   -0.01
    595 x        -15.682702    -15.678760     0.003942    Cartesian   -0.03
    595 y          0.000000      0.000000     0.000000    Cartesian    0.00
    595 z          3.920675      3.919669    -0.001006    Cartesian   -0.03
    596 x          5.881013      5.880688    -0.000325    Cartesian   -0.01
    596 y          5.881013      5.880857    -0.000156    Cartesian   -0.00
    596 z         17.643040     17.642399    -0.000641    Cartesian   -0.00
    597 x         -7.841351     -7.841447    -0.000096    Cartesian    0.00
    597 y          0.000000      0.000000     0.000000    Cartesian    0.00
    597 z         15.682702     15.679205    -0.003497    Cartesian   -0.02
    598 x         11.762026     11.759911    -0.002115    Cartesian   -0.02
    598 y         11.762026     11.758862    -0.003164    Cartesian   -0.03
    598 z         11.762026     11.758862    -0.003164    Cartesian   -0.03
    599 x         -5.881013     -5.881963    -0.000949    Cartesian    0.02
    599 y          9.801689      9.801465    -0.000223    Cartesian   -0.00
    599 z         13.722364     13.722217    -0.000147    Cartesian   -0.00
    600 x         19.603377     19.597754    -0.005623    Cartesian   -0.03
    600 y          3.920675      3.919710    -0.000966    Cartesian   -0.02
    600 z          7.841351      7.839116    -0.002235    Cartesian   -0.03
    601 x         21.563715     21.561198    -0.002517    Cartesian   -0.01
    601 y         -1.960338     -1.960055     0.000283    Cartesian   -0.01
    601 z         -1.960338     -1.960055     0.000283    Cartesian   -0.01
    602 x        -11.762026    -11.759955     0.002071    Cartesian   -0.02
    602 y          3.920675      3.919483    -0.001193    Cartesian   -0.03
    602 z         11.762026     11.758877    -0.003150    Cartesian   -0.03
    603 x          9.801689      9.801251    -0.000438    Cartesian   -0.00
    603 y         -1.960338     -1.960110     0.000228    Cartesian   -0.01
    603 z         17.643040     17.641903    -0.001137    Cartesian   -0.01
    604 x         15.682702     15.678293    -0.004408    Cartesian   -0.03
    604 y          7.841351      7.839031    -0.002320    Cartesian   -0.03
    604 z         11.762026     11.758272    -0.003755    Cartesian   -0.03
    605 x         -1.960338     -1.960856    -0.000518    Cartesian    0.03
    605 y         17.643040     17.643216     0.000176    Cartesian    0.00
    605 z          5.881013      5.881362     0.000349    Cartesian    0.01
    606 x        -15.682702    -15.677987     0.004715    Cartesian   -0.03
    606 y          3.920675      3.919641    -0.001034    Cartesian   -0.03
    606 z          3.920675      3.919641    -0.001034    Cartesian   -0.03
    607 x        -13.722364    -13.721422     0.000942    Cartesian   -0.01
    607 y          9.801689      9.800610    -0.001079    Cartesian   -0.01
    607 z         -1.960338     -1.960245     0.000093    Cartesian   -0.00
    608 x         -7.841351     -7.840385     0.000966    Cartesian   -0.01
    608 y          3.920675      3.919665    -0.001011    Cartesian   -0.03
    608 z         15.682702     15.679127    -0.003575    Cartesian   -0.02
    609 x          1.960338      1.960283    -0.000054    Cartesian   -0.00
    609 y         13.722364     13.721573    -0.000792    Cartesian   -0.01
    609 z         13.722364     13.721573    -0.000792    Cartesian   -0.01
    610 x         -9.801689     -9.800769     0.000919    Cartesian   -0.01
    610 y          5.881013      5.879881    -0.001133    Cartesian   -0.02
    610 z         13.722364     13.720871    -0.001493    Cartesian   -0.01
    611 x          3.920675      3.919850    -0.000825    Cartesian   -0.02
    611 y         11.762026     11.759231    -0.002795    Cartesian   -0.02
    611 z         15.682702     15.678660    -0.004042    Cartesian   -0.03
    612 x          3.920675      3.919683    -0.000992    Cartesian   -0.03
    612 y          0.000000      0.000000     0.000000    Cartesian    0.00
    612 z         19.603377     19.598371    -0.005007    Cartesian   -0.03
    613 x          5.881013      5.880236    -0.000777    Cartesian   -0.01
    613 y         13.722364     13.720554    -0.001810    Cartesian   -0.01
    613 z         13.722364     13.720554    -0.001810    Cartesian   -0.01
    614 x         -7.841351     -7.840835     0.000516    Cartesian   -0.01
    614 y         11.762026     11.759581    -0.002445    Cartesian   -0.02
    614 z         11.762026     11.759581    -0.002445    Cartesian   -0.02
    615 x         11.762026     11.759401    -0.002625    Cartesian   -0.02
    615 y          7.841351      7.838967    -0.002384    Cartesian   -0.03
    615 z         15.682702     15.677768    -0.004934    Cartesian   -0.03
    616 x         -5.881013     -5.880416     0.000597    Cartesian   -0.01
    616 y         -1.960338     -1.959717     0.000621    Cartesian   -0.03
    616 z         17.643040     17.641097    -0.001943    Cartesian   -0.01
    617 x          0.000000      0.000353     0.000353    Cartesian    0.00
    617 y         11.762026     11.759382    -0.002644    Cartesian   -0.02
    617 z         15.682702     15.678846    -0.003856    Cartesian   -0.02
    618 x          0.000000      0.000075     0.000075    Cartesian    0.00
    618 y          0.000000      0.000000     0.000000    Cartesian    0.00
    618 z         19.603377     19.597381    -0.005997    Cartesian   -0.03
    619 x         21.563715     21.560388    -0.003327    Cartesian   -0.02
    619 y          5.881013      5.879855    -0.001158    Cartesian   -0.02
    619 z         -1.960338     -1.959737     0.000600    Cartesian   -0.03
    620 x          9.801689      9.800510    -0.001179    Cartesian   -0.01
    620 y          5.881013      5.879877    -0.001136    Cartesian   -0.02
    620 z         17.643040     17.640409    -0.002630    Cartesian   -0.01
    621 x         -1.960338     -1.959556     0.000782    Cartesian   -0.04
    621 y         13.722364     13.720808    -0.001556    Cartesian   -0.01
    621 z         13.722364     13.720808    -0.001556    Cartesian   -0.01
--------------------------------------------------------------------------------


  Time to end of optimisation  =       90.2242 seconds


  Peak dynamic memory used =    1719.07 MB 


  Timing analysis for GULP :

--------------------------------------------------------------------------------
  Task / Subroutine                                          Time (Seconds)
--------------------------------------------------------------------------------
  Calculation of reciprocal space energy and derivatives          0.0004
  Calculation of reciprocal space energy using symmetry           0.0003
  Calculation of real space energy and derivatives                0.0020
  Calculation of real space energy using symmetry                 0.0038
  Calculation for region 1 energy and derivatives (2-b)          48.9712
  Calculation for region 2a energy                               12.8963
  Calculation for region 2b energy                                0.0024
  Calculation and manipulation of Hessian matrix                 25.4617
  Calculation of matrix inversion                                 2.0309
  Symmetry generation of equivalent positions                     0.0017
--------------------------------------------------------------------------------
  Total CPU time                                                 90.2242
--------------------------------------------------------------------------------


  Dump file written as Li3OCl.grs


  Job Finished at 13:23.58 21st October    2020                               

