********************************************************************************
*                       GENERAL UTILITY LATTICE PROGRAM                        *
*                                 Julian Gale                                  *
*                       Curtin Institute for Computation                       *
*                    School of Molecular and Life Sciences                     *
*                    Curtin University, Western Australia                      *
********************************************************************************
* Version = 5.2.0 * Last modified =  10th September 2020                       *
********************************************************************************
*  optimise     - perform optimisation run                                     *
*  conp         - constant pressure calculation                                *
*  property     - calculate properties for final geometry                      *
*  defect       - perform defect calculation after bulk run                    *
*  compare      - compare initial and final structures                         *
********************************************************************************

  Job Started  at 13:29.32 21st October    2020                               

  Number of CPUs =     1


  Total number of configurations input =      1

********************************************************************************
*  Input for Configuration =   1                                               *
********************************************************************************

  Formula = ClOLi3                                                      

  Number of irreducible atoms/shells =       5


  Total number atoms/shells =       7

  Dimensionality = 3               :  Bulk   


  Symmetry :

  Crystal family                   :  Cubic       
  Crystal class  (Groth - 1921)    :  Cubic Hexakisoctahedral              

  Space group (centrosymmetric)    :  P M 3 M         

  Patterson group                  :  P m -3 m 

  Cartesian lattice vectors (Angstroms) :

        3.918873    0.000000    0.000000
        0.000000    3.918873    0.000000
        0.000000    0.000000    3.918873

  Cell parameters (Angstroms/Degrees):

  a =       3.9189    alpha =  90.0000
  b =       3.9189    beta  =  90.0000
  c =       3.9189    gamma =  90.0000

  Initial cell volume =          60.184349 Angs**3

  Temperature of configuration =   0.00     K 

  Pressure of configuration =         0.000 GPa 

  Fractional coordinates of asymmetric unit :

--------------------------------------------------------------------------------
   No.  Atomic       x           y          z         Charge      Occupancy
        Label      (Frac)      (Frac)     (Frac)        (e)         (Frac)  
--------------------------------------------------------------------------------
      1 Cl    c    0.000000    0.000000    0.000000     1.48500    1.000000    
      2 O     c    0.500000    0.500000    0.500000     0.18300    1.000000    
      3 Li    c    0.500000    0.500000    0.000000     1.00000    1.000000    
      4 Cl    s    0.000000    0.000000    0.000000    -2.48500    1.000000    
      5 O     s    0.500000    0.500000    0.500000    -2.18300    1.000000    
--------------------------------------------------------------------------------


  Constraints : 

--------------------------------------------------------------------------------
  Constraint no.      Unconstrained     Constrained    Coefficient    Offset
                         Variable         Variable
--------------------------------------------------------------------------------
           1              Strain 1        Strain 2       1.00000      0.0000
           2              Strain 1        Strain 3       1.00000      0.0000
--------------------------------------------------------------------------------


********************************************************************************
*  General input information                                                   *
********************************************************************************

  Species output for all configurations : 

--------------------------------------------------------------------------------
  Species    Type    Atomic    Atomic    Charge       Radii (Angs)     Library
                     Number     Mass       (e)     Cova   Ionic  VDW   Symbol
--------------------------------------------------------------------------------
    Li       Core        3       6.94   1.000000   0.680  0.000  1.800          
    O        Core        8      16.00   0.183000   0.730  0.000  1.360          
    O        Shell       8       0.00  -2.183000   0.730  0.000  1.360          
    Cl       Core       17      35.45   1.485000   0.990  0.000  1.650          
    Cl       Shell      17       0.00  -2.485000   0.990  0.000  1.650          
--------------------------------------------------------------------------------


  Lattice summation method               =    Ewald          (3-D)
                                         =    Parry          (2-D)
                                         =    Saunders et al (1-D)
  Accuracy factor for lattice sums       =   12.000


  Analytic derivatives to be used

  Time limit = Infinity

  Maximum range for interatomic potentials =    100000.000000 Angstroms

  General interatomic potentials :

--------------------------------------------------------------------------------
Atom  Types   Potential      Parameter       Value         Units   Cutoffs(Ang)
  1     2                                                            Min /  Max 
--------------------------------------------------------------------------------
O    c O    s Spring (c-s)  Spring k 2       593.72000    eV*Ang^-2 0.000  0.800
                            Spring k 4       0.0000000    eV*Ang^-4 
--------------------------------------------------------------------------------
Cl   c Cl   s Spring (c-s)  Spring k 2       29.380000    eV*Ang^-2 0.000  0.800
                            Spring k 4       0.0000000    eV*Ang^-4 
--------------------------------------------------------------------------------
Li   c Li   c Buckingham    Buckingham A     360.53000    eV        0.000 12.000
                            Buckingham rho  0.16100000    Ang       
                            Buckingham C     0.0000000    eV*Ang^6  
--------------------------------------------------------------------------------
Li   c O    s Buckingham    Buckingham A     292.30000    eV        0.000 12.000
                            Buckingham rho  0.34720000    Ang       
                            Buckingham C     0.0000000    eV*Ang^6  
--------------------------------------------------------------------------------
Li   c Cl   s Buckingham    Buckingham A     421.04000    eV        0.000 12.000
                            Buckingham rho  0.33400000    Ang       
                            Buckingham C     0.0000000    eV*Ang^6  
--------------------------------------------------------------------------------
O    s O    s Buckingham    Buckingham A     22764.300    eV        0.000 12.000
                            Buckingham rho  0.14900000    Ang       
                            Buckingham C     13.190000    eV*Ang^6  
--------------------------------------------------------------------------------
O    s Cl   s Buckingham    Buckingham A     8286.9100    eV        0.000 12.000
                            Buckingham rho  0.25900000    Ang       
                            Buckingham C     62.200000    eV*Ang^6  
--------------------------------------------------------------------------------
Cl   s Cl   s Buckingham    Buckingham A     1227.2000    eV        0.000 12.000
                            Buckingham rho  0.32100000    Ang       
                            Buckingham C     14.530000    eV*Ang^6  
--------------------------------------------------------------------------------

********************************************************************************
*  Output for configuration   1                                                *
********************************************************************************


  Components of energy : 

--------------------------------------------------------------------------------
  Interatomic potentials     =           7.26836263 eV    
  Monopole - monopole (real) =         -11.53475722 eV    
  Monopole - monopole (recip)=         -33.94580548 eV    
  Monopole - monopole (total)=         -45.48056271 eV    
--------------------------------------------------------------------------------
  Total lattice energy       =         -38.21220008 eV    
--------------------------------------------------------------------------------
  Total lattice energy       =           -3686.8932 kJ/(mole unit cells)
--------------------------------------------------------------------------------


  Number of variables =        1

  Maximum number of calculations  =          1000
  Maximum Hessian update interval =            10
  Maximum step size               =   1.000000000
  Maximum parameter tolerance     =   0.000010000
  Maximum function  tolerance     =   0.000010000
  Maximum gradient  tolerance     =   0.001000000
  Maximum gradient  component     =   0.010000000

  Symmetry constrained optimisation

  Symmetry used for second derivatives

  Cell parameters to be optimised using strains

  Newton-Raphson optimiser to be used

  BFGS hessian update to be used

  Lower half triangular hessian to be used

  Start of bulk optimisation :

  Cycle:      0 Energy:       -38.212200  Gnorm:      0.095699  CPU:    0.005
  ** Hessian calculated **
  Cycle:      1 Energy:       -38.212222  Gnorm:      0.000105  CPU:    0.007


  **** Optimisation achieved ****


  Final energy =     -38.21222207 eV
  Final Gnorm  =       0.00000016

  Components of energy : 

--------------------------------------------------------------------------------
  Interatomic potentials     =           7.24743141 eV    
  Monopole - monopole (real) =         -11.52945423 eV    
  Monopole - monopole (recip)=         -33.93019924 eV    
  Monopole - monopole (total)=         -45.45965348 eV    
--------------------------------------------------------------------------------
  Total lattice energy       =         -38.21222207 eV    
--------------------------------------------------------------------------------
  Total lattice energy       =           -3686.8953 kJ/(mole unit cells)
--------------------------------------------------------------------------------

  Final asymmetric unit coordinates :

--------------------------------------------------------------------------------
   No.  Atomic        x           y           z         Radius
        Label       (Frac)      (Frac)      (Frac)       (Angs) 
--------------------------------------------------------------------------------
     1  Cl    c     0.000000    0.000000    0.000000    0.000000
     2  O     c     0.500000    0.500000    0.500000    0.000000
     3  Li    c     0.500000    0.500000    0.000000    0.000000
     4  Cl    s     0.000000    0.000000    0.000000    0.000000
     5  O     s     0.500000    0.500000    0.500000    0.000000
--------------------------------------------------------------------------------

  Final Cartesian lattice vectors (Angstroms) :

        3.920675    0.000000    0.000000
        0.000000    3.920675    0.000000
        0.000000    0.000000    3.920675


  Final cell parameters and derivatives :

--------------------------------------------------------------------------------
       a            3.920675 Angstrom     dE/de1(xx)    -0.000000 eV/strain
       b            3.920675 Angstrom     dE/de2(yy)     0.000000 eV/strain
       c            3.920675 Angstrom     dE/de3(zz)     0.000000 eV/strain
       alpha       90.000000 Degrees      dE/de4(yz)     0.000000 eV/strain
       beta        90.000000 Degrees      dE/de5(xz)     0.000000 eV/strain
       gamma       90.000000 Degrees      dE/de6(xy)     0.000000 eV/strain
--------------------------------------------------------------------------------

  Primitive cell volume =            60.267433 Angs**3

  Density of cell =      1.991276 g/cm**3

  Non-primitive cell volume =            60.267433 Angs**3


  Final internal derivatives :

--------------------------------------------------------------------------------
   No.  Atomic          a             b             c           Radius
        Label          (eV)          (eV)          (eV)        (eV/Angs)
--------------------------------------------------------------------------------
      1 Cl    c       0.000000      0.000000      0.000000      0.000000
      2 O     c       0.000000      0.000000      0.000000      0.000000
      3 Li    c       0.000000      0.000000      0.000000      0.000000
      4 Cl    s       0.000000      0.000000      0.000000      0.000000
      5 O     s       0.000000      0.000000      0.000000      0.000000
--------------------------------------------------------------------------------
  Maximum abs         0.000000      0.000000      0.000000      0.000000
--------------------------------------------------------------------------------

  Comparison of initial and final structures : 

--------------------------------------------------------------------------------
  Parameter   Initial value   Final value   Difference    Units      Percent
--------------------------------------------------------------------------------
    Volume        60.184349     60.267433     0.083084    Angs**3      0.14
    a              3.918873      3.920675     0.001802    Angstroms    0.05
    b              3.918873      3.920675     0.001802    Angstroms    0.05
    c              3.918873      3.920675     0.001802    Angstroms    0.05
    alpha         90.000000     90.000000     0.000000    Degrees      0.00
    beta          90.000000     90.000000     0.000000    Degrees      0.00
    gamma         90.000000     90.000000     0.000000    Degrees      0.00
      1 x          0.000000      0.000000     0.000000    Fractional   0.00
      1 y          0.000000      0.000000     0.000000    Fractional   0.00
      1 z          0.000000      0.000000     0.000000    Fractional   0.00
      2 x          0.500000      0.500000     0.000000    Fractional   0.00
      2 y          0.500000      0.500000     0.000000    Fractional   0.00
      2 z          0.500000      0.500000     0.000000    Fractional   0.00
      3 x          0.500000      0.500000     0.000000    Fractional   0.00
      3 y          0.500000      0.500000     0.000000    Fractional   0.00
      3 z          0.000000      0.000000     0.000000    Fractional   0.00
      4 x          0.000000      0.000000     0.000000    Fractional   0.00
      4 y          0.000000      0.000000     0.000000    Fractional   0.00
      4 z          0.000000      0.000000     0.000000    Fractional   0.00
      5 x          0.500000      0.500000     0.000000    Fractional   0.00
      5 y          0.500000      0.500000     0.000000    Fractional   0.00
      5 z          0.500000      0.500000     0.000000    Fractional   0.00
--------------------------------------------------------------------------------


  Born effective charge tensors : 

-------------------------------------------------------------------------------
  Atom             x           y             z
-------------------------------------------------------------------------------
    1 Cl    x      -0.9489     -0.0000     -0.0000
            y      -0.0000     -0.9489     -0.0000
            z      -0.0000     -0.0000     -0.9489
-------------------------------------------------------------------------------
    2 O     x      -2.4688      0.0000      0.0000
            y       0.0000     -2.4688      0.0000
            z       0.0000      0.0000     -2.4688
-------------------------------------------------------------------------------
    3 Li    x       1.3129      0.0000     -0.0000
            y       0.0000      1.3129      0.0000
            z      -0.0000      0.0000      0.7919
-------------------------------------------------------------------------------




  Elastic Constant Matrix: (Units=GPa)

-------------------------------------------------------------------------------
  Indices      1         2         3         4         5         6    
-------------------------------------------------------------------------------
       1     94.3368   44.9178   44.9178    0.0000   -0.0000    0.0000
       2     44.9178   94.3368   44.9178   -0.0000    0.0000   -0.0000
       3     44.9178   44.9178   94.3368    0.0000   -0.0000    0.0000
       4      0.0000   -0.0000    0.0000   44.9178   -0.0000    0.0000
       5     -0.0000    0.0000   -0.0000   -0.0000   44.9178    0.0000
       6      0.0000   -0.0000    0.0000    0.0000    0.0000   44.9178
-------------------------------------------------------------------------------


  Elastic Compliance Matrix: (Units=1/GPa)

-------------------------------------------------------------------------------
  Indices      1         2         3         4         5         6    
-------------------------------------------------------------------------------
       1    0.015300 -0.004935 -0.004935 -0.000000  0.000000 -0.000000
       2   -0.004935  0.015300 -0.004935  0.000000 -0.000000  0.000000
       3   -0.004935 -0.004935  0.015300 -0.000000  0.000000 -0.000000
       4   -0.000000  0.000000 -0.000000  0.022263  0.000000 -0.000000
       5    0.000000 -0.000000  0.000000  0.000000  0.022263 -0.000000
       6   -0.000000  0.000000 -0.000000 -0.000000 -0.000000  0.022263
-------------------------------------------------------------------------------

  Mechanical properties :

-------------------------------------------------------------------------------
  Convention :                    Reuss         Voigt         Hill
-------------------------------------------------------------------------------
  Bulk  Modulus (GPa)     =      61.39080      61.39080      61.39080
  Shear Modulus (GPa)     =      33.84570      36.83448      35.34009
-------------------------------------------------------------------------------
  Velocity S-wave (km/s)  =       4.12274       4.30092       4.21277
  Velocity P-wave (km/s)  =       7.31386       7.44942       7.38195
-------------------------------------------------------------------------------
  Compressibility (1/GPa) =    0.01628909
-------------------------------------------------------------------------------
  Stress axis :                     x             y             z
-------------------------------------------------------------------------------
  Youngs Moduli (GPa)     =      65.35947      65.35947      65.35947
-------------------------------------------------------------------------------
  Poissons Ratio (x)      =                     0.32256       0.32256
  Poissons Ratio (y)      =       0.32256                     0.32256
  Poissons Ratio (z)      =       0.32256       0.32256
-------------------------------------------------------------------------------


  Piezoelectric Strain Matrix: (Units=C/m**2)

-------------------------------------------------------------------------------
  Indices      1         2         3         4         5         6    
-------------------------------------------------------------------------------
       x    -0.00000   0.00000   0.00000  -0.00000  -0.00000   0.00000
       y    -0.00000   0.00000   0.00000  -0.00000  -0.00000  -0.00000
       z     0.00000   0.00000   0.00000   0.00000  -0.00000  -0.00000
-------------------------------------------------------------------------------


  Piezoelectric Stress Matrix: (Units=10**-11 C/N)

-------------------------------------------------------------------------------
  Indices      1         2         3         4         5         6    
-------------------------------------------------------------------------------
       x    -0.00000   0.00000   0.00000  -0.00000  -0.00000   0.00000
       y    -0.00000   0.00000   0.00000  -0.00000  -0.00000  -0.00000
       z    -0.00000  -0.00000   0.00000   0.00000  -0.00000  -0.00000
-------------------------------------------------------------------------------


  Static dielectric constant tensor : 

-------------------------------------------------------------------------------
              x         y         z
-------------------------------------------------------------------------------
       x    12.11703   0.00000  -0.00000
       y     0.00000  12.11703  -0.00000
       z    -0.00000  -0.00000  12.11703
--------------------------------------------------------------------------------

  High frequency dielectric constant tensor : 

-------------------------------------------------------------------------------
              x         y         z
-------------------------------------------------------------------------------
       x     1.74104   0.00000   0.00000
       y     0.00000   1.74104   0.00000
       z     0.00000   0.00000   1.74104
-------------------------------------------------------------------------------

  Static refractive indices : 

-------------------------------------------------------------------------------
    1 =    3.48095      2 =    3.48095      3 =    3.48095
-------------------------------------------------------------------------------

  High frequency refractive indices : 

-------------------------------------------------------------------------------
    1 =    1.31948      2 =    1.31948      3 =    1.31948
-------------------------------------------------------------------------------


  Time to end of optimisation =       0.0111 seconds

********************************************************************************
*  Defect calculation for configuration   1 :                                  *
********************************************************************************

  Total number of defects =      3

  Total charge on defect  =   1.00

  Defect centre is at   3.7229   0.0000   0.0000  Angs

  Region 1 radius =  20.0000      Number of ions =   3868

  Number of symmetry inequivalent region 1 ions  =    626

  Region 2 radius =  24.0000      Number of ions =   2880

  Number of symmetry inequivalent region 2a ions =    421

  Region 2a mode = 4 : screened electrostatics due to region 1 
                       neglect correction to region 1 forces from 2a
                       region 2a displacements based on defects only

  Region 2a ions will only interact with defects in region 1

  Vacancies:

--------------------------------------------------------------------------------
    Specification type     Symbol/Number         x          y          z
--------------------------------------------------------------------------------
    Cartesian                                0.000000   0.000000   0.000000
    Cartesian                                3.918873   0.000000   0.000000
--------------------------------------------------------------------------------

  Interstitials:

--------------------------------------------------------------------------------
    Specification type     Symbol/Number         x          y          z
--------------------------------------------------------------------------------
    Atom/Cartesian          Cl               3.722929   0.000000   0.000000
--------------------------------------------------------------------------------


  Symmetry reduced region 1 (Relative to defect centre) :

--------------------------------------------------------------------------------
   No.   Atomic       x            y             z       Radius  Multiplicity   
         Label      (Angs)       (Angs)        (Angs)    (Angs)     
--------------------------------------------------------------------------------
     1  Cl    c      0.0000       0.0000       0.0000    0.0000     1    Defect
     2  Li    c     -1.7626 *    -1.9603 *     0.0000    0.0000     4          
     3  Li    c      0.1977 *     1.9603 *     1.9603    0.0000     4          
     4  Li    c      2.1581 *    -1.9603 *     0.0000    0.0000     4          
     5  O     c     -1.7626 *    -1.9603 *    -1.9603    0.0000     4          
     6  O     c      2.1581 *    -1.9603 *    -1.9603    0.0000     4          
     7  Cl    c      0.1977 *     0.0000       3.9207 *  0.0000     4          
     8  Cl    c      4.1184 *     0.0000       0.0000    0.0000     1          
     9  Li    c     -3.7229 *     1.9603 *     1.9603    0.0000     4          
    10  Li    c     -1.7626 *    -1.9603 *     3.9207 *  0.0000     8          
    11  Li    c      2.1581 *    -1.9603 *     3.9207 *  0.0000     8          
    12  Li    c      4.1184 *     1.9603 *     1.9603    0.0000     4          
    13  Cl    c     -3.7229 *     0.0000       3.9207 *  0.0000     4          
    14  Cl    c      0.1977 *     3.9207 *     3.9207    0.0000     4          
    15  Cl    c      4.1184 *     0.0000       3.9207 *  0.0000     4          
    16  Li    c     -5.6833 *    -1.9603 *     0.0000    0.0000     4          
    17  Li    c     -1.7626 *     5.8810 *     0.0000    0.0000     4          
    18  Li    c      0.1977 *     1.9603 *     5.8810 *  0.0000     8          
    19  Li    c      2.1581 *     5.8810 *     0.0000    0.0000     4          
    20  O     c     -5.6833 *    -1.9603 *    -1.9603    0.0000     4          
    21  Li    c      6.0788 *    -1.9603 *     0.0000    0.0000     4          
    22  O     c     -1.7626 *    -1.9603 *     5.8810 *  0.0000     8          
    23  O     c      2.1581 *    -1.9603 *     5.8810 *  0.0000     8          
    24  Cl    c     -3.7229 *     3.9207 *     3.9207    0.0000     4          
    25  O     c      6.0788 *    -1.9603 *    -1.9603    0.0000     4          
    26  Cl    c      4.1184 *     3.9207 *     3.9207    0.0000     4          
    27  Li    c     -5.6833 *    -1.9603 *     3.9207 *  0.0000     8          
    28  Li    c     -3.7229 *     1.9603 *     5.8810 *  0.0000     8          
    29  Li    c     -1.7626 *     5.8810 *     3.9207 *  0.0000     8          
    30  Li    c      2.1581 *     5.8810 *     3.9207 *  0.0000     8          
    31  Li    c      4.1184 *     1.9603 *     5.8810 *  0.0000     8          
    32  Li    c      6.0788 *    -1.9603 *     3.9207 *  0.0000     8          
    33  Cl    c     -7.6436 *     0.0000       0.0000    0.0000     1          
    34  Cl    c      0.1977 *     0.0000       7.8414 *  0.0000     4          
    35  Cl    c      8.0391 *     0.0000       0.0000    0.0000     1          
    36  Li    c     -7.6436 *     1.9603 *     1.9603    0.0000     4          
    37  Li    c     -5.6833 *     5.8810 *     0.0000    0.0000     4          
    38  Li    c     -1.7626 *    -1.9603 *     7.8414 *  0.0000     8          
    39  Li    c      0.1977 *     5.8810 *     5.8810    0.0000     4          
    40  Li    c      2.1581 *    -1.9603 *     7.8414 *  0.0000     8          
    41  O     c     -5.6833 *    -1.9603 *     5.8810 *  0.0000     8          
    42  Li    c      6.0788 *     5.8810 *     0.0000    0.0000     4          
    43  O     c     -1.7626 *     5.8810 *     5.8810    0.0000     4          
    44  Li    c      8.0391 *     1.9603 *     1.9603    0.0000     4          
    45  Cl    c     -7.6436 *     0.0000       3.9207 *  0.0000     4          
    46  O     c      2.1581 *     5.8810 *     5.8810    0.0000     4          
    47  Cl    c     -3.7229 *     0.0000       7.8414 *  0.0000     4          
    48  O     c      6.0788 *    -1.9603 *     5.8810 *  0.0000     8          
    49  Cl    c      0.1977 *     3.9207 *     7.8414 *  0.0000     8          
    50  Cl    c      4.1184 *     0.0000       7.8414 *  0.0000     4          
    51  Cl    c      8.0391 *     0.0000       3.9207 *  0.0000     4          
    52  Li    c     -5.6833 *     3.9207 *     5.8810 *  0.0000     8          
    53  Li    c     -3.7229 *     5.8810 *     5.8810    0.0000     4          
    54  Li    c      4.1184 *     5.8810 *     5.8810    0.0000     4          
    55  Li    c      6.0788 *     5.8810 *     3.9207 *  0.0000     8          
    56  Cl    c     -7.6436 *     3.9207 *     3.9207    0.0000     4          
    57  Cl    c     -3.7229 *     3.9207 *     7.8414 *  0.0000     8          
    58  Cl    c      4.1184 *     3.9207 *     7.8414 *  0.0000     8          
    59  Cl    c      8.0391 *     3.9207 *     3.9207    0.0000     4          
    60  Li    c     -9.6039 *    -1.9603 *     0.0000    0.0000     4          
    61  Li    c     -7.6436 *     1.9603 *     5.8810 *  0.0000     8          
    62  Li    c     -5.6833 *    -1.9603 *     7.8414 *  0.0000     8          
    63  Li    c     -1.7626 *     7.8414 *     5.8810 *  0.0000     8          
    64  Li    c     -1.7626 *     9.8017 *     0.0000    0.0000     4          
    65  O     c     -9.6039 *    -1.9603 *    -1.9603    0.0000     4          
    66  Li    c      0.1977 *     1.9603 *     9.8017 *  0.0000     8          
    67  Li    c      2.1581 *     5.8810 *     7.8414 *  0.0000     8          
    68  Li    c      2.1581 *     9.8017 *     0.0000    0.0000     4          
    69  O     c     -5.6833 *     5.8810 *     5.8810    0.0000     4          
    70  Li    c      6.0788 *    -1.9603 *     7.8414 *  0.0000     8          
    71  O     c     -1.7626 *    -1.9603 *     9.8017 *  0.0000     8          
    72  Li    c      8.0391 *     1.9603 *     5.8810 *  0.0000     8          
    73  Li    c      9.9994 *    -1.9603 *     0.0000    0.0000     4          
    74  O     c      2.1581 *    -1.9603 *     9.8017 *  0.0000     8          
    75  O     c      6.0788 *     5.8810 *     5.8810    0.0000     4          
    76  O     c      9.9994 *    -1.9603 *    -1.9603    0.0000     4          
    77  Li    c     -9.6039 *    -1.9603 *     3.9207 *  0.0000     8          
    78  Li    c     -3.7229 *     1.9603 *     9.8017 *  0.0000     8          
    79  Li    c     -1.7626 *     9.8017 *     3.9207 *  0.0000     8          
    80  Li    c      2.1581 *     3.9207 *     9.8017 *  0.0000     8          
    81  Li    c      4.1184 *     1.9603 *     9.8017 *  0.0000     8          
    82  Li    c      9.9994 *    -1.9603 *     3.9207 *  0.0000     8          
    83  Cl    c     -7.6436 *     0.0000       7.8414 *  0.0000     4          
    84  Cl    c      0.1977 *     7.8414 *     7.8414    0.0000     4          
    85  Cl    c      8.0391 *     0.0000       7.8414 *  0.0000     4          
    86  Li    c     -9.6039 *     5.8810 *     0.0000    0.0000     4          
    87  Li    c     -7.6436 *     5.8810 *     5.8810    0.0000     4          
    88  Li    c     -5.6833 *     5.8810 *     7.8414 *  0.0000     8          
    89  Li    c     -5.6833 *     9.8017 *     0.0000    0.0000     4          
    90  O     c     -9.6039 *    -1.9603 *     5.8810 *  0.0000     8          
    91  Li    c      0.1977 *     5.8810 *     9.8017 *  0.0000     8          
    92  O     c     -5.6833 *    -1.9603 *     9.8017 *  0.0000     8          
    93  Li    c      6.0788 *     5.8810 *     7.8414 *  0.0000     8          
    94  Li    c      6.0788 *     9.8017 *     0.0000    0.0000     4          
    95  Cl    c    -11.5643 *     0.0000       0.0000    0.0000     1          
    96  O     c     -1.7626 *     5.8810 *     9.8017 *  0.0000     8          
    97  Li    c      8.0391 *     5.8810 *     5.8810    0.0000     4          
    98  Li    c      9.9994 *     5.8810 *     0.0000    0.0000     4          
    99  Cl    c     -7.6436 *     3.9207 *     7.8414 *  0.0000     8          
   100  O     c      2.1581 *     5.8810 *     9.8017 *  0.0000     8          
   101  Cl    c     -3.7229 *     7.8414 *     7.8414    0.0000     4          
   102  O     c      6.0788 *     9.8017 *    -1.9603 *  0.0000     8          
   103  Cl    c      0.1977 *     0.0000      11.7620 *  0.0000     4          
   104  O     c      9.9994 *     5.8810 *    -1.9603 *  0.0000     8          
   105  Cl    c      4.1184 *     7.8414 *     7.8414    0.0000     4          
   106  Li    c    -11.5643 *     1.9603 *     1.9603    0.0000     4          
   107  Cl    c      8.0391 *     3.9207 *     7.8414 *  0.0000     8          
   108  Li    c     -9.6039 *     5.8810 *     3.9207 *  0.0000     8          
   109  Cl    c     11.9598 *     0.0000       0.0000    0.0000     1          
   110  Li    c     -5.6833 *     9.8017 *     3.9207 *  0.0000     8          
   111  Li    c     -3.7229 *     5.8810 *     9.8017 *  0.0000     8          
   112  Li    c     -1.7626 *    11.7620 *    -1.9603 *  0.0000     8          
   113  Li    c      2.1581 *    -1.9603 *    11.7620 *  0.0000     8          
   114  Li    c      4.1184 *     5.8810 *     9.8017 *  0.0000     8          
   115  Li    c      6.0788 *     9.8017 *     3.9207 *  0.0000     8          
   116  Cl    c    -11.5643 *     0.0000       3.9207 *  0.0000     4          
   117  Li    c      9.9994 *     5.8810 *     3.9207 *  0.0000     8          
   118  Li    c     11.9598 *     1.9603 *     1.9603    0.0000     4          
   119  Cl    c     -3.7229 *     0.0000      11.7620 *  0.0000     4          
   120  Cl    c      0.1977 *     3.9207 *    11.7620 *  0.0000     8          
   121  Cl    c      4.1184 *     0.0000      11.7620 *  0.0000     4          
   122  Li    c     -9.6039 *     7.8414 *    -1.9603 *  0.0000     8          
   123  Li    c     -7.6436 *     1.9603 *     9.8017 *  0.0000     8          
   124  Cl    c     11.9598 *     0.0000       3.9207 *  0.0000     4          
   125  Li    c     -1.7626 *     9.8017 *     7.8414 *  0.0000     8          
   126  O     c     -9.6039 *     5.8810 *     5.8810    0.0000     4          
   127  Li    c      2.1581 *     9.8017 *     7.8414 *  0.0000     8          
   128  O     c     -5.6833 *     5.8810 *     9.8017 *  0.0000     8          
   129  Cl    c    -11.5643 *     3.9207 *     3.9207    0.0000     4          
   130  Li    c      8.0391 *     1.9603 *     9.8017 *  0.0000     8          
   131  Li    c      9.9994 *    -1.9603 *     7.8414 *  0.0000     8          
   132  Cl    c     -3.7229 *     3.9207 *    11.7620 *  0.0000     8          
   133  O     c      6.0788 *     5.8810 *     9.8017 *  0.0000     8          
   134  O     c      9.9994 *     5.8810 *     5.8810    0.0000     4          
   135  Cl    c      4.1184 *    11.7620 *     3.9207 *  0.0000     8          
   136  Li    c    -11.5643 *     1.9603 *     5.8810 *  0.0000     8          
   137  Cl    c     11.9598 *     3.9207 *     3.9207    0.0000     4          
   138  Li    c     -5.6833 *    -1.9603 *    11.7620 *  0.0000     8          
   139  Li    c     -1.7626 *     5.8810 *    11.7620 *  0.0000     8          
   140  Li    c      2.1581 *     5.8810 *    11.7620 *  0.0000     8          
   141  Li    c      6.0788 *    -1.9603 *    11.7620 *  0.0000     8          
   142  Cl    c     -7.6436 *     7.8414 *     7.8414    0.0000     4          
   143  Li    c     11.9598 *     1.9603 *     5.8810 *  0.0000     8          
   144  Li    c    -13.5246 *    -1.9603 *     0.0000    0.0000     4          
   145  Cl    c      8.0391 *     7.8414 *     7.8414    0.0000     4          
   146  Li    c     -9.6039 *     5.8810 *     7.8414 *  0.0000     8          
   147  Li    c     -9.6039 *     9.8017 *     0.0000    0.0000     4          
   148  Li    c     -7.6436 *     5.8810 *     9.8017 *  0.0000     8          
   149  Li    c     -5.6833 *     9.8017 *     7.8414 *  0.0000     8          
   150  O     c    -13.5246 *    -1.9603 *    -1.9603    0.0000     4          
   151  Li    c     -1.7626 *    13.7224 *     0.0000    0.0000     4          
   152  O     c     -9.6039 *    -1.9603 *     9.8017 *  0.0000     8          
   153  Li    c      0.1977 *     1.9603 *    13.7224 *  0.0000     8          
   154  Li    c      0.1977 *     9.8017 *     9.8017    0.0000     4          
   155  Li    c      2.1581 *    13.7224 *     0.0000    0.0000     4          
   156  Li    c      6.0788 *     9.8017 *     7.8414 *  0.0000     8          
   157  Cl    c    -11.5643 *     0.0000       7.8414 *  0.0000     4          
   158  O     c     -1.7626 *    13.7224 *    -1.9603 *  0.0000     8          
   159  O     c     -1.7626 *     9.8017 *     9.8017    0.0000     4          
   160  Li    c      8.0391 *     5.8810 *     9.8017 *  0.0000     8          
   161  Li    c      9.9994 *     5.8810 *     7.8414 *  0.0000     8          
   162  Li    c      9.9994 *     9.8017 *     0.0000    0.0000     4          
   163  Cl    c     -7.6436 *     0.0000      11.7620 *  0.0000     4          
   164  O     c      2.1581 *    -1.9603 *    13.7224 *  0.0000     8          
   165  O     c      2.1581 *     9.8017 *     9.8017    0.0000     4          
   166  Li    c     13.9201 *    -1.9603 *     0.0000    0.0000     4          
   167  Cl    c      0.1977 *     7.8414 *    11.7620 *  0.0000     8          
   168  O     c      9.9994 *     9.8017 *    -1.9603 *  0.0000     8          
   169  O     c     13.9201 *    -1.9603 *    -1.9603    0.0000     4          
   170  Li    c    -13.5246 *    -1.9603 *     3.9207 *  0.0000     8          
   171  Li    c    -11.5643 *     5.8810 *     5.8810    0.0000     4          
   172  Cl    c      8.0391 *     0.0000      11.7620 *  0.0000     4          
   173  Li    c     -9.6039 *     9.8017 *     3.9207 *  0.0000     8          
   174  Cl    c     11.9598 *     0.0000       7.8414 *  0.0000     4          
   175  Li    c     -5.6833 *     5.8810 *    11.7620 *  0.0000     8          
   176  Li    c     -3.7229 *     1.9603 *    13.7224 *  0.0000     8          
   177  Li    c     -3.7229 *     9.8017 *     9.8017    0.0000     4          
   178  Li    c     -1.7626 *    13.7224 *     3.9207 *  0.0000     8          
   179  Li    c      2.1581 *    13.7224 *     3.9207 *  0.0000     8          
   180  Li    c      4.1184 *    13.7224 *     1.9603 *  0.0000     8          
   181  Li    c      4.1184 *     9.8017 *     9.8017    0.0000     4          
   182  Li    c      6.0788 *     5.8810 *    11.7620 *  0.0000     8          
   183  Cl    c    -11.5643 *     3.9207 *     7.8414 *  0.0000     8          
   184  Li    c      9.9994 *     9.8017 *     3.9207 *  0.0000     8          
   185  Cl    c     -7.6436 *     3.9207 *    11.7620 *  0.0000     8          
   186  Li    c     11.9598 *     5.8810 *     5.8810    0.0000     4          
   187  Li    c     13.9201 *    -1.9603 *     3.9207 *  0.0000     8          
   188  Cl    c     -3.7229 *     7.8414 *    11.7620 *  0.0000     8          
   189  Cl    c      4.1184 *    11.7620 *     7.8414 *  0.0000     8          
   190  Li    c    -13.5246 *     5.8810 *     0.0000    0.0000     4          
   191  Cl    c      8.0391 *    11.7620 *     3.9207 *  0.0000     8          
   192  Cl    c     11.9598 *     3.9207 *     7.8414 *  0.0000     8          
   193  Li    c     -5.6833 *    13.7224 *     0.0000    0.0000     4          
   194  O     c    -13.5246 *    -1.9603 *     5.8810 *  0.0000     8          
   195  O     c     -9.6039 *     5.8810 *     9.8017 *  0.0000     8          
   196  Li    c      0.1977 *     5.8810 *    13.7224 *  0.0000     8          
   197  O     c     -5.6833 *    -1.9603 *    13.7224 *  0.0000     8          
   198  O     c     -5.6833 *     9.8017 *     9.8017    0.0000     4          
   199  Li    c      6.0788 *    13.7224 *     0.0000    0.0000     4          
   200  O     c     -1.7626 *    13.7224 *     5.8810 *  0.0000     8          
   201  O     c      2.1581 *     5.8810 *    13.7224 *  0.0000     8          
   202  Li    c     13.9201 *     5.8810 *     0.0000    0.0000     4          
   203  O     c      6.0788 *    13.7224 *    -1.9603 *  0.0000     8          
   204  O     c      6.0788 *     9.8017 *     9.8017    0.0000     4          
   205  O     c      9.9994 *     5.8810 *     9.8017 *  0.0000     8          
   206  O     c     13.9201 *    -1.9603 *     5.8810 *  0.0000     8          
   207  Li    c    -13.5246 *     5.8810 *     3.9207 *  0.0000     8          
   208  Li    c    -11.5643 *     1.9603 *     9.8017 *  0.0000     8          
   209  Li    c     -9.6039 *    11.7620 *    -1.9603 *  0.0000     8          
   210  Li    c     -5.6833 *    13.7224 *     3.9207 *  0.0000     8          
   211  Li    c     -3.7229 *     5.8810 *    13.7224 *  0.0000     8          
   212  Li    c     -1.7626 *     9.8017 *    11.7620 *  0.0000     8          
   213  Li    c      2.1581 *     9.8017 *    11.7620 *  0.0000     8          
   214  Cl    c    -15.4850 *     0.0000       0.0000    0.0000     1          
   215  Li    c      4.1184 *     5.8810 *    13.7224 *  0.0000     8          
   216  Li    c      6.0788 *    13.7224 *     3.9207 *  0.0000     8          
   217  Li    c      9.9994 *    -1.9603 *    11.7620 *  0.0000     8          
   218  Li    c     11.9598 *     1.9603 *     9.8017 *  0.0000     8          
   219  Li    c     13.9201 *     5.8810 *     3.9207 *  0.0000     8          
   220  Cl    c      0.1977 *     0.0000      15.6827 *  0.0000     4          
   221  Li    c    -15.4850 *     1.9603 *     1.9603    0.0000     4          
   222  Li    c    -13.5246 *    -1.9603 *     7.8414 *  0.0000     8          
   223  Li    c     -9.6039 *     9.8017 *     7.8414 *  0.0000     8          
   224  Li    c     -7.6436 *     1.9603 *    13.7224 *  0.0000     8          
   225  Li    c     -7.6436 *     9.8017 *     9.8017    0.0000     4          
   226  O     c    -13.5246 *     5.8810 *     5.8810    0.0000     4          
   227  Cl    c     15.8804 *     0.0000       0.0000    0.0000     1          
   228  Li    c     -1.7626 *    15.6827 *    -1.9603 *  0.0000     8          
   229  Li    c     -1.7626 *    13.7224 *     7.8414 *  0.0000     8          
   230  Li    c      2.1581 *    -1.9603 *    15.6827 *  0.0000     8          
   231  Li    c      2.1581 *    13.7224 *     7.8414 *  0.0000     8          
   232  Cl    c    -15.4850 *     0.0000       3.9207 *  0.0000     4          
   233  O     c     -5.6833 *     5.8810 *    13.7224 *  0.0000     8          
   234  Cl    c    -11.5643 *     7.8414 *     7.8414    0.0000     4          
   235  Li    c      8.0391 *     1.9603 *    13.7224 *  0.0000     8          
   236  Li    c      8.0391 *     9.8017 *     9.8017    0.0000     4          
   237  Li    c      9.9994 *     9.8017 *     7.8414 *  0.0000     8          
   238  Cl    c     -7.6436 *     7.8414 *    11.7620 *  0.0000     8          
   239  Li    c     13.9201 *    -1.9603 *     7.8414 *  0.0000     8          
   240  Cl    c     -3.7229 *     0.0000      15.6827 *  0.0000     4          
   241  O     c      6.0788 *     5.8810 *    13.7224 *  0.0000     8          
   242  Li    c     15.8804 *     1.9603 *     1.9603    0.0000     4          
   243  Cl    c      0.1977 *     3.9207 *    15.6827 *  0.0000     8          
   244  Cl    c      4.1184 *     0.0000      15.6827 *  0.0000     4          
   245  O     c     13.9201 *     5.8810 *     5.8810    0.0000     4          
   246  Li    c    -11.5643 *     5.8810 *     9.8017 *  0.0000     8          
   247  Cl    c      8.0391 *     7.8414 *    11.7620 *  0.0000     8          
   248  Li    c     -9.6039 *     5.8810 *    11.7620 *  0.0000     8          
   249  Cl    c     11.9598 *     7.8414 *     7.8414    0.0000     4          
   250  Li    c     -5.6833 *     9.8017 *    11.7620 *  0.0000     8          
   251  Cl    c     15.8804 *     0.0000       3.9207 *  0.0000     4          
   252  Cl    c    -15.4850 *     3.9207 *     3.9207    0.0000     4          
   253  Li    c      6.0788 *     9.8017 *    11.7620 *  0.0000     8          
   254  Cl    c    -11.5643 *     0.0000      11.7620 *  0.0000     4          
   255  Li    c      9.9994 *     5.8810 *    11.7620 *  0.0000     8          
   256  Li    c     11.9598 *     5.8810 *     9.8017 *  0.0000     8          
   257  Cl    c     -3.7229 *     3.9207 *    15.6827 *  0.0000     8          
   258  Cl    c      0.1977 *    11.7620 *    11.7620    0.0000     4          
   259  Li    c    -15.4850 *     1.9603 *     5.8810 *  0.0000     8          
   260  Cl    c      4.1184 *     3.9207 *    15.6827 *  0.0000     8          
   261  Li    c    -13.5246 *     5.8810 *     7.8414 *  0.0000     8          
   262  Li    c    -13.5246 *     9.8017 *     0.0000    0.0000     4          
   263  Li    c     -9.6039 *    13.7224 *     0.0000    0.0000     4          
   264  Li    c     -7.6436 *     5.8810 *    13.7224 *  0.0000     8          
   265  Cl    c     11.9598 *     0.0000      11.7620 *  0.0000     4          
   266  Li    c     -5.6833 *    -1.9603 *    15.6827 *  0.0000     8          
   267  Li    c     -5.6833 *    13.7224 *     7.8414 *  0.0000     8          
   268  O     c    -13.5246 *    -1.9603 *     9.8017 *  0.0000     8          
   269  Cl    c     15.8804 *     3.9207 *     3.9207    0.0000     4          
   270  Li    c     -1.7626 *     5.8810 *    15.6827 *  0.0000     8          
   271  O     c     -9.6039 *    -1.9603 *    13.7224 *  0.0000     8          
   272  O     c     -9.6039 *     9.8017 *     9.8017    0.0000     4          
   273  Li    c      0.1977 *     9.8017 *    13.7224 *  0.0000     8          
   274  Li    c      2.1581 *     5.8810 *    15.6827 *  0.0000     8          
   275  Li    c      6.0788 *    -1.9603 *    15.6827 *  0.0000     8          
   276  Li    c      6.0788 *    13.7224 *     7.8414 *  0.0000     8          
   277  Cl    c    -11.5643 *     3.9207 *    11.7620 *  0.0000     8          
   278  O     c     -1.7626 *     9.8017 *    13.7224 *  0.0000     8          
   279  Li    c      8.0391 *     5.8810 *    13.7224 *  0.0000     8          
   280  Li    c      9.9994 *    13.7224 *     0.0000    0.0000     4          
   281  O     c      2.1581 *     9.8017 *    13.7224 *  0.0000     8          
   282  Li    c     13.9201 *     5.8810 *     7.8414 *  0.0000     8          
   283  Li    c     13.9201 *     9.8017 *     0.0000    0.0000     4          
   284  Cl    c     -3.7229 *    11.7620 *    11.7620    0.0000     4          
   285  Li    c     15.8804 *     1.9603 *     5.8810 *  0.0000     8          
   286  O     c      9.9994 *    -1.9603 *    13.7224 *  0.0000     8          
   287  O     c      9.9994 *     9.8017 *     9.8017    0.0000     4          
   288  Cl    c      4.1184 *    11.7620 *    11.7620    0.0000     4          
   289  O     c     13.9201 *    -1.9603 *     9.8017 *  0.0000     8          
   290  Li    c    -13.5246 *     3.9207 *     9.8017 *  0.0000     8          
   291  Li    c     -9.6039 *    13.7224 *     3.9207 *  0.0000     8          
   292  Cl    c     11.9598 *     3.9207 *    11.7620 *  0.0000     8          
   293  Li    c     -3.7229 *     9.8017 *    13.7224 *  0.0000     8          
   294  Cl    c    -15.4850 *     0.0000       7.8414 *  0.0000     4          
   295  Li    c      4.1184 *     9.8017 *    13.7224 *  0.0000     8          
   296  Li    c      9.9994 *    13.7224 *     3.9207 *  0.0000     8          
   297  Cl    c     -7.6436 *     0.0000      15.6827 *  0.0000     4          
   298  Li    c     13.9201 *     3.9207 *     9.8017 *  0.0000     8          
   299  Cl    c      0.1977 *     7.8414 *    15.6827 *  0.0000     8          
   300  Li    c    -17.4453 *    -1.9603 *     0.0000    0.0000     4          
   301  Li    c    -15.4850 *     5.8810 *     5.8810    0.0000     4          
   302  Cl    c      8.0391 *     0.0000      15.6827 *  0.0000     4          
   303  O     c    -17.4453 *    -1.9603 *    -1.9603    0.0000     4          
   304  Li    c     -5.6833 *     5.8810 *    15.6827 *  0.0000     8          
   305  O     c    -13.5246 *     5.8810 *     9.8017 *  0.0000     8          
   306  Cl    c     15.8804 *     0.0000       7.8414 *  0.0000     4          
   307  Li    c     -1.7626 *    17.6430 *     0.0000    0.0000     4          
   308  O     c     -9.6039 *     5.8810 *    13.7224 *  0.0000     8          
   309  Li    c      0.1977 *     1.9603 *    17.6430 *  0.0000     8          
   310  Li    c      2.1581 *    17.6430 *     0.0000    0.0000     4          
   311  Cl    c    -15.4850 *     3.9207 *     7.8414 *  0.0000     8          
   312  O     c     -5.6833 *     9.8017 *    13.7224 *  0.0000     8          
   313  Li    c      6.0788 *     5.8810 *    15.6827 *  0.0000     8          
   314  O     c     -1.7626 *    -1.9603 *    17.6430 *  0.0000     8          
   315  Cl    c     -7.6436 *     3.9207 *    15.6827 *  0.0000     8          
   316  O     c      2.1581 *    17.6430 *    -1.9603 *  0.0000     8          
   317  Cl    c     -3.7229 *     7.8414 *    15.6827 *  0.0000     8          
   318  O     c      6.0788 *     9.8017 *    13.7224 *  0.0000     8          
   319  Li    c     15.8804 *     5.8810 *     5.8810    0.0000     4          
   320  Li    c     17.8408 *    -1.9603 *     0.0000    0.0000     4          
   321  O     c      9.9994 *     5.8810 *    13.7224 *  0.0000     8          
   322  Li    c    -17.4453 *    -1.9603 *     3.9207 *  0.0000     8          
   323  Cl    c      4.1184 *     7.8414 *    15.6827 *  0.0000     8          
   324  O     c     13.9201 *     5.8810 *     9.8017 *  0.0000     8          
   325  Li    c    -13.5246 *    11.7620 *    -1.9603 *  0.0000     8          
   326  Li    c    -11.5643 *    13.7224 *     1.9603 *  0.0000     8          
   327  Li    c    -11.5643 *     9.8017 *     9.8017    0.0000     4          
   328  Cl    c      8.0391 *     3.9207 *    15.6827 *  0.0000     8          
   329  O     c     17.8408 *    -1.9603 *    -1.9603    0.0000     4          
   330  Li    c     -9.6039 *     9.8017 *    11.7620 *  0.0000     8          
   331  Li    c     -3.7229 *     1.9603 *    17.6430 *  0.0000     8          
   332  Cl    c     15.8804 *     3.9207 *     7.8414 *  0.0000     8          
   333  Li    c     -1.7626 *    13.7224 *    11.7620 *  0.0000     8          
   334  Li    c     -1.7626 *     3.9207 *    17.6430 *  0.0000     8          
   335  Li    c      2.1581 *    13.7224 *    11.7620 *  0.0000     8          
   336  Li    c      2.1581 *    17.6430 *     3.9207 *  0.0000     8          
   337  Li    c      4.1184 *     1.9603 *    17.6430 *  0.0000     8          
   338  Cl    c    -11.5643 *     7.8414 *    11.7620 *  0.0000     8          
   339  Li    c      9.9994 *     9.8017 *    11.7620 *  0.0000     8          
   340  Cl    c     -7.6436 *    11.7620 *    11.7620    0.0000     4          
   341  Li    c     11.9598 *     1.9603 *    13.7224 *  0.0000     8          
   342  Li    c     11.9598 *     9.8017 *     9.8017    0.0000     4          
   343  Li    c     13.9201 *    -1.9603 *    11.7620 *  0.0000     8          
   344  Li    c     17.8408 *    -1.9603 *     3.9207 *  0.0000     8          
   345  Li    c    -17.4453 *     5.8810 *     0.0000    0.0000     4          
   346  Li    c    -15.4850 *     1.9603 *     9.8017 *  0.0000     8          
   347  Li    c    -13.5246 *     7.8414 *     9.8017 *  0.0000     8          
   348  Cl    c      8.0391 *    11.7620 *    11.7620    0.0000     4          
   349  Li    c     -9.6039 *    -1.9603 *    15.6827 *  0.0000     8          
   350  Li    c     -9.6039 *    13.7224 *     7.8414 *  0.0000     8          
   351  O     c    -17.4453 *    -1.9603 *     5.8810 *  0.0000     8          
   352  Li    c     -7.6436 *     9.8017 *    13.7224 *  0.0000     8          
   353  Cl    c     11.9598 *     7.8414 *    11.7620 *  0.0000     8          
   354  Li    c     -5.6833 *    17.6430 *     0.0000    0.0000     4          
   355  Li    c     -1.7626 *    15.6827 *     9.8017 *  0.0000     8          
   356  Li    c      0.1977 *     5.8810 *    17.6430 *  0.0000     8          
   357  Li    c      2.1581 *     9.8017 *    15.6827 *  0.0000     8          
   358  O     c     -5.6833 *    17.6430 *    -1.9603 *  0.0000     8          
   359  Li    c      6.0788 *    17.6430 *     0.0000    0.0000     4          
   360  O     c     -1.7626 *     5.8810 *    17.6430 *  0.0000     8          
   361  Li    c      8.0391 *     9.8017 *    13.7224 *  0.0000     8          
   362  Li    c      9.9994 *    15.6827 *    -1.9603 *  0.0000     8          
   363  Li    c      9.9994 *    13.7224 *     7.8414 *  0.0000     8          
   364  O     c      2.1581 *    17.6430 *     5.8810 *  0.0000     8          
   365  Li    c     13.9201 *     7.8414 *     9.8017 *  0.0000     8          
   366  O     c      6.0788 *    -1.9603 *    17.6430 *  0.0000     8          
   367  Li    c     15.8804 *     9.8017 *     1.9603 *  0.0000     8          
   368  Li    c     17.8408 *     5.8810 *     0.0000    0.0000     4          
   369  Li    c    -17.4453 *     3.9207 *     5.8810 *  0.0000     8          
   370  Li    c    -13.5246 *    11.7620 *     5.8810 *  0.0000     8          
   371  Li    c    -11.5643 *    13.7224 *     5.8810 *  0.0000     8          
   372  O     c     17.8408 *    -1.9603 *     5.8810 *  0.0000     8          
   373  Li    c     -5.6833 *    13.7224 *    11.7620 *  0.0000     8          
   374  Li    c     -5.6833 *    17.6430 *     3.9207 *  0.0000     8          
   375  Li    c     -3.7229 *     5.8810 *    17.6430 *  0.0000     8          
   376  Cl    c    -15.4850 *     7.8414 *     7.8414    0.0000     4          
   377  Li    c      4.1184 *     5.8810 *    17.6430 *  0.0000     8          
   378  Li    c      6.0788 *    13.7224 *    11.7620 *  0.0000     8          
   379  Li    c      6.0788 *    17.6430 *     3.9207 *  0.0000     8          
   380  Cl    c     -7.6436 *     7.8414 *    15.6827 *  0.0000     8          
   381  Li    c     11.9598 *     5.8810 *    13.7224 *  0.0000     8          
   382  Li    c     13.9201 *     5.8810 *    11.7620 *  0.0000     8          
   383  Li    c     17.8408 *     3.9207 *     5.8810 *  0.0000     8          
   384  Li    c    -17.4453 *    -1.9603 *     7.8414 *  0.0000     8          
   385  Li    c    -15.4850 *     5.8810 *     9.8017 *  0.0000     8          
   386  Li    c    -13.5246 *    13.7224 *     0.0000    0.0000     4          
   387  Cl    c      8.0391 *     7.8414 *    15.6827 *  0.0000     8          
   388  Li    c     -9.6039 *     5.8810 *    15.6827 *  0.0000     8          
   389  O     c    -17.4453 *     5.8810 *     5.8810    0.0000     4          
   390  Li    c     -7.6436 *     1.9603 *    17.6430 *  0.0000     8          
   391  Li    c     -5.6833 *     9.8017 *    15.6827 *  0.0000     8          
   392  O     c    -13.5246 *    -1.9603 *    13.7224 *  0.0000     8          
   393  O     c    -13.5246 *     9.8017 *     9.8017    0.0000     4          
   394  Cl    c     15.8804 *     7.8414 *     7.8414    0.0000     4          
   395  Li    c     -1.7626 *     7.8414 *    17.6430 *  0.0000     8          
   396  Cl    c    -19.4056 *     0.0000       0.0000    0.0000     1          
   397  O     c     -9.6039 *     9.8017 *    13.7224 *  0.0000     8          
   398  Li    c      0.1977 *    13.7224 *    13.7224    0.0000     4          
   399  Li    c      2.1581 *    17.6430 *     7.8414 *  0.0000     8          
   400  Cl    c    -15.4850 *     0.0000      11.7620 *  0.0000     4          
   401  O     c     -5.6833 *    17.6430 *     5.8810 *  0.0000     8          
   402  Li    c      6.0788 *     9.8017 *    15.6827 *  0.0000     8          
   403  Cl    c    -11.5643 *     0.0000      15.6827 *  0.0000     4          
   404  O     c     -1.7626 *    13.7224 *    13.7224    0.0000     4          
   405  Li    c      8.0391 *     1.9603 *    17.6430 *  0.0000     8          
   406  Li    c      9.9994 *     5.8810 *    15.6827 *  0.0000     8          
   407  O     c      2.1581 *    13.7224 *    13.7224    0.0000     4          
   408  Li    c     13.9201 *    13.7224 *     0.0000    0.0000     4          
   409  O     c      6.0788 *     5.8810 *    17.6430 *  0.0000     8          
   410  Li    c     15.8804 *     5.8810 *     9.8017 *  0.0000     8          
   411  Li    c     17.8408 *    -1.9603 *     7.8414 *  0.0000     8          
   412  Li    c    -19.4056 *     1.9603 *     1.9603    0.0000     4          
   413  Cl    c      0.1977 *    11.7620 *    15.6827 *  0.0000     8          
   414  Cl    c      0.1977 *     0.0000      19.6034 *  0.0000     4          
   415  O     c      9.9994 *     9.8017 *    13.7224 *  0.0000     8          
   416  O     c     13.9201 *    -1.9603 *    13.7224 *  0.0000     8          
   417  O     c     13.9201 *     9.8017 *     9.8017    0.0000     4          
   418  Li    c    -13.5246 *     3.9207 *    13.7224 *  0.0000     8          
   419  O     c     17.8408 *     5.8810 *     5.8810    0.0000     4          
   420  Cl    c     11.9598 *     0.0000      15.6827 *  0.0000     4          
   421  Li    c     -3.7229 *    13.7224 *    13.7224    0.0000     4          
   422  Cl    c     15.8804 *     0.0000      11.7620 *  0.0000     4          
   423  Li    c     -1.7626 *    -1.9603 *    19.6034 *  0.0000     8          
   424  Cl    c    -19.4056 *     0.0000       3.9207 *  0.0000     4          
   425  Cl    c     19.8011 *     0.0000       0.0000    0.0000     1          
   426  Li    c      2.1581 *    19.6034 *    -1.9603 *  0.0000     8          
   427  Cl    c    -15.4850 *     3.9207 *    11.7620 *  0.0000     8          
   428  Li    c      4.1184 *    13.7224 *    13.7224    0.0000     4          
   429  Cl    c    -11.5643 *     3.9207 *    15.6827 *  0.0000     8          
   430  Li    c     13.9201 *     3.9207 *    13.7224 *  0.0000     8          
   431  Cl    c     -3.7229 *    15.6827 *    11.7620 *  0.0000     8          
   432  Cl    c     -3.7229 *     0.0000      19.6034 *  0.0000     4          
   433  Cl    c      0.1977 *     3.9207 *    19.6034 *  0.0000     8          
   434  Li    c     19.8011 *     1.9603 *     1.9603    0.0000     4          
   435  Cl    s      0.0000       0.0000       0.0000    0.0000     1    Defect
   436  O     s     -1.7626 *    -1.9603 *    -1.9603    0.0000     4          
   437  O     s      2.1581 *    -1.9603 *    -1.9603    0.0000     4          
   438  Cl    s      0.1977 *     0.0000       3.9207 *  0.0000     4          
   439  Cl    s      4.1184 *     0.0000       0.0000    0.0000     1          
   440  Cl    s     -3.7229 *     0.0000       3.9207 *  0.0000     4          
   441  Cl    s      0.1977 *     3.9207 *     3.9207    0.0000     4          
   442  Cl    s      4.1184 *     0.0000       3.9207 *  0.0000     4          
   443  O     s     -5.6833 *    -1.9603 *    -1.9603    0.0000     4          
   444  O     s     -1.7626 *    -1.9603 *     5.8810 *  0.0000     8          
   445  O     s      2.1581 *    -1.9603 *     5.8810 *  0.0000     8          
   446  Cl    s     -3.7229 *     3.9207 *     3.9207    0.0000     4          
   447  O     s      6.0788 *    -1.9603 *    -1.9603    0.0000     4          
   448  Cl    s      4.1184 *     3.9207 *     3.9207    0.0000     4          
   449  Cl    s     -7.6436 *     0.0000       0.0000    0.0000     1          
   450  Cl    s      0.1977 *     0.0000       7.8414 *  0.0000     4          
   451  Cl    s      8.0391 *     0.0000       0.0000    0.0000     1          
   452  O     s     -5.6833 *    -1.9603 *     5.8810 *  0.0000     8          
   453  O     s     -1.7626 *     5.8810 *     5.8810    0.0000     4          
   454  Cl    s     -7.6436 *     0.0000       3.9207 *  0.0000     4          
   455  O     s      2.1581 *     5.8810 *     5.8810    0.0000     4          
   456  Cl    s     -3.7229 *     0.0000       7.8414 *  0.0000     4          
   457  O     s      6.0788 *    -1.9603 *     5.8810 *  0.0000     8          
   458  Cl    s      0.1977 *     3.9207 *     7.8414 *  0.0000     8          
   459  Cl    s      4.1184 *     0.0000       7.8414 *  0.0000     4          
   460  Cl    s      8.0391 *     0.0000       3.9207 *  0.0000     4          
   461  Cl    s     -7.6436 *     3.9207 *     3.9207    0.0000     4          
   462  Cl    s     -3.7229 *     3.9207 *     7.8414 *  0.0000     8          
   463  Cl    s      4.1184 *     3.9207 *     7.8414 *  0.0000     8          
   464  Cl    s      8.0391 *     3.9207 *     3.9207    0.0000     4          
   465  O     s     -9.6039 *    -1.9603 *    -1.9603    0.0000     4          
   466  O     s     -5.6833 *     5.8810 *     5.8810    0.0000     4          
   467  O     s     -1.7626 *    -1.9603 *     9.8017 *  0.0000     8          
   468  O     s      2.1581 *    -1.9603 *     9.8017 *  0.0000     8          
   469  O     s      6.0788 *     5.8810 *     5.8810    0.0000     4          
   470  O     s      9.9994 *    -1.9603 *    -1.9603    0.0000     4          
   471  Cl    s     -7.6436 *     0.0000       7.8414 *  0.0000     4          
   472  Cl    s      0.1977 *     7.8414 *     7.8414    0.0000     4          
   473  Cl    s      8.0391 *     0.0000       7.8414 *  0.0000     4          
   474  O     s     -9.6039 *    -1.9603 *     5.8810 *  0.0000     8          
   475  O     s     -5.6833 *    -1.9603 *     9.8017 *  0.0000     8          
   476  Cl    s    -11.5643 *     0.0000       0.0000    0.0000     1          
   477  O     s     -1.7626 *     5.8810 *     9.8017 *  0.0000     8          
   478  Cl    s     -7.6436 *     3.9207 *     7.8414 *  0.0000     8          
   479  O     s      2.1581 *     5.8810 *     9.8017 *  0.0000     8          
   480  Cl    s     -3.7229 *     7.8414 *     7.8414    0.0000     4          
   481  O     s      6.0788 *     9.8017 *    -1.9603 *  0.0000     8          
   482  Cl    s      0.1977 *     0.0000      11.7620 *  0.0000     4          
   483  O     s      9.9994 *     5.8810 *    -1.9603 *  0.0000     8          
   484  Cl    s      4.1184 *     7.8414 *     7.8414    0.0000     4          
   485  Cl    s      8.0391 *     3.9207 *     7.8414 *  0.0000     8          
   486  Cl    s     11.9598 *     0.0000       0.0000    0.0000     1          
   487  Cl    s    -11.5643 *     0.0000       3.9207 *  0.0000     4          
   488  Cl    s     -3.7229 *     0.0000      11.7620 *  0.0000     4          
   489  Cl    s      0.1977 *     3.9207 *    11.7620 *  0.0000     8          
   490  Cl    s      4.1184 *     0.0000      11.7620 *  0.0000     4          
   491  Cl    s     11.9598 *     0.0000       3.9207 *  0.0000     4          
   492  O     s     -9.6039 *     5.8810 *     5.8810    0.0000     4          
   493  O     s     -5.6833 *     5.8810 *     9.8017 *  0.0000     8          
   494  Cl    s    -11.5643 *     3.9207 *     3.9207    0.0000     4          
   495  Cl    s     -3.7229 *     3.9207 *    11.7620 *  0.0000     8          
   496  O     s      6.0788 *     5.8810 *     9.8017 *  0.0000     8          
   497  O     s      9.9994 *     5.8810 *     5.8810    0.0000     4          
   498  Cl    s      4.1184 *    11.7620 *     3.9207 *  0.0000     8          
   499  Cl    s     11.9598 *     3.9207 *     3.9207    0.0000     4          
   500  Cl    s     -7.6436 *     7.8414 *     7.8414    0.0000     4          
   501  Cl    s      8.0391 *     7.8414 *     7.8414    0.0000     4          
   502  O     s    -13.5246 *    -1.9603 *    -1.9603    0.0000     4          
   503  O     s     -9.6039 *    -1.9603 *     9.8017 *  0.0000     8          
   504  Cl    s    -11.5643 *     0.0000       7.8414 *  0.0000     4          
   505  O     s     -1.7626 *    13.7224 *    -1.9603 *  0.0000     8          
   506  O     s     -1.7626 *     9.8017 *     9.8017    0.0000     4          
   507  Cl    s     -7.6436 *     0.0000      11.7620 *  0.0000     4          
   508  O     s      2.1581 *    -1.9603 *    13.7224 *  0.0000     8          
   509  O     s      2.1581 *     9.8017 *     9.8017    0.0000     4          
   510  Cl    s      0.1977 *     7.8414 *    11.7620 *  0.0000     8          
   511  O     s      9.9994 *     9.8017 *    -1.9603 *  0.0000     8          
   512  O     s     13.9201 *    -1.9603 *    -1.9603    0.0000     4          
   513  Cl    s      8.0391 *     0.0000      11.7620 *  0.0000     4          
   514  Cl    s     11.9598 *     0.0000       7.8414 *  0.0000     4          
   515  Cl    s    -11.5643 *     3.9207 *     7.8414 *  0.0000     8          
   516  Cl    s     -7.6436 *     3.9207 *    11.7620 *  0.0000     8          
   517  Cl    s     -3.7229 *     7.8414 *    11.7620 *  0.0000     8          
   518  Cl    s      4.1184 *    11.7620 *     7.8414 *  0.0000     8          
   519  Cl    s      8.0391 *    11.7620 *     3.9207 *  0.0000     8          
   520  Cl    s     11.9598 *     3.9207 *     7.8414 *  0.0000     8          
   521  O     s    -13.5246 *    -1.9603 *     5.8810 *  0.0000     8          
   522  O     s     -9.6039 *     5.8810 *     9.8017 *  0.0000     8          
   523  O     s     -5.6833 *    -1.9603 *    13.7224 *  0.0000     8          
   524  O     s     -5.6833 *     9.8017 *     9.8017    0.0000     4          
   525  O     s     -1.7626 *    13.7224 *     5.8810 *  0.0000     8          
   526  O     s      2.1581 *     5.8810 *    13.7224 *  0.0000     8          
   527  O     s      6.0788 *    13.7224 *    -1.9603 *  0.0000     8          
   528  O     s      6.0788 *     9.8017 *     9.8017    0.0000     4          
   529  O     s      9.9994 *     5.8810 *     9.8017 *  0.0000     8          
   530  O     s     13.9201 *    -1.9603 *     5.8810 *  0.0000     8          
   531  Cl    s    -15.4850 *     0.0000       0.0000    0.0000     1          
   532  Cl    s      0.1977 *     0.0000      15.6827 *  0.0000     4          
   533  O     s    -13.5246 *     5.8810 *     5.8810    0.0000     4          
   534  Cl    s     15.8804 *     0.0000       0.0000    0.0000     1          
   535  Cl    s    -15.4850 *     0.0000       3.9207 *  0.0000     4          
   536  O     s     -5.6833 *     5.8810 *    13.7224 *  0.0000     8          
   537  Cl    s    -11.5643 *     7.8414 *     7.8414    0.0000     4          
   538  Cl    s     -7.6436 *     7.8414 *    11.7620 *  0.0000     8          
   539  Cl    s     -3.7229 *     0.0000      15.6827 *  0.0000     4          
   540  O     s      6.0788 *     5.8810 *    13.7224 *  0.0000     8          
   541  Cl    s      0.1977 *     3.9207 *    15.6827 *  0.0000     8          
   542  Cl    s      4.1184 *     0.0000      15.6827 *  0.0000     4          
   543  O     s     13.9201 *     5.8810 *     5.8810    0.0000     4          
   544  Cl    s      8.0391 *     7.8414 *    11.7620 *  0.0000     8          
   545  Cl    s     11.9598 *     7.8414 *     7.8414    0.0000     4          
   546  Cl    s     15.8804 *     0.0000       3.9207 *  0.0000     4          
   547  Cl    s    -15.4850 *     3.9207 *     3.9207    0.0000     4          
   548  Cl    s    -11.5643 *     0.0000      11.7620 *  0.0000     4          
   549  Cl    s     -3.7229 *     3.9207 *    15.6827 *  0.0000     8          
   550  Cl    s      0.1977 *    11.7620 *    11.7620    0.0000     4          
   551  Cl    s      4.1184 *     3.9207 *    15.6827 *  0.0000     8          
   552  Cl    s     11.9598 *     0.0000      11.7620 *  0.0000     4          
   553  O     s    -13.5246 *    -1.9603 *     9.8017 *  0.0000     8          
   554  Cl    s     15.8804 *     3.9207 *     3.9207    0.0000     4          
   555  O     s     -9.6039 *    -1.9603 *    13.7224 *  0.0000     8          
   556  O     s     -9.6039 *     9.8017 *     9.8017    0.0000     4          
   557  Cl    s    -11.5643 *     3.9207 *    11.7620 *  0.0000     8          
   558  O     s     -1.7626 *     9.8017 *    13.7224 *  0.0000     8          
   559  O     s      2.1581 *     9.8017 *    13.7224 *  0.0000     8          
   560  Cl    s     -3.7229 *    11.7620 *    11.7620    0.0000     4          
   561  O     s      9.9994 *    -1.9603 *    13.7224 *  0.0000     8          
   562  O     s      9.9994 *     9.8017 *     9.8017    0.0000     4          
   563  Cl    s      4.1184 *    11.7620 *    11.7620    0.0000     4          
   564  O     s     13.9201 *    -1.9603 *     9.8017 *  0.0000     8          
   565  Cl    s     11.9598 *     3.9207 *    11.7620 *  0.0000     8          
   566  Cl    s    -15.4850 *     0.0000       7.8414 *  0.0000     4          
   567  Cl    s     -7.6436 *     0.0000      15.6827 *  0.0000     4          
   568  Cl    s      0.1977 *     7.8414 *    15.6827 *  0.0000     8          
   569  Cl    s      8.0391 *     0.0000      15.6827 *  0.0000     4          
   570  O     s    -17.4453 *    -1.9603 *    -1.9603    0.0000     4          
   571  O     s    -13.5246 *     5.8810 *     9.8017 *  0.0000     8          
   572  Cl    s     15.8804 *     0.0000       7.8414 *  0.0000     4          
   573  O     s     -9.6039 *     5.8810 *    13.7224 *  0.0000     8          
   574  Cl    s    -15.4850 *     3.9207 *     7.8414 *  0.0000     8          
   575  O     s     -5.6833 *     9.8017 *    13.7224 *  0.0000     8          
   576  O     s     -1.7626 *    -1.9603 *    17.6430 *  0.0000     8          
   577  Cl    s     -7.6436 *     3.9207 *    15.6827 *  0.0000     8          
   578  O     s      2.1581 *    17.6430 *    -1.9603 *  0.0000     8          
   579  Cl    s     -3.7229 *     7.8414 *    15.6827 *  0.0000     8          
   580  O     s      6.0788 *     9.8017 *    13.7224 *  0.0000     8          
   581  O     s      9.9994 *     5.8810 *    13.7224 *  0.0000     8          
   582  Cl    s      4.1184 *     7.8414 *    15.6827 *  0.0000     8          
   583  O     s     13.9201 *     5.8810 *     9.8017 *  0.0000     8          
   584  Cl    s      8.0391 *     3.9207 *    15.6827 *  0.0000     8          
   585  O     s     17.8408 *    -1.9603 *    -1.9603    0.0000     4          
   586  Cl    s     15.8804 *     3.9207 *     7.8414 *  0.0000     8          
   587  Cl    s    -11.5643 *     7.8414 *    11.7620 *  0.0000     8          
   588  Cl    s     -7.6436 *    11.7620 *    11.7620    0.0000     4          
   589  Cl    s      8.0391 *    11.7620 *    11.7620    0.0000     4          
   590  O     s    -17.4453 *    -1.9603 *     5.8810 *  0.0000     8          
   591  Cl    s     11.9598 *     7.8414 *    11.7620 *  0.0000     8          
   592  O     s     -5.6833 *    17.6430 *    -1.9603 *  0.0000     8          
   593  O     s     -1.7626 *     5.8810 *    17.6430 *  0.0000     8          
   594  O     s      2.1581 *    17.6430 *     5.8810 *  0.0000     8          
   595  O     s      6.0788 *    -1.9603 *    17.6430 *  0.0000     8          
   596  O     s     17.8408 *    -1.9603 *     5.8810 *  0.0000     8          
   597  Cl    s    -15.4850 *     7.8414 *     7.8414    0.0000     4          
   598  Cl    s     -7.6436 *     7.8414 *    15.6827 *  0.0000     8          
   599  Cl    s      8.0391 *     7.8414 *    15.6827 *  0.0000     8          
   600  O     s    -17.4453 *     5.8810 *     5.8810    0.0000     4          
   601  O     s    -13.5246 *    -1.9603 *    13.7224 *  0.0000     8          
   602  O     s    -13.5246 *     9.8017 *     9.8017    0.0000     4          
   603  Cl    s     15.8804 *     7.8414 *     7.8414    0.0000     4          
   604  Cl    s    -19.4056 *     0.0000       0.0000    0.0000     1          
   605  O     s     -9.6039 *     9.8017 *    13.7224 *  0.0000     8          
   606  Cl    s    -15.4850 *     0.0000      11.7620 *  0.0000     4          
   607  O     s     -5.6833 *    17.6430 *     5.8810 *  0.0000     8          
   608  Cl    s    -11.5643 *     0.0000      15.6827 *  0.0000     4          
   609  O     s     -1.7626 *    13.7224 *    13.7224    0.0000     4          
   610  O     s      2.1581 *    13.7224 *    13.7224    0.0000     4          
   611  O     s      6.0788 *     5.8810 *    17.6430 *  0.0000     8          
   612  Cl    s      0.1977 *    11.7620 *    15.6827 *  0.0000     8          
   613  Cl    s      0.1977 *     0.0000      19.6034 *  0.0000     4          
   614  O     s      9.9994 *     9.8017 *    13.7224 *  0.0000     8          
   615  O     s     13.9201 *    -1.9603 *    13.7224 *  0.0000     8          
   616  O     s     13.9201 *     9.8017 *     9.8017    0.0000     4          
   617  O     s     17.8408 *     5.8810 *     5.8810    0.0000     4          
   618  Cl    s     11.9598 *     0.0000      15.6827 *  0.0000     4          
   619  Cl    s     15.8804 *     0.0000      11.7620 *  0.0000     4          
   620  Cl    s    -19.4056 *     0.0000       3.9207 *  0.0000     4          
   621  Cl    s     19.8011 *     0.0000       0.0000    0.0000     1          
   622  Cl    s    -15.4850 *     3.9207 *    11.7620 *  0.0000     8          
   623  Cl    s    -11.5643 *     3.9207 *    15.6827 *  0.0000     8          
   624  Cl    s     -3.7229 *    15.6827 *    11.7620 *  0.0000     8          
   625  Cl    s     -3.7229 *     0.0000      19.6034 *  0.0000     4          
   626  Cl    s      0.1977 *     3.9207 *    19.6034 *  0.0000     8          
--------------------------------------------------------------------------------


  Constraints on symmetry reduced coordinates :

--------------------------------------------------------------------------------
  Constraint no.      Unconstrained     Constrained    Coefficient    
                         Variable         Variable
--------------------------------------------------------------------------------
           1                 3 y             3 z         1.00000
           2                 5 y             5 z         1.00000
           3                 6 y             6 z         1.00000
           4                 9 y             9 z         1.00000
           5                12 y            12 z         1.00000
           6                14 y            14 z         1.00000
           7                20 y            20 z         1.00000
           8                24 y            24 z         1.00000
           9                25 y            25 z         1.00000
          10                26 y            26 z         1.00000
          11                36 y            36 z         1.00000
          12                39 y            39 z         1.00000
          13                43 y            43 z         1.00000
          14                44 y            44 z         1.00000
          15                46 y            46 z         1.00000
          16                53 y            53 z         1.00000
          17                54 y            54 z         1.00000
          18                56 y            56 z         1.00000
          19                59 y            59 z         1.00000
          20                65 y            65 z         1.00000
          21                69 y            69 z         1.00000
          22                75 y            75 z         1.00000
          23                76 y            76 z         1.00000
          24                84 y            84 z         1.00000
          25                87 y            87 z         1.00000
          26                97 y            97 z         1.00000
          27               101 y           101 z         1.00000
          28               105 y           105 z         1.00000
          29               106 y           106 z         1.00000
          30               118 y           118 z         1.00000
          31               126 y           126 z         1.00000
          32               129 y           129 z         1.00000
          33               134 y           134 z         1.00000
          34               137 y           137 z         1.00000
          35               142 y           142 z         1.00000
          36               145 y           145 z         1.00000
          37               150 y           150 z         1.00000
          38               154 y           154 z         1.00000
          39               159 y           159 z         1.00000
          40               165 y           165 z         1.00000
          41               169 y           169 z         1.00000
          42               171 y           171 z         1.00000
          43               177 y           177 z         1.00000
          44               181 y           181 z         1.00000
          45               186 y           186 z         1.00000
          46               198 y           198 z         1.00000
          47               204 y           204 z         1.00000
          48               221 y           221 z         1.00000
          49               225 y           225 z         1.00000
          50               226 y           226 z         1.00000
          51               234 y           234 z         1.00000
          52               236 y           236 z         1.00000
          53               242 y           242 z         1.00000
          54               245 y           245 z         1.00000
          55               249 y           249 z         1.00000
          56               252 y           252 z         1.00000
          57               258 y           258 z         1.00000
          58               269 y           269 z         1.00000
          59               272 y           272 z         1.00000
          60               284 y           284 z         1.00000
          61               287 y           287 z         1.00000
          62               288 y           288 z         1.00000
          63               301 y           301 z         1.00000
          64               303 y           303 z         1.00000
          65               319 y           319 z         1.00000
          66               327 y           327 z         1.00000
          67               329 y           329 z         1.00000
          68               340 y           340 z         1.00000
          69               342 y           342 z         1.00000
          70               348 y           348 z         1.00000
          71               376 y           376 z         1.00000
          72               389 y           389 z         1.00000
          73               393 y           393 z         1.00000
          74               394 y           394 z         1.00000
          75               398 y           398 z         1.00000
          76               404 y           404 z         1.00000
          77               407 y           407 z         1.00000
          78               412 y           412 z         1.00000
          79               417 y           417 z         1.00000
          80               419 y           419 z         1.00000
          81               421 y           421 z         1.00000
          82               428 y           428 z         1.00000
          83               434 y           434 z         1.00000
          84               436 y           436 z         1.00000
[...]
    546 y          0.000000      0.000000     0.000000    Cartesian    0.00
    546 z          3.920675      3.919875    -0.000800    Cartesian   -0.02
    547 x        -11.762026    -11.757472     0.004555    Cartesian   -0.04
    547 y          3.920675      3.918577    -0.002098    Cartesian   -0.05
    547 z          3.920675      3.918577    -0.002098    Cartesian   -0.05
    548 x         -7.841351     -7.839081     0.002270    Cartesian   -0.03
    548 y          0.000000      0.000000     0.000000    Cartesian    0.00
    548 z         11.762026     11.756759    -0.005268    Cartesian   -0.04
    549 x          0.000000     -0.000697    -0.000697    Cartesian    0.00
    549 y          3.920675      3.919613    -0.001063    Cartesian   -0.03
    549 z         15.682702     15.678601    -0.004101    Cartesian   -0.03
    550 x          3.920675      3.919139    -0.001536    Cartesian   -0.04
    550 y         11.762026     11.758001    -0.004026    Cartesian   -0.03
    550 z         11.762026     11.758001    -0.004026    Cartesian   -0.03
    551 x          7.841351      7.838504    -0.002847    Cartesian   -0.04
    551 y          3.920675      3.919304    -0.001372    Cartesian   -0.03
    551 z         15.682702     15.679051    -0.003651    Cartesian   -0.02
    552 x         15.682702     15.677840    -0.004862    Cartesian   -0.03
    552 y          0.000000      0.000000     0.000000    Cartesian    0.00
    552 z         11.762026     11.758489    -0.003537    Cartesian   -0.03
    553 x         -9.801689     -9.800533     0.001155    Cartesian   -0.01
    553 y         -1.960338     -1.960139     0.000199    Cartesian   -0.01
    553 z          9.801689      9.800071    -0.001618    Cartesian   -0.02
    554 x         19.603377     19.599630    -0.003748    Cartesian   -0.02
    554 y          3.920675      3.919524    -0.001151    Cartesian   -0.03
    554 z          3.920675      3.919524    -0.001151    Cartesian   -0.03
    555 x         -5.881013     -5.880691     0.000323    Cartesian   -0.01
    555 y         -1.960338     -1.960254     0.000084    Cartesian   -0.00
    555 z         13.722364     13.721448    -0.000916    Cartesian   -0.01
    556 x         -5.881013     -5.880828     0.000185    Cartesian   -0.00
    556 y          9.801689      9.800424    -0.001265    Cartesian   -0.01
    556 z          9.801689      9.800424    -0.001265    Cartesian   -0.01
    557 x         -7.841351     -7.839501     0.001850    Cartesian   -0.02
    557 y          3.920675      3.919919    -0.000757    Cartesian   -0.02
    557 z         11.762026     11.757285    -0.004742    Cartesian   -0.04
    558 x          1.960338      1.960109    -0.000229    Cartesian   -0.01
    558 y          9.801689      9.800565    -0.001124    Cartesian   -0.01
    558 z         13.722364     13.721045    -0.001319    Cartesian   -0.01
    559 x          5.881013      5.881083     0.000069    Cartesian    0.00
    559 y          9.801689      9.800947    -0.000741    Cartesian   -0.01
    559 z         13.722364     13.721412    -0.000952    Cartesian   -0.01
    560 x          0.000000     -0.001345    -0.001345    Cartesian    0.00
    560 y         11.762026     11.758360    -0.003666    Cartesian   -0.03
    560 z         11.762026     11.758360    -0.003666    Cartesian   -0.03
    561 x         13.722364     13.721208    -0.001156    Cartesian   -0.01
    561 y         -1.960338     -1.960732    -0.000394    Cartesian    0.02
    561 z         13.722364     13.721228    -0.001136    Cartesian   -0.01
    562 x         13.722364     13.720692    -0.001672    Cartesian   -0.01
    562 y          9.801689      9.800435    -0.001253    Cartesian   -0.01
    562 z          9.801689      9.800435    -0.001253    Cartesian   -0.01
    563 x          7.841351      7.839267    -0.002084    Cartesian   -0.03
    563 y         11.762026     11.758939    -0.003088    Cartesian   -0.03
    563 z         11.762026     11.758939    -0.003088    Cartesian   -0.03
    564 x         17.643040     17.641811    -0.001228    Cartesian   -0.01
    564 y         -1.960338     -1.960731    -0.000393    Cartesian    0.02
    564 z          9.801689      9.800956    -0.000733    Cartesian   -0.01
    565 x         15.682702     15.678842    -0.003860    Cartesian   -0.02
    565 y          3.920675      3.920339    -0.000336    Cartesian   -0.01
    565 z         11.762026     11.759417    -0.002609    Cartesian   -0.02
    566 x        -11.762026    -11.759277     0.002750    Cartesian   -0.02
    566 y          0.000000      0.000000     0.000000    Cartesian    0.00
    566 z          7.841351      7.838775    -0.002576    Cartesian   -0.03
    567 x         -3.920675     -3.921358    -0.000683    Cartesian    0.02
    567 y          0.000000      0.000000     0.000000    Cartesian    0.00
    567 z         15.682702     15.679431    -0.003271    Cartesian   -0.02
    568 x          3.920675      3.919334    -0.001341    Cartesian   -0.03
    568 y          7.841351      7.840311    -0.001040    Cartesian   -0.01
    568 z         15.682702     15.679887    -0.002815    Cartesian   -0.02
    569 x         11.762026     11.759886    -0.002140    Cartesian   -0.02
    569 y          0.000000      0.000000     0.000000    Cartesian    0.00
    569 z         15.682702     15.680122    -0.002580    Cartesian   -0.02
    570 x        -13.722364    -13.722114     0.000250    Cartesian   -0.00
    570 y         -1.960338     -1.960583    -0.000245    Cartesian    0.01
    570 z         -1.960338     -1.960583    -0.000245    Cartesian    0.01
    571 x         -9.801689     -9.801061     0.000627    Cartesian   -0.01
    571 y          5.881013      5.880757    -0.000256    Cartesian   -0.00
    571 z          9.801689      9.800617    -0.001072    Cartesian   -0.01
    572 x         19.603377     19.600288    -0.003090    Cartesian   -0.02
    572 y          0.000000      0.000000     0.000000    Cartesian    0.00
    572 z          7.841351      7.840673    -0.000678    Cartesian   -0.01
    573 x         -5.881013     -5.881265    -0.000252    Cartesian    0.00
    573 y          5.881013      5.881209     0.000196    Cartesian    0.00
    573 z         13.722364     13.721860    -0.000504    Cartesian   -0.00
    574 x        -11.762026    -11.759096     0.002930    Cartesian   -0.02
    574 y          3.920675      3.919301    -0.001375    Cartesian   -0.04
    574 z          7.841351      7.839003    -0.002348    Cartesian   -0.03
    575 x         -1.960338     -1.960891    -0.000553    Cartesian    0.03
    575 y          9.801689      9.801395    -0.000294    Cartesian   -0.00
    575 z         13.722364     13.721841    -0.000523    Cartesian   -0.00
    576 x          1.960338      1.959817    -0.000521    Cartesian   -0.03
    576 y         -1.960338     -1.960618    -0.000280    Cartesian    0.01
    576 z         17.643040     17.642443    -0.000597    Cartesian   -0.00
    577 x         -3.920675     -3.921509    -0.000833    Cartesian    0.02
    577 y          3.920675      3.920001    -0.000674    Cartesian   -0.02
    577 z         15.682702     15.679113    -0.003589    Cartesian   -0.02
    578 x          5.881013      5.881545     0.000532    Cartesian    0.01
    578 y         17.643040     17.642784    -0.000256    Cartesian   -0.00
    578 z         -1.960338     -1.960105     0.000232    Cartesian   -0.01
    579 x          0.000000     -0.000832    -0.000832    Cartesian    0.00
    579 y          7.841351      7.840397    -0.000954    Cartesian   -0.01
    579 z         15.682702     15.679490    -0.003212    Cartesian   -0.02
    580 x          9.801689      9.800812    -0.000877    Cartesian   -0.01
    580 y          9.801689      9.801412    -0.000277    Cartesian   -0.00
    580 z         13.722364     13.721788    -0.000576    Cartesian   -0.00
    581 x         13.722364     13.721873    -0.000491    Cartesian   -0.00
    581 y          5.881013      5.880405    -0.000608    Cartesian   -0.01
    581 z         13.722364     13.721918    -0.000446    Cartesian   -0.00
    582 x          7.841351      7.839134    -0.002217    Cartesian   -0.03
    582 y          7.841351      7.840480    -0.000871    Cartesian   -0.01
    582 z         15.682702     15.679805    -0.002897    Cartesian   -0.02
    583 x         17.643040     17.642427    -0.000613    Cartesian   -0.00
    583 y          5.881013      5.880504    -0.000509    Cartesian   -0.01
    583 z          9.801689      9.801626    -0.000063    Cartesian   -0.00
    584 x         11.762026     11.760017    -0.002010    Cartesian   -0.02
    584 y          3.920675      3.919778    -0.000897    Cartesian   -0.02
    584 z         15.682702     15.680088    -0.002614    Cartesian   -0.02
    585 x         21.563715     21.563758     0.000043    Cartesian    0.00
    585 y         -1.960338     -1.960598    -0.000261    Cartesian    0.01
    585 z         -1.960338     -1.960598    -0.000261    Cartesian    0.01
    586 x         19.603377     19.600144    -0.003234    Cartesian   -0.02
    586 y          3.920675      3.919914    -0.000762    Cartesian   -0.02
    586 z          7.841351      7.840736    -0.000615    Cartesian   -0.01
    587 x         -7.841351     -7.840379     0.000972    Cartesian   -0.01
    587 y          7.841351      7.838888    -0.002463    Cartesian   -0.03
    587 z         11.762026     11.758312    -0.003715    Cartesian   -0.03
    588 x         -3.920675     -3.920402     0.000273    Cartesian   -0.01
    588 y         11.762026     11.759128    -0.002898    Cartesian   -0.02
    588 z         11.762026     11.759128    -0.002898    Cartesian   -0.02
    589 x         11.762026     11.758871    -0.003156    Cartesian   -0.03
    589 y         11.762026     11.759590    -0.002436    Cartesian   -0.02
    589 z         11.762026     11.759590    -0.002436    Cartesian   -0.02
    590 x        -13.722364    -13.721746     0.000618    Cartesian   -0.00
    590 y         -1.960338     -1.960332     0.000006    Cartesian   -0.00
    590 z          5.881013      5.881015     0.000002    Cartesian    0.00
    591 x         15.682702     15.679364    -0.003338    Cartesian   -0.02
    591 y          7.841351      7.839549    -0.001802    Cartesian   -0.02
    591 z         11.762026     11.759936    -0.002090    Cartesian   -0.02
    592 x         -1.960338     -1.960886    -0.000548    Cartesian    0.03
    592 y         17.643040     17.642276    -0.000763    Cartesian   -0.00
    592 z         -1.960338     -1.960559    -0.000221    Cartesian    0.01
    593 x          1.960338      1.959934    -0.000404    Cartesian   -0.02
    593 y          5.881013      5.881293     0.000280    Cartesian    0.00
    593 z         17.643040     17.642132    -0.000908    Cartesian   -0.01
    594 x          5.881013      5.880799    -0.000214    Cartesian   -0.00
    594 y         17.643040     17.642252    -0.000788    Cartesian   -0.00
    594 z          5.881013      5.880981    -0.000032    Cartesian   -0.00
    595 x          9.801689      9.801411    -0.000278    Cartesian   -0.00
    595 y         -1.960338     -1.960172     0.000165    Cartesian   -0.01
    595 z         17.643040     17.642063    -0.000977    Cartesian   -0.01
    596 x         21.563715     21.562790    -0.000925    Cartesian   -0.00
    596 y         -1.960338     -1.960206     0.000131    Cartesian   -0.01
    596 z          5.881013      5.880902    -0.000111    Cartesian   -0.00
    597 x        -11.762026    -11.758500     0.003527    Cartesian   -0.03
    597 y          7.841351      7.838526    -0.002825    Cartesian   -0.04
    597 z          7.841351      7.838526    -0.002825    Cartesian   -0.04
    598 x         -3.920675     -3.920195     0.000480    Cartesian   -0.01
    598 y          7.841351      7.839435    -0.001916    Cartesian   -0.02
    598 z         15.682702     15.678705    -0.003997    Cartesian   -0.03
    599 x         11.762026     11.759269    -0.002758    Cartesian   -0.02
    599 y          7.841351      7.839499    -0.001852    Cartesian   -0.02
    599 z         15.682702     15.679032    -0.003670    Cartesian   -0.02
    600 x        -13.722364    -13.720110     0.002254    Cartesian   -0.02
    600 y          5.881013      5.879750    -0.001263    Cartesian   -0.02
    600 z          5.881013      5.879750    -0.001263    Cartesian   -0.02
    601 x         -9.801689     -9.800864     0.000824    Cartesian   -0.01
    601 y         -1.960338     -1.960179     0.000159    Cartesian   -0.01
    601 z         13.722364     13.720976    -0.001388    Cartesian   -0.01
    602 x         -9.801689     -9.799590     0.002099    Cartesian   -0.02
    602 y          9.801689      9.799556    -0.002132    Cartesian   -0.02
    602 z          9.801689      9.799556    -0.002132    Cartesian   -0.02
    603 x         19.603377     19.599214    -0.004163    Cartesian   -0.02
    603 y          7.841351      7.839746    -0.001605    Cartesian   -0.02
    603 z          7.841351      7.839746    -0.001605    Cartesian   -0.02
    604 x        -15.682702    -15.677814     0.004888    Cartesian   -0.03
    604 y          0.000000      0.000000     0.000000    Cartesian    0.00
    604 z          0.000000      0.000000     0.000000    Cartesian    0.00
    605 x         -5.881013     -5.879798     0.001215    Cartesian   -0.02
    605 y          9.801689      9.799926    -0.001763    Cartesian   -0.02
    605 z         13.722364     13.720099    -0.002265    Cartesian   -0.02
    606 x        -11.762026    -11.758087     0.003940    Cartesian   -0.03
    606 y          0.000000      0.000000     0.000000    Cartesian    0.00
    606 z         11.762026     11.757865    -0.004161    Cartesian   -0.04
    607 x         -1.960338     -1.959790     0.000548    Cartesian   -0.03
    607 y         17.643040     17.640727    -0.002313    Cartesian   -0.01
    607 z          5.881013      5.880073    -0.000940    Cartesian   -0.02
    608 x         -7.841351     -7.839503     0.001848    Cartesian   -0.02
    608 y          0.000000      0.000000     0.000000    Cartesian    0.00
    608 z         15.682702     15.677921    -0.004781    Cartesian   -0.03
    609 x          1.960338      1.960036    -0.000301    Cartesian   -0.02
    609 y         13.722364     13.721154    -0.001210    Cartesian   -0.01
    609 z         13.722364     13.721154    -0.001210    Cartesian   -0.01
    610 x          5.881013      5.880659    -0.000354    Cartesian   -0.01
    610 y         13.722364     13.720947    -0.001417    Cartesian   -0.01
    610 z         13.722364     13.720947    -0.001417    Cartesian   -0.01
    611 x          9.801689      9.800388    -0.001301    Cartesian   -0.01
    611 y          5.881013      5.879982    -0.001031    Cartesian   -0.02
    611 z         17.643040     17.640726    -0.002313    Cartesian   -0.01
    612 x          3.920675      3.919542    -0.001133    Cartesian   -0.03
    612 y         11.762026     11.758973    -0.003053    Cartesian   -0.03
    612 z         15.682702     15.678199    -0.004503    Cartesian   -0.03
    613 x          3.920675      3.919681    -0.000994    Cartesian   -0.03
    613 y          0.000000      0.000000     0.000000    Cartesian    0.00
    613 z         19.603377     19.598714    -0.004664    Cartesian   -0.02
    614 x         13.722364     13.720397    -0.001968    Cartesian   -0.01
    614 y          9.801689      9.799998    -0.001691    Cartesian   -0.02
    614 z         13.722364     13.720230    -0.002135    Cartesian   -0.02
    615 x         17.643040     17.641530    -0.001510    Cartesian   -0.01
    615 y         -1.960338     -1.960292     0.000046    Cartesian   -0.00
    615 z         13.722364     13.720959    -0.001405    Cartesian   -0.01
    616 x         17.643040     17.640742    -0.002298    Cartesian   -0.01
    616 y          9.801689      9.800045    -0.001643    Cartesian   -0.02
    616 z          9.801689      9.800045    -0.001643    Cartesian   -0.02
    617 x         21.563715     21.561304    -0.002412    Cartesian   -0.01
    617 y          5.881013      5.880086    -0.000927    Cartesian   -0.02
    617 z          5.881013      5.880086    -0.000927    Cartesian   -0.02
    618 x         15.682702     15.678820    -0.003882    Cartesian   -0.02
    618 y          0.000000      0.000000     0.000000    Cartesian    0.00
    618 z         15.682702     15.678175    -0.004527    Cartesian   -0.03
    619 x         19.603377     19.598371    -0.005007    Cartesian   -0.03
    619 y          0.000000      0.000000     0.000000    Cartesian    0.00
    619 z         11.762026     11.759121    -0.002905    Cartesian   -0.02
    620 x        -15.682702    -15.676472     0.006230    Cartesian   -0.04
    620 y          0.000000      0.000000     0.000000    Cartesian    0.00
    620 z          3.920675      3.919226    -0.001449    Cartesian   -0.04
    621 x         23.524053     23.518747    -0.005306    Cartesian   -0.02
    621 y          0.000000      0.000000     0.000000    Cartesian    0.00
    621 z          0.000000      0.000000     0.000000    Cartesian    0.00
    622 x        -11.762026    -11.757251     0.004776    Cartesian   -0.04
    622 y          3.920675      3.919342    -0.001333    Cartesian   -0.03
    622 z         11.762026     11.757728    -0.004299    Cartesian   -0.04
    623 x         -7.841351     -7.839131     0.002220    Cartesian   -0.03
    623 y          3.920675      3.919363    -0.001312    Cartesian   -0.03
    623 z         15.682702     15.677245    -0.005457    Cartesian   -0.03
    624 x          0.000000      0.000190     0.000190    Cartesian    0.00
    624 y         15.682702     15.677690    -0.005012    Cartesian   -0.03
    624 z         11.762026     11.758628    -0.003398    Cartesian   -0.03
    625 x          0.000000      0.000123     0.000123    Cartesian    0.00
    625 y          0.000000      0.000000     0.000000    Cartesian    0.00
    625 z         19.603377     19.597179    -0.006198    Cartesian   -0.03
    626 x          3.920675      3.919951    -0.000724    Cartesian   -0.02
    626 y          3.920675      3.919532    -0.001143    Cartesian   -0.03
    626 z         19.603377     19.597379    -0.005999    Cartesian   -0.03
--------------------------------------------------------------------------------


  Time to end of optimisation  =       80.0277 seconds


  Peak dynamic memory used =    1727.30 MB 


  Timing analysis for GULP :

--------------------------------------------------------------------------------
  Task / Subroutine                                          Time (Seconds)
--------------------------------------------------------------------------------
  Calculation of reciprocal space energy and derivatives          0.0002
  Calculation of reciprocal space energy using symmetry           0.0003
  Calculation of real space energy and derivatives                0.0019
  Calculation of real space energy using symmetry                 0.0034
  Calculation for region 1 energy and derivatives (2-b)          41.3860
  Calculation for region 2a energy                                9.9292
  Calculation for region 2b energy                                0.0019
  Calculation and manipulation of Hessian matrix                 25.7640
  Calculation of matrix inversion                                 2.0845
  Symmetry generation of equivalent positions                     0.0017
--------------------------------------------------------------------------------
  Total CPU time                                                 80.0277
--------------------------------------------------------------------------------


  Dump file written as Li3OCl.grs


  Job Finished at 13:30.52 21st October    2020                               

