********************************************************************************
*                       GENERAL UTILITY LATTICE PROGRAM                        *
*                                 Julian Gale                                  *
*                       Curtin Institute for Computation                       *
*                    School of Molecular and Life Sciences                     *
*                    Curtin University, Western Australia                      *
********************************************************************************
* Version = 5.2.0 * Last modified =  10th September 2020                       *
********************************************************************************
*  optimise     - perform optimisation run                                     *
*  conp         - constant pressure calculation                                *
*  property     - calculate properties for final geometry                      *
*  defect       - perform defect calculation after bulk run                    *
*  compare      - compare initial and final structures                         *
********************************************************************************

  Job Started  at 13:30.52 21st October    2020                               

  Number of CPUs =     1


  Total number of configurations input =      1

********************************************************************************
*  Input for Configuration =   1                                               *
********************************************************************************

  Formula = ClOLi3                                                      

  Number of irreducible atoms/shells =       5


  Total number atoms/shells =       7

  Dimensionality = 3               :  Bulk   


  Symmetry :

  Crystal family                   :  Cubic       
  Crystal class  (Groth - 1921)    :  Cubic Hexakisoctahedral              

  Space group (centrosymmetric)    :  P M 3 M         

  Patterson group                  :  P m -3 m 

  Cartesian lattice vectors (Angstroms) :

        3.918873    0.000000    0.000000
        0.000000    3.918873    0.000000
        0.000000    0.000000    3.918873

  Cell parameters (Angstroms/Degrees):

  a =       3.9189    alpha =  90.0000
  b =       3.9189    beta  =  90.0000
  c =       3.9189    gamma =  90.0000

  Initial cell volume =          60.184349 Angs**3

  Temperature of configuration =   0.00     K 

  Pressure of configuration =         0.000 GPa 

  Fractional coordinates of asymmetric unit :

--------------------------------------------------------------------------------
   No.  Atomic       x           y          z         Charge      Occupancy
        Label      (Frac)      (Frac)     (Frac)        (e)         (Frac)  
--------------------------------------------------------------------------------
      1 Cl    c    0.000000    0.000000    0.000000     1.48500    1.000000    
      2 O     c    0.500000    0.500000    0.500000     0.18300    1.000000    
      3 Li    c    0.500000    0.500000    0.000000     1.00000    1.000000    
      4 Cl    s    0.000000    0.000000    0.000000    -2.48500    1.000000    
      5 O     s    0.500000    0.500000    0.500000    -2.18300    1.000000    
--------------------------------------------------------------------------------


  Constraints : 

--------------------------------------------------------------------------------
  Constraint no.      Unconstrained     Constrained    Coefficient    Offset
                         Variable         Variable
--------------------------------------------------------------------------------
           1              Strain 1        Strain 2       1.00000      0.0000
           2              Strain 1        Strain 3       1.00000      0.0000
--------------------------------------------------------------------------------


********************************************************************************
*  General input information                                                   *
********************************************************************************

  Species output for all configurations : 

--------------------------------------------------------------------------------
  Species    Type    Atomic    Atomic    Charge       Radii (Angs)     Library
                     Number     Mass       (e)     Cova   Ionic  VDW   Symbol
--------------------------------------------------------------------------------
    Li       Core        3       6.94   1.000000   0.680  0.000  1.800          
    O        Core        8      16.00   0.183000   0.730  0.000  1.360          
    O        Shell       8       0.00  -2.183000   0.730  0.000  1.360          
    Cl       Core       17      35.45   1.485000   0.990  0.000  1.650          
    Cl       Shell      17       0.00  -2.485000   0.990  0.000  1.650          
--------------------------------------------------------------------------------


  Lattice summation method               =    Ewald          (3-D)
                                         =    Parry          (2-D)
                                         =    Saunders et al (1-D)
  Accuracy factor for lattice sums       =   12.000


  Analytic derivatives to be used

  Time limit = Infinity

  Maximum range for interatomic potentials =    100000.000000 Angstroms

  General interatomic potentials :

--------------------------------------------------------------------------------
Atom  Types   Potential      Parameter       Value         Units   Cutoffs(Ang)
  1     2                                                            Min /  Max 
--------------------------------------------------------------------------------
O    c O    s Spring (c-s)  Spring k 2       593.72000    eV*Ang^-2 0.000  0.800
                            Spring k 4       0.0000000    eV*Ang^-4 
--------------------------------------------------------------------------------
Cl   c Cl   s Spring (c-s)  Spring k 2       29.380000    eV*Ang^-2 0.000  0.800
                            Spring k 4       0.0000000    eV*Ang^-4 
--------------------------------------------------------------------------------
Li   c Li   c Buckingham    Buckingham A     360.53000    eV        0.000 12.000
                            Buckingham rho  0.16100000    Ang       
                            Buckingham C     0.0000000    eV*Ang^6  
--------------------------------------------------------------------------------
Li   c O    s Buckingham    Buckingham A     292.30000    eV        0.000 12.000
                            Buckingham rho  0.34720000    Ang       
                            Buckingham C     0.0000000    eV*Ang^6  
--------------------------------------------------------------------------------
Li   c Cl   s Buckingham    Buckingham A     421.04000    eV        0.000 12.000
                            Buckingham rho  0.33400000    Ang       
                            Buckingham C     0.0000000    eV*Ang^6  
--------------------------------------------------------------------------------
O    s O    s Buckingham    Buckingham A     22764.300    eV        0.000 12.000
                            Buckingham rho  0.14900000    Ang       
                            Buckingham C     13.190000    eV*Ang^6  
--------------------------------------------------------------------------------
O    s Cl   s Buckingham    Buckingham A     8286.9100    eV        0.000 12.000
                            Buckingham rho  0.25900000    Ang       
                            Buckingham C     62.200000    eV*Ang^6  
--------------------------------------------------------------------------------
Cl   s Cl   s Buckingham    Buckingham A     1227.2000    eV        0.000 12.000
                            Buckingham rho  0.32100000    Ang       
                            Buckingham C     14.530000    eV*Ang^6  
--------------------------------------------------------------------------------

********************************************************************************
*  Output for configuration   1                                                *
********************************************************************************


  Components of energy : 

--------------------------------------------------------------------------------
  Interatomic potentials     =           7.26836263 eV    
  Monopole - monopole (real) =         -11.53475722 eV    
  Monopole - monopole (recip)=         -33.94580548 eV    
  Monopole - monopole (total)=         -45.48056271 eV    
--------------------------------------------------------------------------------
  Total lattice energy       =         -38.21220008 eV    
--------------------------------------------------------------------------------
  Total lattice energy       =           -3686.8932 kJ/(mole unit cells)
--------------------------------------------------------------------------------


  Number of variables =        1

  Maximum number of calculations  =          1000
  Maximum Hessian update interval =            10
  Maximum step size               =   1.000000000
  Maximum parameter tolerance     =   0.000010000
  Maximum function  tolerance     =   0.000010000
  Maximum gradient  tolerance     =   0.001000000
  Maximum gradient  component     =   0.010000000

  Symmetry constrained optimisation

  Symmetry used for second derivatives

  Cell parameters to be optimised using strains

  Newton-Raphson optimiser to be used

  BFGS hessian update to be used

  Lower half triangular hessian to be used

  Start of bulk optimisation :

  Cycle:      0 Energy:       -38.212200  Gnorm:      0.095699  CPU:    0.005
  ** Hessian calculated **
  Cycle:      1 Energy:       -38.212222  Gnorm:      0.000105  CPU:    0.007


  **** Optimisation achieved ****


  Final energy =     -38.21222207 eV
  Final Gnorm  =       0.00000016

  Components of energy : 

--------------------------------------------------------------------------------
  Interatomic potentials     =           7.24743141 eV    
  Monopole - monopole (real) =         -11.52945423 eV    
  Monopole - monopole (recip)=         -33.93019924 eV    
  Monopole - monopole (total)=         -45.45965348 eV    
--------------------------------------------------------------------------------
  Total lattice energy       =         -38.21222207 eV    
--------------------------------------------------------------------------------
  Total lattice energy       =           -3686.8953 kJ/(mole unit cells)
--------------------------------------------------------------------------------

  Final asymmetric unit coordinates :

--------------------------------------------------------------------------------
   No.  Atomic        x           y           z         Radius
        Label       (Frac)      (Frac)      (Frac)       (Angs) 
--------------------------------------------------------------------------------
     1  Cl    c     0.000000    0.000000    0.000000    0.000000
     2  O     c     0.500000    0.500000    0.500000    0.000000
     3  Li    c     0.500000    0.500000    0.000000    0.000000
     4  Cl    s     0.000000    0.000000    0.000000    0.000000
     5  O     s     0.500000    0.500000    0.500000    0.000000
--------------------------------------------------------------------------------

  Final Cartesian lattice vectors (Angstroms) :

        3.920675    0.000000    0.000000
        0.000000    3.920675    0.000000
        0.000000    0.000000    3.920675


  Final cell parameters and derivatives :

--------------------------------------------------------------------------------
       a            3.920675 Angstrom     dE/de1(xx)    -0.000000 eV/strain
       b            3.920675 Angstrom     dE/de2(yy)     0.000000 eV/strain
       c            3.920675 Angstrom     dE/de3(zz)     0.000000 eV/strain
       alpha       90.000000 Degrees      dE/de4(yz)     0.000000 eV/strain
       beta        90.000000 Degrees      dE/de5(xz)     0.000000 eV/strain
       gamma       90.000000 Degrees      dE/de6(xy)     0.000000 eV/strain
--------------------------------------------------------------------------------

  Primitive cell volume =            60.267433 Angs**3

  Density of cell =      1.991276 g/cm**3

  Non-primitive cell volume =            60.267433 Angs**3


  Final internal derivatives :

--------------------------------------------------------------------------------
   No.  Atomic          a             b             c           Radius
        Label          (eV)          (eV)          (eV)        (eV/Angs)
--------------------------------------------------------------------------------
      1 Cl    c       0.000000      0.000000      0.000000      0.000000
      2 O     c       0.000000      0.000000      0.000000      0.000000
      3 Li    c       0.000000      0.000000      0.000000      0.000000
      4 Cl    s       0.000000      0.000000      0.000000      0.000000
      5 O     s       0.000000      0.000000      0.000000      0.000000
--------------------------------------------------------------------------------
  Maximum abs         0.000000      0.000000      0.000000      0.000000
--------------------------------------------------------------------------------

  Comparison of initial and final structures : 

--------------------------------------------------------------------------------
  Parameter   Initial value   Final value   Difference    Units      Percent
--------------------------------------------------------------------------------
    Volume        60.184349     60.267433     0.083084    Angs**3      0.14
    a              3.918873      3.920675     0.001802    Angstroms    0.05
    b              3.918873      3.920675     0.001802    Angstroms    0.05
    c              3.918873      3.920675     0.001802    Angstroms    0.05
    alpha         90.000000     90.000000     0.000000    Degrees      0.00
    beta          90.000000     90.000000     0.000000    Degrees      0.00
    gamma         90.000000     90.000000     0.000000    Degrees      0.00
      1 x          0.000000      0.000000     0.000000    Fractional   0.00
      1 y          0.000000      0.000000     0.000000    Fractional   0.00
      1 z          0.000000      0.000000     0.000000    Fractional   0.00
      2 x          0.500000      0.500000     0.000000    Fractional   0.00
      2 y          0.500000      0.500000     0.000000    Fractional   0.00
      2 z          0.500000      0.500000     0.000000    Fractional   0.00
      3 x          0.500000      0.500000     0.000000    Fractional   0.00
      3 y          0.500000      0.500000     0.000000    Fractional   0.00
      3 z          0.000000      0.000000     0.000000    Fractional   0.00
      4 x          0.000000      0.000000     0.000000    Fractional   0.00
      4 y          0.000000      0.000000     0.000000    Fractional   0.00
      4 z          0.000000      0.000000     0.000000    Fractional   0.00
      5 x          0.500000      0.500000     0.000000    Fractional   0.00
      5 y          0.500000      0.500000     0.000000    Fractional   0.00
      5 z          0.500000      0.500000     0.000000    Fractional   0.00
--------------------------------------------------------------------------------


  Born effective charge tensors : 

-------------------------------------------------------------------------------
  Atom             x           y             z
-------------------------------------------------------------------------------
    1 Cl    x      -0.9489     -0.0000     -0.0000
            y      -0.0000     -0.9489     -0.0000
            z      -0.0000     -0.0000     -0.9489
-------------------------------------------------------------------------------
    2 O     x      -2.4688      0.0000      0.0000
            y       0.0000     -2.4688      0.0000
            z       0.0000      0.0000     -2.4688
-------------------------------------------------------------------------------
    3 Li    x       1.3129      0.0000     -0.0000
            y       0.0000      1.3129      0.0000
            z      -0.0000      0.0000      0.7919
-------------------------------------------------------------------------------




  Elastic Constant Matrix: (Units=GPa)

-------------------------------------------------------------------------------
  Indices      1         2         3         4         5         6    
-------------------------------------------------------------------------------
       1     94.3368   44.9178   44.9178    0.0000   -0.0000    0.0000
       2     44.9178   94.3368   44.9178   -0.0000    0.0000   -0.0000
       3     44.9178   44.9178   94.3368    0.0000   -0.0000    0.0000
       4      0.0000   -0.0000    0.0000   44.9178   -0.0000    0.0000
       5     -0.0000    0.0000   -0.0000   -0.0000   44.9178    0.0000
       6      0.0000   -0.0000    0.0000    0.0000    0.0000   44.9178
-------------------------------------------------------------------------------


  Elastic Compliance Matrix: (Units=1/GPa)

-------------------------------------------------------------------------------
  Indices      1         2         3         4         5         6    
-------------------------------------------------------------------------------
       1    0.015300 -0.004935 -0.004935 -0.000000  0.000000 -0.000000
       2   -0.004935  0.015300 -0.004935  0.000000 -0.000000  0.000000
       3   -0.004935 -0.004935  0.015300 -0.000000  0.000000 -0.000000
       4   -0.000000  0.000000 -0.000000  0.022263  0.000000 -0.000000
       5    0.000000 -0.000000  0.000000  0.000000  0.022263 -0.000000
       6   -0.000000  0.000000 -0.000000 -0.000000 -0.000000  0.022263
-------------------------------------------------------------------------------

  Mechanical properties :

-------------------------------------------------------------------------------
  Convention :                    Reuss         Voigt         Hill
-------------------------------------------------------------------------------
  Bulk  Modulus (GPa)     =      61.39080      61.39080      61.39080
  Shear Modulus (GPa)     =      33.84570      36.83448      35.34009
-------------------------------------------------------------------------------
  Velocity S-wave (km/s)  =       4.12274       4.30092       4.21277
  Velocity P-wave (km/s)  =       7.31386       7.44942       7.38195
-------------------------------------------------------------------------------
  Compressibility (1/GPa) =    0.01628909
-------------------------------------------------------------------------------
  Stress axis :                     x             y             z
-------------------------------------------------------------------------------
  Youngs Moduli (GPa)     =      65.35947      65.35947      65.35947
-------------------------------------------------------------------------------
  Poissons Ratio (x)      =                     0.32256       0.32256
  Poissons Ratio (y)      =       0.32256                     0.32256
  Poissons Ratio (z)      =       0.32256       0.32256
-------------------------------------------------------------------------------


  Piezoelectric Strain Matrix: (Units=C/m**2)

-------------------------------------------------------------------------------
  Indices      1         2         3         4         5         6    
-------------------------------------------------------------------------------
       x    -0.00000   0.00000   0.00000  -0.00000  -0.00000   0.00000
       y    -0.00000   0.00000   0.00000  -0.00000  -0.00000  -0.00000
       z     0.00000   0.00000   0.00000   0.00000  -0.00000  -0.00000
-------------------------------------------------------------------------------


  Piezoelectric Stress Matrix: (Units=10**-11 C/N)

-------------------------------------------------------------------------------
  Indices      1         2         3         4         5         6    
-------------------------------------------------------------------------------
       x    -0.00000   0.00000   0.00000  -0.00000  -0.00000   0.00000
       y    -0.00000   0.00000   0.00000  -0.00000  -0.00000  -0.00000
       z    -0.00000  -0.00000   0.00000   0.00000  -0.00000  -0.00000
-------------------------------------------------------------------------------


  Static dielectric constant tensor : 

-------------------------------------------------------------------------------
              x         y         z
-------------------------------------------------------------------------------
       x    12.11703   0.00000  -0.00000
       y     0.00000  12.11703  -0.00000
       z    -0.00000  -0.00000  12.11703
--------------------------------------------------------------------------------

  High frequency dielectric constant tensor : 

-------------------------------------------------------------------------------
              x         y         z
-------------------------------------------------------------------------------
       x     1.74104   0.00000   0.00000
       y     0.00000   1.74104   0.00000
       z     0.00000   0.00000   1.74104
-------------------------------------------------------------------------------

  Static refractive indices : 

-------------------------------------------------------------------------------
    1 =    3.48095      2 =    3.48095      3 =    3.48095
-------------------------------------------------------------------------------

  High frequency refractive indices : 

-------------------------------------------------------------------------------
    1 =    1.31948      2 =    1.31948      3 =    1.31948
-------------------------------------------------------------------------------


  Time to end of optimisation =       0.0114 seconds

********************************************************************************
*  Defect calculation for configuration   1 :                                  *
********************************************************************************

  Total number of defects =      3

  Total charge on defect  =   1.00

  Defect centre is at   3.9189   0.0000   0.0000  Angs

  Region 1 radius =  20.0000      Number of ions =   3932

  Number of symmetry inequivalent region 1 ions  =    636

  Region 2 radius =  24.0000      Number of ions =   2756

  Number of symmetry inequivalent region 2a ions =    403

  Region 2a mode = 4 : screened electrostatics due to region 1 
                       neglect correction to region 1 forces from 2a
                       region 2a displacements based on defects only

  Region 2a ions will only interact with defects in region 1

  Vacancies:

--------------------------------------------------------------------------------
    Specification type     Symbol/Number         x          y          z
--------------------------------------------------------------------------------
    Cartesian                                0.000000   0.000000   0.000000
    Cartesian                                3.918873   0.000000   0.000000
--------------------------------------------------------------------------------

  Interstitials:

--------------------------------------------------------------------------------
    Specification type     Symbol/Number         x          y          z
--------------------------------------------------------------------------------
    Atom/Cartesian          Cl               3.918873   0.000000   0.000000
--------------------------------------------------------------------------------


  Symmetry reduced region 1 (Relative to defect centre) :

--------------------------------------------------------------------------------
   No.   Atomic       x            y             z       Radius  Multiplicity   
         Label      (Angs)       (Angs)        (Angs)    (Angs)     
--------------------------------------------------------------------------------
     1  Cl    c      0.0000       0.0000       0.0000    0.0000     1    Defect
     2  Li    c     -1.9585 *    -1.9603 *     0.0000    0.0000     4          
     3  Li    c      0.0018 *     1.9603 *     1.9603    0.0000     4          
     4  Li    c      1.9621 *    -1.9603 *     0.0000    0.0000     4          
     5  O     c     -1.9585 *    -1.9603 *    -1.9603    0.0000     4          
     6  O     c      1.9621 *    -1.9603 *    -1.9603    0.0000     4          
     7  Cl    c      0.0018 *     0.0000       3.9207 *  0.0000     4          
     8  Cl    c      3.9225 *     0.0000       0.0000    0.0000     1          
     9  Li    c     -3.9189 *     1.9603 *     1.9603    0.0000     4          
    10  Li    c     -1.9585 *    -1.9603 *     3.9207 *  0.0000     8          
    11  Li    c      1.9621 *    -1.9603 *     3.9207 *  0.0000     8          
    12  Li    c      3.9225 *     1.9603 *     1.9603    0.0000     4          
    13  Cl    c     -3.9189 *     0.0000       3.9207 *  0.0000     4          
    14  Cl    c      0.0018 *     3.9207 *     3.9207    0.0000     4          
    15  Cl    c      3.9225 *     0.0000       3.9207 *  0.0000     4          
    16  Li    c     -5.8792 *    -1.9603 *     0.0000    0.0000     4          
    17  Li    c     -1.9585 *     5.8810 *     0.0000    0.0000     4          
    18  Li    c      0.0018 *     1.9603 *     5.8810 *  0.0000     8          
    19  Li    c      1.9621 *     5.8810 *     0.0000    0.0000     4          
    20  Li    c      5.8828 *    -1.9603 *     0.0000    0.0000     4          
    21  O     c     -5.8792 *    -1.9603 *    -1.9603    0.0000     4          
    22  O     c     -1.9585 *    -1.9603 *     5.8810 *  0.0000     8          
    23  O     c      1.9621 *    -1.9603 *     5.8810 *  0.0000     8          
    24  O     c      5.8828 *    -1.9603 *    -1.9603    0.0000     4          
    25  Cl    c     -3.9189 *     3.9207 *     3.9207    0.0000     4          
    26  Cl    c      3.9225 *     3.9207 *     3.9207    0.0000     4          
    27  Li    c     -5.8792 *    -1.9603 *     3.9207 *  0.0000     8          
    28  Li    c     -3.9189 *     1.9603 *     5.8810 *  0.0000     8          
    29  Li    c     -1.9585 *     5.8810 *     3.9207 *  0.0000     8          
    30  Li    c      1.9621 *     5.8810 *     3.9207 *  0.0000     8          
    31  Li    c      3.9225 *     1.9603 *     5.8810 *  0.0000     8          
    32  Li    c      5.8828 *    -1.9603 *     3.9207 *  0.0000     8          
    33  Cl    c     -7.8395 *     0.0000       0.0000    0.0000     1          
    34  Cl    c      0.0018 *     0.0000       7.8414 *  0.0000     4          
    35  Cl    c      7.8432 *     0.0000       0.0000    0.0000     1          
    36  Li    c     -7.8395 *     1.9603 *     1.9603    0.0000     4          
    37  Li    c     -5.8792 *     5.8810 *     0.0000    0.0000     4          
    38  Li    c     -1.9585 *    -1.9603 *     7.8414 *  0.0000     8          
    39  Li    c      0.0018 *     5.8810 *     5.8810    0.0000     4          
    40  Li    c      1.9621 *    -1.9603 *     7.8414 *  0.0000     8          
    41  Li    c      5.8828 *     5.8810 *     0.0000    0.0000     4          
    42  Li    c      7.8432 *     1.9603 *     1.9603    0.0000     4          
    43  O     c     -5.8792 *    -1.9603 *     5.8810 *  0.0000     8          
    44  O     c     -1.9585 *     5.8810 *     5.8810    0.0000     4          
    45  O     c      1.9621 *     5.8810 *     5.8810    0.0000     4          
    46  O     c      5.8828 *    -1.9603 *     5.8810 *  0.0000     8          
    47  Cl    c     -7.8395 *     0.0000       3.9207 *  0.0000     4          
    48  Cl    c     -3.9189 *     0.0000       7.8414 *  0.0000     4          
    49  Cl    c      0.0018 *     3.9207 *     7.8414 *  0.0000     8          
    50  Cl    c      3.9225 *     0.0000       7.8414 *  0.0000     4          
    51  Cl    c      7.8432 *     0.0000       3.9207 *  0.0000     4          
    52  Li    c     -5.8792 *     5.8810 *     3.9207 *  0.0000     8          
    53  Li    c     -3.9189 *     5.8810 *     5.8810    0.0000     4          
    54  Li    c      3.9225 *     5.8810 *     5.8810    0.0000     4          
    55  Li    c      5.8828 *     3.9207 *     5.8810 *  0.0000     8          
    56  Cl    c     -7.8395 *     3.9207 *     3.9207    0.0000     4          
    57  Cl    c     -3.9189 *     3.9207 *     7.8414 *  0.0000     8          
    58  Cl    c      3.9225 *     3.9207 *     7.8414 *  0.0000     8          
    59  Cl    c      7.8432 *     3.9207 *     3.9207    0.0000     4          
    60  Li    c     -9.7999 *    -1.9603 *     0.0000    0.0000     4          
    61  Li    c     -7.8395 *     1.9603 *     5.8810 *  0.0000     8          
    62  Li    c     -5.8792 *    -1.9603 *     7.8414 *  0.0000     8          
    63  Li    c     -1.9585 *     5.8810 *     7.8414 *  0.0000     8          
    64  Li    c     -1.9585 *     9.8017 *     0.0000    0.0000     4          
    65  Li    c      0.0018 *     1.9603 *     9.8017 *  0.0000     8          
    66  Li    c      1.9621 *     5.8810 *     7.8414 *  0.0000     8          
    67  Li    c      1.9621 *     9.8017 *     0.0000    0.0000     4          
    68  Li    c      5.8828 *    -1.9603 *     7.8414 *  0.0000     8          
    69  Li    c      7.8432 *     1.9603 *     5.8810 *  0.0000     8          
    70  Li    c      9.8035 *    -1.9603 *     0.0000    0.0000     4          
    71  O     c     -9.7999 *    -1.9603 *    -1.9603    0.0000     4          
    72  O     c     -5.8792 *     5.8810 *     5.8810    0.0000     4          
    73  O     c     -1.9585 *    -1.9603 *     9.8017 *  0.0000     8          
    74  O     c      1.9621 *    -1.9603 *     9.8017 *  0.0000     8          
    75  O     c      5.8828 *     5.8810 *     5.8810    0.0000     4          
    76  O     c      9.8035 *    -1.9603 *    -1.9603    0.0000     4          
    77  Li    c     -9.7999 *    -1.9603 *     3.9207 *  0.0000     8          
    78  Li    c     -3.9189 *     1.9603 *     9.8017 *  0.0000     8          
    79  Li    c     -1.9585 *     9.8017 *     3.9207 *  0.0000     8          
    80  Li    c      1.9621 *     3.9207 *     9.8017 *  0.0000     8          
    81  Li    c      3.9225 *     1.9603 *     9.8017 *  0.0000     8          
    82  Li    c      9.8035 *    -1.9603 *     3.9207 *  0.0000     8          
    83  Cl    c     -7.8395 *     0.0000       7.8414 *  0.0000     4          
    84  Cl    c      0.0018 *     7.8414 *     7.8414    0.0000     4          
    85  Cl    c      7.8432 *     0.0000       7.8414 *  0.0000     4          
    86  Li    c     -9.7999 *     5.8810 *     0.0000    0.0000     4          
    87  Li    c     -7.8395 *     5.8810 *     5.8810    0.0000     4          
    88  Li    c     -5.8792 *     5.8810 *     7.8414 *  0.0000     8          
    89  Li    c     -5.8792 *     9.8017 *     0.0000    0.0000     4          
    90  Li    c      0.0018 *     5.8810 *     9.8017 *  0.0000     8          
    91  Li    c      5.8828 *     5.8810 *     7.8414 *  0.0000     8          
    92  Li    c      5.8828 *     9.8017 *     0.0000    0.0000     4          
    93  Li    c      7.8432 *     5.8810 *     5.8810    0.0000     4          
    94  Li    c      9.8035 *     5.8810 *     0.0000    0.0000     4          
    95  O     c     -9.7999 *     5.8810 *    -1.9603 *  0.0000     8          
    96  O     c     -5.8792 *     9.8017 *    -1.9603 *  0.0000     8          
    97  O     c     -1.9585 *     5.8810 *     9.8017 *  0.0000     8          
    98  O     c      1.9621 *     5.8810 *     9.8017 *  0.0000     8          
    99  O     c      5.8828 *    -1.9603 *     9.8017 *  0.0000     8          
   100  O     c      9.8035 *    -1.9603 *     5.8810 *  0.0000     8          
   101  Cl    c    -11.7602 *     0.0000       0.0000    0.0000     1          
   102  Cl    c     -7.8395 *     3.9207 *     7.8414 *  0.0000     8          
   103  Cl    c     -3.9189 *     7.8414 *     7.8414    0.0000     4          
   104  Cl    c      0.0018 *     0.0000      11.7620 *  0.0000     4          
   105  Cl    c      3.9225 *     7.8414 *     7.8414    0.0000     4          
   106  Cl    c      7.8432 *     3.9207 *     7.8414 *  0.0000     8          
   107  Cl    c     11.7638 *     0.0000       0.0000    0.0000     1          
   108  Li    c    -11.7602 *     1.9603 *     1.9603    0.0000     4          
   109  Li    c     -9.7999 *     5.8810 *     3.9207 *  0.0000     8          
   110  Li    c     -5.8792 *     9.8017 *     3.9207 *  0.0000     8          
   111  Li    c     -3.9189 *     5.8810 *     9.8017 *  0.0000     8          
   112  Li    c     -1.9585 *    11.7620 *    -1.9603 *  0.0000     8          
   113  Li    c      1.9621 *    -1.9603 *    11.7620 *  0.0000     8          
   114  Li    c      3.9225 *     9.8017 *     5.8810 *  0.0000     8          
   115  Li    c      5.8828 *     9.8017 *     3.9207 *  0.0000     8          
   116  Li    c      9.8035 *     5.8810 *     3.9207 *  0.0000     8          
   117  Li    c     11.7638 *     1.9603 *     1.9603    0.0000     4          
   118  Cl    c    -11.7602 *     0.0000       3.9207 *  0.0000     4          
   119  Cl    c     -3.9189 *     0.0000      11.7620 *  0.0000     4          
   120  Cl    c      0.0018 *     3.9207 *    11.7620 *  0.0000     8          
   121  Cl    c      3.9225 *     0.0000      11.7620 *  0.0000     4          
   122  Cl    c     11.7638 *     0.0000       3.9207 *  0.0000     4          
   123  Li    c     -9.7999 *    -1.9603 *     7.8414 *  0.0000     8          
   124  Li    c     -7.8395 *     9.8017 *     1.9603 *  0.0000     8          
   125  Li    c     -1.9585 *     9.8017 *     7.8414 *  0.0000     8          
   126  Li    c      1.9621 *     9.8017 *     7.8414 *  0.0000     8          
   127  Li    c      7.8432 *     1.9603 *     9.8017 *  0.0000     8          
   128  Li    c      9.8035 *    -1.9603 *     7.8414 *  0.0000     8          
   129  O     c     -9.7999 *     5.8810 *     5.8810    0.0000     4          
   130  O     c     -5.8792 *     5.8810 *     9.8017 *  0.0000     8          
   131  O     c      5.8828 *     5.8810 *     9.8017 *  0.0000     8          
   132  O     c      9.8035 *     5.8810 *     5.8810    0.0000     4          
   133  Cl    c    -11.7602 *     3.9207 *     3.9207    0.0000     4          
   134  Cl    c     -3.9189 *    11.7620 *     3.9207 *  0.0000     8          
   135  Cl    c      3.9225 *     3.9207 *    11.7620 *  0.0000     8          
   136  Cl    c     11.7638 *     3.9207 *     3.9207    0.0000     4          
   137  Li    c    -11.7602 *     1.9603 *     5.8810 *  0.0000     8          
   138  Li    c     -5.8792 *    -1.9603 *    11.7620 *  0.0000     8          
   139  Li    c     -1.9585 *     5.8810 *    11.7620 *  0.0000     8          
   140  Li    c      1.9621 *     5.8810 *    11.7620 *  0.0000     8          
   141  Li    c      5.8828 *    -1.9603 *    11.7620 *  0.0000     8          
   142  Li    c     11.7638 *     1.9603 *     5.8810 *  0.0000     8          
   143  Cl    c     -7.8395 *     7.8414 *     7.8414    0.0000     4          
   144  Cl    c      7.8432 *     7.8414 *     7.8414    0.0000     4          
   145  Li    c    -13.7206 *    -1.9603 *     0.0000    0.0000     4          
   146  Li    c     -9.7999 *     5.8810 *     7.8414 *  0.0000     8          
   147  Li    c     -9.7999 *     9.8017 *     0.0000    0.0000     4          
   148  Li    c     -7.8395 *     9.8017 *     5.8810 *  0.0000     8          
   149  Li    c     -5.8792 *     9.8017 *     7.8414 *  0.0000     8          
   150  Li    c     -1.9585 *    13.7224 *     0.0000    0.0000     4          
   151  Li    c      0.0018 *     1.9603 *    13.7224 *  0.0000     8          
   152  Li    c      0.0018 *     9.8017 *     9.8017    0.0000     4          
   153  Li    c      1.9621 *    13.7224 *     0.0000    0.0000     4          
   154  Li    c      5.8828 *     9.8017 *     7.8414 *  0.0000     8          
   155  Li    c      7.8432 *     5.8810 *     9.8017 *  0.0000     8          
   156  Li    c      9.8035 *     5.8810 *     7.8414 *  0.0000     8          
   157  Li    c      9.8035 *     9.8017 *     0.0000    0.0000     4          
   158  Li    c     13.7242 *    -1.9603 *     0.0000    0.0000     4          
   159  O     c    -13.7206 *    -1.9603 *    -1.9603    0.0000     4          
   160  O     c     -9.7999 *     9.8017 *    -1.9603 *  0.0000     8          
   161  O     c     -1.9585 *    13.7224 *    -1.9603 *  0.0000     8          
   162  O     c     -1.9585 *     9.8017 *     9.8017    0.0000     4          
   163  O     c      1.9621 *    -1.9603 *    13.7224 *  0.0000     8          
   164  O     c      1.9621 *     9.8017 *     9.8017    0.0000     4          
   165  O     c      9.8035 *    -1.9603 *     9.8017 *  0.0000     8          
   166  O     c     13.7242 *    -1.9603 *    -1.9603    0.0000     4          
   167  Cl    c    -11.7602 *     0.0000       7.8414 *  0.0000     4          
   168  Cl    c     -7.8395 *     0.0000      11.7620 *  0.0000     4          
   169  Cl    c      0.0018 *     7.8414 *    11.7620 *  0.0000     8          
   170  Cl    c      7.8432 *     0.0000      11.7620 *  0.0000     4          
   171  Cl    c     11.7638 *     0.0000       7.8414 *  0.0000     4          
   172  Li    c    -13.7206 *    -1.9603 *     3.9207 *  0.0000     8          
   173  Li    c    -11.7602 *     5.8810 *     5.8810    0.0000     4          
   174  Li    c     -9.7999 *     9.8017 *     3.9207 *  0.0000     8          
   175  Li    c     -5.8792 *     5.8810 *    11.7620 *  0.0000     8          
   176  Li    c     -3.9189 *    13.7224 *     1.9603 *  0.0000     8          
   177  Li    c     -3.9189 *     9.8017 *     9.8017    0.0000     4          
   178  Li    c     -1.9585 *    13.7224 *     3.9207 *  0.0000     8          
   179  Li    c      1.9621 *    13.7224 *     3.9207 *  0.0000     8          
   180  Li    c      3.9225 *     1.9603 *    13.7224 *  0.0000     8          
   181  Li    c      3.9225 *     9.8017 *     9.8017    0.0000     4          
   182  Li    c      5.8828 *     5.8810 *    11.7620 *  0.0000     8          
   183  Li    c      9.8035 *     9.8017 *     3.9207 *  0.0000     8          
   184  Li    c     11.7638 *     5.8810 *     5.8810    0.0000     4          
   185  Li    c     13.7242 *    -1.9603 *     3.9207 *  0.0000     8          
   186  Cl    c    -11.7602 *     3.9207 *     7.8414 *  0.0000     8          
   187  Cl    c     -7.8395 *     3.9207 *    11.7620 *  0.0000     8          
   188  Cl    c     -3.9189 *     7.8414 *    11.7620 *  0.0000     8          
   189  Cl    c      3.9225 *     7.8414 *    11.7620 *  0.0000     8          
   190  Cl    c      7.8432 *    11.7620 *     3.9207 *  0.0000     8          
   191  Cl    c     11.7638 *     3.9207 *     7.8414 *  0.0000     8          
   192  Li    c    -13.7206 *     5.8810 *     0.0000    0.0000     4          
   193  Li    c     -5.8792 *    13.7224 *     0.0000    0.0000     4          
   194  Li    c      0.0018 *     5.8810 *    13.7224 *  0.0000     8          
   195  Li    c      5.8828 *    13.7224 *     0.0000    0.0000     4          
   196  Li    c     13.7242 *     5.8810 *     0.0000    0.0000     4          
   197  O     c    -13.7206 *    -1.9603 *     5.8810 *  0.0000     8          
   198  O     c     -9.7999 *     5.8810 *     9.8017 *  0.0000     8          
   199  O     c     -5.8792 *    13.7224 *    -1.9603 *  0.0000     8          
   200  O     c     -5.8792 *     9.8017 *     9.8017    0.0000     4          
   201  O     c     -1.9585 *     5.8810 *    13.7224 *  0.0000     8          
   202  O     c      1.9621 *     5.8810 *    13.7224 *  0.0000     8          
   203  O     c      5.8828 *    -1.9603 *    13.7224 *  0.0000     8          
   204  O     c      5.8828 *     9.8017 *     9.8017    0.0000     4          
   205  O     c      9.8035 *     5.8810 *     9.8017 *  0.0000     8          
   206  O     c     13.7242 *    -1.9603 *     5.8810 *  0.0000     8          
   207  Li    c    -13.7206 *     5.8810 *     3.9207 *  0.0000     8          
   208  Li    c    -11.7602 *     1.9603 *     9.8017 *  0.0000     8          
   209  Li    c     -9.7999 *    -1.9603 *    11.7620 *  0.0000     8          
   210  Li    c     -5.8792 *    13.7224 *     3.9207 *  0.0000     8          
   211  Li    c     -3.9189 *    13.7224 *     5.8810 *  0.0000     8          
   212  Li    c     -1.9585 *     9.8017 *    11.7620 *  0.0000     8          
   213  Li    c      1.9621 *     9.8017 *    11.7620 *  0.0000     8          
   214  Li    c      3.9225 *     5.8810 *    13.7224 *  0.0000     8          
   215  Li    c      5.8828 *    13.7224 *     3.9207 *  0.0000     8          
   216  Li    c      9.8035 *    11.7620 *    -1.9603 *  0.0000     8          
   217  Li    c     11.7638 *     1.9603 *     9.8017 *  0.0000     8          
   218  Li    c     13.7242 *     5.8810 *     3.9207 *  0.0000     8          
   219  Cl    c    -15.6809 *     0.0000       0.0000    0.0000     1          
   220  Cl    c      0.0018 *     0.0000      15.6827 *  0.0000     4          
   221  Cl    c     15.6845 *     0.0000       0.0000    0.0000     1          
   222  Li    c    -15.6809 *     1.9603 *     1.9603    0.0000     4          
   223  Li    c    -13.7206 *    -1.9603 *     7.8414 *  0.0000     8          
   224  Li    c     -9.7999 *     9.8017 *     7.8414 *  0.0000     8          
   225  Li    c     -7.8395 *    13.7224 *     1.9603 *  0.0000     8          
   226  Li    c     -7.8395 *     9.8017 *     9.8017    0.0000     4          
   227  Li    c     -1.9585 *    15.6827 *    -1.9603 *  0.0000     8          
   228  Li    c     -1.9585 *    13.7224 *     7.8414 *  0.0000     8          
   229  Li    c      1.9621 *    -1.9603 *    15.6827 *  0.0000     8          
   230  Li    c      1.9621 *    13.7224 *     7.8414 *  0.0000     8          
   231  Li    c      7.8432 *     1.9603 *    13.7224 *  0.0000     8          
   232  Li    c      7.8432 *     9.8017 *     9.8017    0.0000     4          
   233  Li    c      9.8035 *     9.8017 *     7.8414 *  0.0000     8          
   234  Li    c     13.7242 *    -1.9603 *     7.8414 *  0.0000     8          
   235  Li    c     15.6845 *     1.9603 *     1.9603    0.0000     4          
   236  O     c    -13.7206 *     5.8810 *     5.8810    0.0000     4          
   237  O     c     -5.8792 *     5.8810 *    13.7224 *  0.0000     8          
   238  O     c      5.8828 *     5.8810 *    13.7224 *  0.0000     8          
   239  O     c     13.7242 *     5.8810 *     5.8810    0.0000     4          
   240  Cl    c    -15.6809 *     0.0000       3.9207 *  0.0000     4          
   241  Cl    c    -11.7602 *     7.8414 *     7.8414    0.0000     4          
   242  Cl    c     -7.8395 *     7.8414 *    11.7620 *  0.0000     8          
   243  Cl    c     -3.9189 *     0.0000      15.6827 *  0.0000     4          
   244  Cl    c      0.0018 *     3.9207 *    15.6827 *  0.0000     8          
   245  Cl    c      3.9225 *     0.0000      15.6827 *  0.0000     4          
   246  Cl    c      7.8432 *     7.8414 *    11.7620 *  0.0000     8          
   247  Cl    c     11.7638 *     7.8414 *     7.8414    0.0000     4          
   248  Cl    c     15.6845 *     0.0000       3.9207 *  0.0000     4          
   249  Li    c    -11.7602 *     5.8810 *     9.8017 *  0.0000     8          
   250  Li    c     -9.7999 *     5.8810 *    11.7620 *  0.0000     8          
   251  Li    c     -5.8792 *     9.8017 *    11.7620 *  0.0000     8          
   252  Li    c      5.8828 *     9.8017 *    11.7620 *  0.0000     8          
   253  Li    c      9.8035 *     5.8810 *    11.7620 *  0.0000     8          
   254  Li    c     11.7638 *     5.8810 *     9.8017 *  0.0000     8          
   255  Cl    c    -15.6809 *     3.9207 *     3.9207    0.0000     4          
   256  Cl    c    -11.7602 *     0.0000      11.7620 *  0.0000     4          
   257  Cl    c     -3.9189 *     3.9207 *    15.6827 *  0.0000     8          
   258  Cl    c      0.0018 *    11.7620 *    11.7620    0.0000     4          
   259  Cl    c      3.9225 *     3.9207 *    15.6827 *  0.0000     8          
   260  Cl    c     11.7638 *     0.0000      11.7620 *  0.0000     4          
   261  Cl    c     15.6845 *     3.9207 *     3.9207    0.0000     4          
   262  Li    c    -15.6809 *     1.9603 *     5.8810 *  0.0000     8          
   263  Li    c    -13.7206 *     7.8414 *     5.8810 *  0.0000     8          
   264  Li    c    -13.7206 *     9.8017 *     0.0000    0.0000     4          
   265  Li    c     -9.7999 *    13.7224 *     0.0000    0.0000     4          
   266  Li    c     -7.8395 *     5.8810 *    13.7224 *  0.0000     8          
   267  Li    c     -5.8792 *    -1.9603 *    15.6827 *  0.0000     8          
   268  Li    c     -5.8792 *    13.7224 *     7.8414 *  0.0000     8          
   269  Li    c     -1.9585 *     5.8810 *    15.6827 *  0.0000     8          
   270  Li    c      0.0018 *     9.8017 *    13.7224 *  0.0000     8          
   271  Li    c      1.9621 *     5.8810 *    15.6827 *  0.0000     8          
   272  Li    c      5.8828 *    -1.9603 *    15.6827 *  0.0000     8          
   273  Li    c      5.8828 *    13.7224 *     7.8414 *  0.0000     8          
   274  Li    c      7.8432 *     5.8810 *    13.7224 *  0.0000     8          
   275  Li    c      9.8035 *    13.7224 *     0.0000    0.0000     4          
   276  Li    c     13.7242 *     5.8810 *     7.8414 *  0.0000     8          
   277  Li    c     13.7242 *     9.8017 *     0.0000    0.0000     4          
   278  Li    c     15.6845 *     1.9603 *     5.8810 *  0.0000     8          
   279  O     c    -13.7206 *    -1.9603 *     9.8017 *  0.0000     8          
   280  O     c     -9.7999 *    13.7224 *    -1.9603 *  0.0000     8          
   281  O     c     -9.7999 *     9.8017 *     9.8017    0.0000     4          
   282  O     c     -1.9585 *     9.8017 *    13.7224 *  0.0000     8          
   283  O     c      1.9621 *     9.8017 *    13.7224 *  0.0000     8          
   284  O     c      9.8035 *    -1.9603 *    13.7224 *  0.0000     8          
   285  O     c      9.8035 *     9.8017 *     9.8017    0.0000     4          
   286  O     c     13.7242 *     9.8017 *    -1.9603 *  0.0000     8          
   287  Cl    c    -11.7602 *     3.9207 *    11.7620 *  0.0000     8          
   288  Cl    c     -3.9189 *    11.7620 *    11.7620    0.0000     4          
   289  Cl    c      3.9225 *    11.7620 *    11.7620    0.0000     4          
   290  Cl    c     11.7638 *     3.9207 *    11.7620 *  0.0000     8          
   291  Li    c    -13.7206 *     9.8017 *     3.9207 *  0.0000     8          
   292  Li    c     -9.7999 *    13.7224 *     3.9207 *  0.0000     8          
   293  Li    c     -3.9189 *     9.8017 *    13.7224 *  0.0000     8          
   294  Li    c      3.9225 *     9.8017 *    13.7224 *  0.0000     8          
   295  Li    c      9.8035 *    13.7224 *     3.9207 *  0.0000     8          
   296  Li    c     13.7242 *     9.8017 *     3.9207 *  0.0000     8          
   297  Cl    c    -15.6809 *     0.0000       7.8414 *  0.0000     4          
   298  Cl    c     -7.8395 *     0.0000      15.6827 *  0.0000     4          
   299  Cl    c      0.0018 *     7.8414 *    15.6827 *  0.0000     8          
   300  Cl    c      7.8432 *     0.0000      15.6827 *  0.0000     4          
   301  Cl    c     15.6845 *     0.0000       7.8414 *  0.0000     4          
   302  Li    c    -17.6412 *    -1.9603 *     0.0000    0.0000     4          
   303  Li    c    -15.6809 *     5.8810 *     5.8810    0.0000     4          
   304  Li    c     -5.8792 *     5.8810 *    15.6827 *  0.0000     8          
   305  Li    c     -1.9585 *    17.6430 *     0.0000    0.0000     4          
   306  Li    c      0.0018 *     1.9603 *    17.6430 *  0.0000     8          
   307  Li    c      1.9621 *    17.6430 *     0.0000    0.0000     4          
   308  Li    c      5.8828 *     5.8810 *    15.6827 *  0.0000     8          
   309  Li    c     15.6845 *     5.8810 *     5.8810    0.0000     4          
   310  Li    c     17.6448 *    -1.9603 *     0.0000    0.0000     4          
   311  O     c    -17.6412 *    -1.9603 *    -1.9603    0.0000     4          
   312  O     c    -13.7206 *     5.8810 *     9.8017 *  0.0000     8          
   313  O     c     -9.7999 *     5.8810 *    13.7224 *  0.0000     8          
   314  O     c     -5.8792 *     9.8017 *    13.7224 *  0.0000     8          
   315  O     c     -1.9585 *    -1.9603 *    17.6430 *  0.0000     8          
   316  O     c      1.9621 *    17.6430 *    -1.9603 *  0.0000     8          
   317  O     c      5.8828 *     9.8017 *    13.7224 *  0.0000     8          
   318  O     c      9.8035 *     5.8810 *    13.7224 *  0.0000     8          
   319  O     c     13.7242 *     9.8017 *     5.8810 *  0.0000     8          
   320  O     c     17.6448 *    -1.9603 *    -1.9603    0.0000     4          
   321  Cl    c    -15.6809 *     3.9207 *     7.8414 *  0.0000     8          
   322  Cl    c     -7.8395 *     3.9207 *    15.6827 *  0.0000     8          
   323  Cl    c     -3.9189 *     7.8414 *    15.6827 *  0.0000     8          
   324  Cl    c      3.9225 *     7.8414 *    15.6827 *  0.0000     8          
   325  Cl    c      7.8432 *     3.9207 *    15.6827 *  0.0000     8          
   326  Cl    c     15.6845 *     3.9207 *     7.8414 *  0.0000     8          
   327  Li    c    -17.6412 *    -1.9603 *     3.9207 *  0.0000     8          
   328  Li    c    -13.7206 *    -1.9603 *    11.7620 *  0.0000     8          
   329  Li    c    -11.7602 *     1.9603 *    13.7224 *  0.0000     8          
   330  Li    c    -11.7602 *     9.8017 *     9.8017    0.0000     4          
   331  Li    c     -9.7999 *     9.8017 *    11.7620 *  0.0000     8          
   332  Li    c     -3.9189 *     1.9603 *    17.6430 *  0.0000     8          
   333  Li    c     -1.9585 *    13.7224 *    11.7620 *  0.0000     8          
   334  Li    c     -1.9585 *     3.9207 *    17.6430 *  0.0000     8          
   335  Li    c      1.9621 *    13.7224 *    11.7620 *  0.0000     8          
   336  Li    c      1.9621 *    17.6430 *     3.9207 *  0.0000     8          
   337  Li    c      3.9225 *     1.9603 *    17.6430 *  0.0000     8          
   338  Li    c      9.8035 *    11.7620 *     9.8017 *  0.0000     8          
   339  Li    c     11.7638 *     1.9603 *    13.7224 *  0.0000     8          
   340  Li    c     11.7638 *     9.8017 *     9.8017    0.0000     4          
   341  Li    c     13.7242 *    -1.9603 *    11.7620 *  0.0000     8          
   342  Li    c     17.6448 *    -1.9603 *     3.9207 *  0.0000     8          
   343  Cl    c    -11.7602 *     7.8414 *    11.7620 *  0.0000     8          
   344  Cl    c     -7.8395 *    11.7620 *    11.7620    0.0000     4          
   345  Cl    c      7.8432 *    11.7620 *    11.7620    0.0000     4          
   346  Cl    c     11.7638 *     7.8414 *    11.7620 *  0.0000     8          
   347  Li    c    -17.6412 *     5.8810 *     0.0000    0.0000     4          
   348  Li    c    -15.6809 *     1.9603 *     9.8017 *  0.0000     8          
   349  Li    c    -13.7206 *     9.8017 *     7.8414 *  0.0000     8          
   350  Li    c     -9.7999 *    -1.9603 *    15.6827 *  0.0000     8          
   351  Li    c     -9.7999 *    13.7224 *     7.8414 *  0.0000     8          
   352  Li    c     -7.8395 *     9.8017 *    13.7224 *  0.0000     8          
   353  Li    c     -5.8792 *    17.6430 *     0.0000    0.0000     4          
   354  Li    c     -1.9585 *     9.8017 *    15.6827 *  0.0000     8          
   355  Li    c      0.0018 *     5.8810 *    17.6430 *  0.0000     8          
   356  Li    c      1.9621 *     9.8017 *    15.6827 *  0.0000     8          
   357  Li    c      5.8828 *    17.6430 *     0.0000    0.0000     4          
   358  Li    c      7.8432 *     9.8017 *    13.7224 *  0.0000     8          
   359  Li    c      9.8035 *    -1.9603 *    15.6827 *  0.0000     8          
   360  Li    c      9.8035 *    13.7224 *     7.8414 *  0.0000     8          
   361  Li    c     13.7242 *     9.8017 *     7.8414 *  0.0000     8          
   362  Li    c     15.6845 *     1.9603 *     9.8017 *  0.0000     8          
   363  Li    c     17.6448 *     5.8810 *     0.0000    0.0000     4          
   364  O     c    -17.6412 *    -1.9603 *     5.8810 *  0.0000     8          
   365  O     c     -5.8792 *    -1.9603 *    17.6430 *  0.0000     8          
   366  O     c     -1.9585 *     5.8810 *    17.6430 *  0.0000     8          
   367  O     c      1.9621 *    17.6430 *     5.8810 *  0.0000     8          
   368  O     c      5.8828 *    17.6430 *    -1.9603 *  0.0000     8          
   369  O     c     17.6448 *     5.8810 *    -1.9603 *  0.0000     8          
   370  Li    c    -17.6412 *     3.9207 *     5.8810 *  0.0000     8          
   371  Li    c    -13.7206 *     5.8810 *    11.7620 *  0.0000     8          
   372  Li    c    -11.7602 *     5.8810 *    13.7224 *  0.0000     8          
   373  Li    c     -5.8792 *    13.7224 *    11.7620 *  0.0000     8          
   374  Li    c     -5.8792 *    17.6430 *     3.9207 *  0.0000     8          
   375  Li    c     -3.9189 *     5.8810 *    17.6430 *  0.0000     8          
   376  Li    c      3.9225 *     5.8810 *    17.6430 *  0.0000     8          
   377  Li    c      5.8828 *    13.7224 *    11.7620 *  0.0000     8          
   378  Li    c      5.8828 *    17.6430 *     3.9207 *  0.0000     8          
   379  Li    c     11.7638 *     5.8810 *    13.7224 *  0.0000     8          
   380  Li    c     13.7242 *     5.8810 *    11.7620 *  0.0000     8          
   381  Li    c     17.6448 *     5.8810 *     3.9207 *  0.0000     8          
   382  Cl    c    -15.6809 *     7.8414 *     7.8414    0.0000     4          
   383  Cl    c     -7.8395 *     7.8414 *    15.6827 *  0.0000     8          
   384  Cl    c      7.8432 *     7.8414 *    15.6827 *  0.0000     8          
   385  Cl    c     15.6845 *     7.8414 *     7.8414    0.0000     4          
   386  Li    c    -17.6412 *    -1.9603 *     7.8414 *  0.0000     8          
   387  Li    c    -15.6809 *     5.8810 *     9.8017 *  0.0000     8          
   388  Li    c    -13.7206 *    13.7224 *     0.0000    0.0000     4          
   389  Li    c     -9.7999 *     5.8810 *    15.6827 *  0.0000     8          
   390  Li    c     -7.8395 *     1.9603 *    17.6430 *  0.0000     8          
   391  Li    c     -5.8792 *     9.8017 *    15.6827 *  0.0000     8          
   392  Li    c     -1.9585 *     7.8414 *    17.6430 *  0.0000     8          
   393  Li    c      0.0018 *    13.7224 *    13.7224    0.0000     4          
   394  Li    c      1.9621 *    17.6430 *     7.8414 *  0.0000     8          
   395  Li    c      5.8828 *     9.8017 *    15.6827 *  0.0000     8          
   396  Li    c      7.8432 *    17.6430 *     1.9603 *  0.0000     8          
   397  Li    c      9.8035 *     5.8810 *    15.6827 *  0.0000     8          
   398  Li    c     13.7242 *    13.7224 *     0.0000    0.0000     4          
   399  Li    c     15.6845 *     5.8810 *     9.8017 *  0.0000     8          
   400  Li    c     17.6448 *    -1.9603 *     7.8414 *  0.0000     8          
   401  O     c    -17.6412 *     5.8810 *     5.8810    0.0000     4          
   402  O     c    -13.7206 *    -1.9603 *    13.7224 *  0.0000     8          
   403  O     c    -13.7206 *     9.8017 *     9.8017    0.0000     4          
   404  O     c     -9.7999 *     9.8017 *    13.7224 *  0.0000     8          
   405  O     c     -5.8792 *     5.8810 *    17.6430 *  0.0000     8          
   406  O     c     -1.9585 *    13.7224 *    13.7224    0.0000     4          
   407  O     c      1.9621 *    13.7224 *    13.7224    0.0000     4          
   408  O     c      5.8828 *    17.6430 *     5.8810 *  0.0000     8          
   409  O     c      9.8035 *     9.8017 *    13.7224 *  0.0000     8          
   410  O     c     13.7242 *    13.7224 *    -1.9603 *  0.0000     8          
   411  O     c     13.7242 *     9.8017 *     9.8017    0.0000     4          
   412  O     c     17.6448 *     5.8810 *     5.8810    0.0000     4          
   413  Cl    c    -19.6016 *     0.0000       0.0000    0.0000     1          
   414  Cl    c    -15.6809 *     0.0000      11.7620 *  0.0000     4          
   415  Cl    c    -11.7602 *     0.0000      15.6827 *  0.0000     4          
   416  Cl    c      0.0018 *    11.7620 *    15.6827 *  0.0000     8          
   417  Cl    c      0.0018 *     0.0000      19.6034 *  0.0000     4          
   418  Cl    c     11.7638 *     0.0000      15.6827 *  0.0000     4          
   419  Cl    c     15.6845 *     0.0000      11.7620 *  0.0000     4          
   420  Cl    c     19.6052 *     0.0000       0.0000    0.0000     1          
   421  Li    c    -19.6016 *     1.9603 *     1.9603    0.0000     4          
   422  Li    c    -13.7206 *    13.7224 *     3.9207 *  0.0000     8          
   423  Li    c     -3.9189 *    13.7224 *    13.7224    0.0000     4          
   424  Li    c     -1.9585 *    -1.9603 *    19.6034 *  0.0000     8          
   425  Li    c      1.9621 *    19.6034 *    -1.9603 *  0.0000     8          
   426  Li    c      3.9225 *    13.7224 *    13.7224    0.0000     4          
   427  Li    c     13.7242 *    13.7224 *     3.9207 *  0.0000     8          
   428  Li    c     19.6052 *     1.9603 *     1.9603    0.0000     4          
   429  Cl    c    -19.6016 *     0.0000       3.9207 *  0.0000     4          
   430  Cl    c    -15.6809 *     3.9207 *    11.7620 *  0.0000     8          
   431  Cl    c    -11.7602 *     3.9207 *    15.6827 *  0.0000     8          
   432  Cl    c     -3.9189 *    11.7620 *    15.6827 *  0.0000     8          
   433  Cl    c     -3.9189 *     0.0000      19.6034 *  0.0000     4          
   434  Cl    c      0.0018 *     3.9207 *    19.6034 *  0.0000     8          
   435  Cl    c      3.9225 *    11.7620 *    15.6827 *  0.0000     8          
   436  Cl    c      3.9225 *     0.0000      19.6034 *  0.0000     4          
   437  Cl    c     11.7638 *     3.9207 *    15.6827 *  0.0000     8          
   438  Cl    c     15.6845 *     3.9207 *    11.7620 *  0.0000     8          
   439  Cl    c     19.6052 *     0.0000       3.9207 *  0.0000     4          
   440  Cl    s      0.0000       0.0000       0.0000    0.0000     1    Defect
   441  O     s     -1.9585 *    -1.9603 *    -1.9603    0.0000     4          
   442  O     s      1.9621 *    -1.9603 *    -1.9603    0.0000     4          
   443  Cl    s      0.0018 *     0.0000       3.9207 *  0.0000     4          
   444  Cl    s      3.9225 *     0.0000       0.0000    0.0000     1          
   445  Cl    s     -3.9189 *     0.0000       3.9207 *  0.0000     4          
   446  Cl    s      0.0018 *     3.9207 *     3.9207    0.0000     4          
   447  Cl    s      3.9225 *     0.0000       3.9207 *  0.0000     4          
   448  O     s     -5.8792 *    -1.9603 *    -1.9603    0.0000     4          
   449  O     s     -1.9585 *    -1.9603 *     5.8810 *  0.0000     8          
   450  O     s      1.9621 *    -1.9603 *     5.8810 *  0.0000     8          
   451  O     s      5.8828 *    -1.9603 *    -1.9603    0.0000     4          
   452  Cl    s     -3.9189 *     3.9207 *     3.9207    0.0000     4          
   453  Cl    s      3.9225 *     3.9207 *     3.9207    0.0000     4          
   454  Cl    s     -7.8395 *     0.0000       0.0000    0.0000     1          
   455  Cl    s      0.0018 *     0.0000       7.8414 *  0.0000     4          
   456  Cl    s      7.8432 *     0.0000       0.0000    0.0000     1          
   457  O     s     -5.8792 *    -1.9603 *     5.8810 *  0.0000     8          
   458  O     s     -1.9585 *     5.8810 *     5.8810    0.0000     4          
   459  O     s      1.9621 *     5.8810 *     5.8810    0.0000     4          
   460  O     s      5.8828 *    -1.9603 *     5.8810 *  0.0000     8          
   461  Cl    s     -7.8395 *     0.0000       3.9207 *  0.0000     4          
   462  Cl    s     -3.9189 *     0.0000       7.8414 *  0.0000     4          
   463  Cl    s      0.0018 *     3.9207 *     7.8414 *  0.0000     8          
   464  Cl    s      3.9225 *     0.0000       7.8414 *  0.0000     4          
   465  Cl    s      7.8432 *     0.0000       3.9207 *  0.0000     4          
   466  Cl    s     -7.8395 *     3.9207 *     3.9207    0.0000     4          
   467  Cl    s     -3.9189 *     3.9207 *     7.8414 *  0.0000     8          
   468  Cl    s      3.9225 *     3.9207 *     7.8414 *  0.0000     8          
   469  Cl    s      7.8432 *     3.9207 *     3.9207    0.0000     4          
   470  O     s     -9.7999 *    -1.9603 *    -1.9603    0.0000     4          
   471  O     s     -5.8792 *     5.8810 *     5.8810    0.0000     4          
   472  O     s     -1.9585 *    -1.9603 *     9.8017 *  0.0000     8          
   473  O     s      1.9621 *    -1.9603 *     9.8017 *  0.0000     8          
   474  O     s      5.8828 *     5.8810 *     5.8810    0.0000     4          
   475  O     s      9.8035 *    -1.9603 *    -1.9603    0.0000     4          
   476  Cl    s     -7.8395 *     0.0000       7.8414 *  0.0000     4          
   477  Cl    s      0.0018 *     7.8414 *     7.8414    0.0000     4          
   478  Cl    s      7.8432 *     0.0000       7.8414 *  0.0000     4          
   479  O     s     -9.7999 *     5.8810 *    -1.9603 *  0.0000     8          
   480  O     s     -5.8792 *     9.8017 *    -1.9603 *  0.0000     8          
   481  O     s     -1.9585 *     5.8810 *     9.8017 *  0.0000     8          
   482  O     s      1.9621 *     5.8810 *     9.8017 *  0.0000     8          
   483  O     s      5.8828 *    -1.9603 *     9.8017 *  0.0000     8          
   484  O     s      9.8035 *    -1.9603 *     5.8810 *  0.0000     8          
   485  Cl    s    -11.7602 *     0.0000       0.0000    0.0000     1          
   486  Cl    s     -7.8395 *     3.9207 *     7.8414 *  0.0000     8          
   487  Cl    s     -3.9189 *     7.8414 *     7.8414    0.0000     4          
   488  Cl    s      0.0018 *     0.0000      11.7620 *  0.0000     4          
   489  Cl    s      3.9225 *     7.8414 *     7.8414    0.0000     4          
   490  Cl    s      7.8432 *     3.9207 *     7.8414 *  0.0000     8          
   491  Cl    s     11.7638 *     0.0000       0.0000    0.0000     1          
   492  Cl    s    -11.7602 *     0.0000       3.9207 *  0.0000     4          
   493  Cl    s     -3.9189 *     0.0000      11.7620 *  0.0000     4          
   494  Cl    s      0.0018 *     3.9207 *    11.7620 *  0.0000     8          
   495  Cl    s      3.9225 *     0.0000      11.7620 *  0.0000     4          
   496  Cl    s     11.7638 *     0.0000       3.9207 *  0.0000     4          
   497  O     s     -9.7999 *     5.8810 *     5.8810    0.0000     4          
   498  O     s     -5.8792 *     5.8810 *     9.8017 *  0.0000     8          
   499  O     s      5.8828 *     5.8810 *     9.8017 *  0.0000     8          
   500  O     s      9.8035 *     5.8810 *     5.8810    0.0000     4          
   501  Cl    s    -11.7602 *     3.9207 *     3.9207    0.0000     4          
   502  Cl    s     -3.9189 *    11.7620 *     3.9207 *  0.0000     8          
   503  Cl    s      3.9225 *     3.9207 *    11.7620 *  0.0000     8          
   504  Cl    s     11.7638 *     3.9207 *     3.9207    0.0000     4          
   505  Cl    s     -7.8395 *     7.8414 *     7.8414    0.0000     4          
   506  Cl    s      7.8432 *     7.8414 *     7.8414    0.0000     4          
   507  O     s    -13.7206 *    -1.9603 *    -1.9603    0.0000     4          
   508  O     s     -9.7999 *     9.8017 *    -1.9603 *  0.0000     8          
   509  O     s     -1.9585 *    13.7224 *    -1.9603 *  0.0000     8          
   510  O     s     -1.9585 *     9.8017 *     9.8017    0.0000     4          
   511  O     s      1.9621 *    -1.9603 *    13.7224 *  0.0000     8          
   512  O     s      1.9621 *     9.8017 *     9.8017    0.0000     4          
   513  O     s      9.8035 *    -1.9603 *     9.8017 *  0.0000     8          
   514  O     s     13.7242 *    -1.9603 *    -1.9603    0.0000     4          
   515  Cl    s    -11.7602 *     0.0000       7.8414 *  0.0000     4          
   516  Cl    s     -7.8395 *     0.0000      11.7620 *  0.0000     4          
   517  Cl    s      0.0018 *     7.8414 *    11.7620 *  0.0000     8          
   518  Cl    s      7.8432 *     0.0000      11.7620 *  0.0000     4          
   519  Cl    s     11.7638 *     0.0000       7.8414 *  0.0000     4          
   520  Cl    s    -11.7602 *     3.9207 *     7.8414 *  0.0000     8          
   521  Cl    s     -7.8395 *     3.9207 *    11.7620 *  0.0000     8          
   522  Cl    s     -3.9189 *     7.8414 *    11.7620 *  0.0000     8          
   523  Cl    s      3.9225 *     7.8414 *    11.7620 *  0.0000     8          
   524  Cl    s      7.8432 *    11.7620 *     3.9207 *  0.0000     8          
   525  Cl    s     11.7638 *     3.9207 *     7.8414 *  0.0000     8          
   526  O     s    -13.7206 *    -1.9603 *     5.8810 *  0.0000     8          
   527  O     s     -9.7999 *     5.8810 *     9.8017 *  0.0000     8          
   528  O     s     -5.8792 *    13.7224 *    -1.9603 *  0.0000     8          
   529  O     s     -5.8792 *     9.8017 *     9.8017    0.0000     4          
   530  O     s     -1.9585 *     5.8810 *    13.7224 *  0.0000     8          
   531  O     s      1.9621 *     5.8810 *    13.7224 *  0.0000     8          
   532  O     s      5.8828 *    -1.9603 *    13.7224 *  0.0000     8          
   533  O     s      5.8828 *     9.8017 *     9.8017    0.0000     4          
   534  O     s      9.8035 *     5.8810 *     9.8017 *  0.0000     8          
   535  O     s     13.7242 *    -1.9603 *     5.8810 *  0.0000     8          
   536  Cl    s    -15.6809 *     0.0000       0.0000    0.0000     1          
   537  Cl    s      0.0018 *     0.0000      15.6827 *  0.0000     4          
   538  Cl    s     15.6845 *     0.0000       0.0000    0.0000     1          
   539  O     s    -13.7206 *     5.8810 *     5.8810    0.0000     4          
   540  O     s     -5.8792 *     5.8810 *    13.7224 *  0.0000     8          
   541  O     s      5.8828 *     5.8810 *    13.7224 *  0.0000     8          
   542  O     s     13.7242 *     5.8810 *     5.8810    0.0000     4          
   543  Cl    s    -15.6809 *     0.0000       3.9207 *  0.0000     4          
   544  Cl    s    -11.7602 *     7.8414 *     7.8414    0.0000     4          
   545  Cl    s     -7.8395 *     7.8414 *    11.7620 *  0.0000     8          
   546  Cl    s     -3.9189 *     0.0000      15.6827 *  0.0000     4          
   547  Cl    s      0.0018 *     3.9207 *    15.6827 *  0.0000     8          
   548  Cl    s      3.9225 *     0.0000      15.6827 *  0.0000     4          
   549  Cl    s      7.8432 *     7.8414 *    11.7620 *  0.0000     8          
   550  Cl    s     11.7638 *     7.8414 *     7.8414    0.0000     4          
   551  Cl    s     15.6845 *     0.0000       3.9207 *  0.0000     4          
   552  Cl    s    -15.6809 *     3.9207 *     3.9207    0.0000     4          
   553  Cl    s    -11.7602 *     0.0000      11.7620 *  0.0000     4          
   554  Cl    s     -3.9189 *     3.9207 *    15.6827 *  0.0000     8          
   555  Cl    s      0.0018 *    11.7620 *    11.7620    0.0000     4          
   556  Cl    s      3.9225 *     3.9207 *    15.6827 *  0.0000     8          
   557  Cl    s     11.7638 *     0.0000      11.7620 *  0.0000     4          
   558  Cl    s     15.6845 *     3.9207 *     3.9207    0.0000     4          
   559  O     s    -13.7206 *    -1.9603 *     9.8017 *  0.0000     8          
   560  O     s     -9.7999 *    13.7224 *    -1.9603 *  0.0000     8          
   561  O     s     -9.7999 *     9.8017 *     9.8017    0.0000     4          
   562  O     s     -1.9585 *     9.8017 *    13.7224 *  0.0000     8          
   563  O     s      1.9621 *     9.8017 *    13.7224 *  0.0000     8          
   564  O     s      9.8035 *    -1.9603 *    13.7224 *  0.0000     8          
   565  O     s      9.8035 *     9.8017 *     9.8017    0.0000     4          
   566  O     s     13.7242 *     9.8017 *    -1.9603 *  0.0000     8          
   567  Cl    s    -11.7602 *     3.9207 *    11.7620 *  0.0000     8          
   568  Cl    s     -3.9189 *    11.7620 *    11.7620    0.0000     4          
   569  Cl    s      3.9225 *    11.7620 *    11.7620    0.0000     4          
   570  Cl    s     11.7638 *     3.9207 *    11.7620 *  0.0000     8          
   571  Cl    s    -15.6809 *     0.0000       7.8414 *  0.0000     4          
   572  Cl    s     -7.8395 *     0.0000      15.6827 *  0.0000     4          
   573  Cl    s      0.0018 *     7.8414 *    15.6827 *  0.0000     8          
   574  Cl    s      7.8432 *     0.0000      15.6827 *  0.0000     4          
   575  Cl    s     15.6845 *     0.0000       7.8414 *  0.0000     4          
   576  O     s    -17.6412 *    -1.9603 *    -1.9603    0.0000     4          
   577  O     s    -13.7206 *     5.8810 *     9.8017 *  0.0000     8          
   578  O     s     -9.7999 *     5.8810 *    13.7224 *  0.0000     8          
   579  O     s     -5.8792 *     9.8017 *    13.7224 *  0.0000     8          
   580  O     s     -1.9585 *    -1.9603 *    17.6430 *  0.0000     8          
   581  O     s      1.9621 *    17.6430 *    -1.9603 *  0.0000     8          
   582  O     s      5.8828 *     9.8017 *    13.7224 *  0.0000     8          
   583  O     s      9.8035 *     5.8810 *    13.7224 *  0.0000     8          
   584  O     s     13.7242 *     9.8017 *     5.8810 *  0.0000     8          
   585  O     s     17.6448 *    -1.9603 *    -1.9603    0.0000     4          
   586  Cl    s    -15.6809 *     3.9207 *     7.8414 *  0.0000     8          
   587  Cl    s     -7.8395 *     3.9207 *    15.6827 *  0.0000     8          
   588  Cl    s     -3.9189 *     7.8414 *    15.6827 *  0.0000     8          
   589  Cl    s      3.9225 *     7.8414 *    15.6827 *  0.0000     8          
   590  Cl    s      7.8432 *     3.9207 *    15.6827 *  0.0000     8          
   591  Cl    s     15.6845 *     3.9207 *     7.8414 *  0.0000     8          
   592  Cl    s    -11.7602 *     7.8414 *    11.7620 *  0.0000     8          
   593  Cl    s     -7.8395 *    11.7620 *    11.7620    0.0000     4          
   594  Cl    s      7.8432 *    11.7620 *    11.7620    0.0000     4          
   595  Cl    s     11.7638 *     7.8414 *    11.7620 *  0.0000     8          
   596  O     s    -17.6412 *    -1.9603 *     5.8810 *  0.0000     8          
   597  O     s     -5.8792 *    -1.9603 *    17.6430 *  0.0000     8          
   598  O     s     -1.9585 *     5.8810 *    17.6430 *  0.0000     8          
   599  O     s      1.9621 *    17.6430 *     5.8810 *  0.0000     8          
   600  O     s      5.8828 *    17.6430 *    -1.9603 *  0.0000     8          
   601  O     s     17.6448 *     5.8810 *    -1.9603 *  0.0000     8          
   602  Cl    s    -15.6809 *     7.8414 *     7.8414    0.0000     4          
   603  Cl    s     -7.8395 *     7.8414 *    15.6827 *  0.0000     8          
   604  Cl    s      7.8432 *     7.8414 *    15.6827 *  0.0000     8          
   605  Cl    s     15.6845 *     7.8414 *     7.8414    0.0000     4          
   606  O     s    -17.6412 *     5.8810 *     5.8810    0.0000     4          
   607  O     s    -13.7206 *    -1.9603 *    13.7224 *  0.0000     8          
   608  O     s    -13.7206 *     9.8017 *     9.8017    0.0000     4          
   609  O     s     -9.7999 *     9.8017 *    13.7224 *  0.0000     8          
   610  O     s     -5.8792 *     5.8810 *    17.6430 *  0.0000     8          
   611  O     s     -1.9585 *    13.7224 *    13.7224    0.0000     4          
   612  O     s      1.9621 *    13.7224 *    13.7224    0.0000     4          
   613  O     s      5.8828 *    17.6430 *     5.8810 *  0.0000     8          
   614  O     s      9.8035 *     9.8017 *    13.7224 *  0.0000     8          
   615  O     s     13.7242 *    13.7224 *    -1.9603 *  0.0000     8          
   616  O     s     13.7242 *     9.8017 *     9.8017    0.0000     4          
   617  O     s     17.6448 *     5.8810 *     5.8810    0.0000     4          
   618  Cl    s    -19.6016 *     0.0000       0.0000    0.0000     1          
   619  Cl    s    -15.6809 *     0.0000      11.7620 *  0.0000     4          
   620  Cl    s    -11.7602 *     0.0000      15.6827 *  0.0000     4          
   621  Cl    s      0.0018 *    11.7620 *    15.6827 *  0.0000     8          
   622  Cl    s      0.0018 *     0.0000      19.6034 *  0.0000     4          
   623  Cl    s     11.7638 *     0.0000      15.6827 *  0.0000     4          
   624  Cl    s     15.6845 *     0.0000      11.7620 *  0.0000     4          
   625  Cl    s     19.6052 *     0.0000       0.0000    0.0000     1          
   626  Cl    s    -19.6016 *     0.0000       3.9207 *  0.0000     4          
   627  Cl    s    -15.6809 *     3.9207 *    11.7620 *  0.0000     8          
   628  Cl    s    -11.7602 *     3.9207 *    15.6827 *  0.0000     8          
   629  Cl    s     -3.9189 *    11.7620 *    15.6827 *  0.0000     8          
   630  Cl    s     -3.9189 *     0.0000      19.6034 *  0.0000     4          
   631  Cl    s      0.0018 *     3.9207 *    19.6034 *  0.0000     8          
   632  Cl    s      3.9225 *    11.7620 *    15.6827 *  0.0000     8          
   633  Cl    s      3.9225 *     0.0000      19.6034 *  0.0000     4          
   634  Cl    s     11.7638 *     3.9207 *    15.6827 *  0.0000     8          
   635  Cl    s     15.6845 *     3.9207 *    11.7620 *  0.0000     8          
   636  Cl    s     19.6052 *     0.0000       3.9207 *  0.0000     4          
--------------------------------------------------------------------------------


  Constraints on symmetry reduced coordinates :

--------------------------------------------------------------------------------
  Constraint no.      Unconstrained     Constrained    Coefficient    
                         Variable         Variable
--------------------------------------------------------------------------------
           1                 3 y             3 z         1.00000
           2                 5 y             5 z         1.00000
           3                 6 y             6 z         1.00000
           4                 9 y             9 z         1.00000
           5                12 y            12 z         1.00000
           6                14 y            14 z         1.00000
           7                21 y            21 z         1.00000
           8                24 y            24 z         1.00000
           9                25 y            25 z         1.00000
          10                26 y            26 z         1.00000
          11                36 y            36 z         1.00000
          12                39 y            39 z         1.00000
          13                42 y            42 z         1.00000
          14                44 y            44 z         1.00000
          15                45 y            45 z         1.00000
          16                53 y            53 z         1.00000
          17                54 y            54 z         1.00000
          18                56 y            56 z         1.00000
          19                59 y            59 z         1.00000
          20                71 y            71 z         1.00000
          21                72 y            72 z         1.00000
          22                75 y            75 z         1.00000
          23                76 y            76 z         1.00000
          24                84 y            84 z         1.00000
          25                87 y            87 z         1.00000
          26                93 y            93 z         1.00000
          27               103 y           103 z         1.00000
          28               105 y           105 z         1.00000
          29               108 y           108 z         1.00000
          30               117 y           117 z         1.00000
          31               129 y           129 z         1.00000
          32               132 y           132 z         1.00000
          33               133 y           133 z         1.00000
          34               136 y           136 z         1.00000
          35               143 y           143 z         1.00000
          36               144 y           144 z         1.00000
          37               152 y           152 z         1.00000
          38               159 y           159 z         1.00000
          39               162 y           162 z         1.00000
          40               164 y           164 z         1.00000
          41               166 y           166 z         1.00000
          42               173 y           173 z         1.00000
          43               177 y           177 z         1.00000
          44               181 y           181 z         1.00000
          45               184 y           184 z         1.00000
          46               200 y           200 z         1.00000
          47               204 y           204 z         1.00000
          48               222 y           222 z         1.00000
          49               226 y           226 z         1.00000
          50               232 y           232 z         1.00000
          51               235 y           235 z         1.00000
          52               236 y           236 z         1.00000
          53               239 y           239 z         1.00000
          54               241 y           241 z         1.00000
          55               247 y           247 z         1.00000
          56               255 y           255 z         1.00000
          57               258 y           258 z         1.00000
          58               261 y           261 z         1.00000
          59               281 y           281 z         1.00000
          60               285 y           285 z         1.00000
          61               288 y           288 z         1.00000
          62               289 y           289 z         1.00000
          63               303 y           303 z         1.00000
          64               309 y           309 z         1.00000
          65               311 y           311 z         1.00000
          66               320 y           320 z         1.00000
          67               330 y           330 z         1.00000
          68               340 y           340 z         1.00000
          69               344 y           344 z         1.00000
          70               345 y           345 z         1.00000
          71               382 y           382 z         1.00000
[...]
    556 y          3.920675      3.919562    -0.001114    Cartesian   -0.03
    556 z         15.682702     15.679200    -0.003502    Cartesian   -0.02
    557 x         15.682702     15.678819    -0.003882    Cartesian   -0.02
    557 y          0.000000      0.000000     0.000000    Cartesian    0.00
    557 z         11.762026     11.759481    -0.002546    Cartesian   -0.02
    558 x         19.603377     19.600041    -0.003336    Cartesian   -0.02
    558 y          3.920675      3.919962    -0.000713    Cartesian   -0.02
    558 z          3.920675      3.919962    -0.000713    Cartesian   -0.02
    559 x         -9.801689     -9.799731     0.001957    Cartesian   -0.02
    559 y         -1.960338     -1.960017     0.000321    Cartesian   -0.02
    559 z          9.801689      9.799485    -0.002204    Cartesian   -0.02
    560 x         -5.881013     -5.880079     0.000934    Cartesian   -0.02
    560 y         13.722364     13.720829    -0.001535    Cartesian   -0.01
    560 z         -1.960338     -1.960138     0.000200    Cartesian   -0.01
    561 x         -5.881013     -5.880175     0.000838    Cartesian   -0.01
    561 y          9.801689      9.799853    -0.001835    Cartesian   -0.02
    561 z          9.801689      9.799853    -0.001835    Cartesian   -0.02
    562 x          1.960338      1.960064    -0.000274    Cartesian   -0.01
    562 y          9.801689      9.800344    -0.001345    Cartesian   -0.01
    562 z         13.722364     13.720846    -0.001518    Cartesian   -0.01
    563 x          5.881013      5.880388    -0.000625    Cartesian   -0.01
    563 y          9.801689      9.800362    -0.001327    Cartesian   -0.01
    563 z         13.722364     13.720860    -0.001504    Cartesian   -0.01
    564 x         13.722364     13.721072    -0.001292    Cartesian   -0.01
    564 y         -1.960338     -1.960239     0.000099    Cartesian   -0.01
    564 z         13.722364     13.721231    -0.001133    Cartesian   -0.01
    565 x         13.722364     13.721274    -0.001090    Cartesian   -0.01
    565 y          9.801689      9.801004    -0.000685    Cartesian   -0.01
    565 z          9.801689      9.801004    -0.000685    Cartesian   -0.01
    566 x         17.643040     17.641957    -0.001083    Cartesian   -0.01
    566 y          9.801689      9.800906    -0.000783    Cartesian   -0.01
    566 z         -1.960338     -1.960267     0.000071    Cartesian   -0.00
    567 x         -7.841351     -7.838799     0.002552    Cartesian   -0.03
    567 y          3.920675      3.919709    -0.000967    Cartesian   -0.02
    567 z         11.762026     11.756592    -0.005434    Cartesian   -0.05
    568 x          0.000000     -0.001414    -0.001414    Cartesian    0.00
    568 y         11.762026     11.758050    -0.003977    Cartesian   -0.03
    568 z         11.762026     11.758050    -0.003977    Cartesian   -0.03
    569 x          7.841351      7.839258    -0.002093    Cartesian   -0.03
    569 y         11.762026     11.758840    -0.003186    Cartesian   -0.03
    569 z         11.762026     11.758840    -0.003186    Cartesian   -0.03
    570 x         15.682702     15.679165    -0.003537    Cartesian   -0.02
    570 y          3.920675      3.920572    -0.000104    Cartesian   -0.00
    570 z         11.762026     11.759831    -0.002196    Cartesian   -0.02
    571 x        -11.762026    -11.758810     0.003216    Cartesian   -0.03
    571 y          0.000000      0.000000     0.000000    Cartesian    0.00
    571 z          7.841351      7.838486    -0.002865    Cartesian   -0.04
    572 x         -3.920675     -3.921150    -0.000475    Cartesian    0.01
    572 y          0.000000      0.000000     0.000000    Cartesian    0.00
    572 z         15.682702     15.679085    -0.003617    Cartesian   -0.02
    573 x          3.920675      3.919099    -0.001576    Cartesian   -0.04
    573 y          7.841351      7.840174    -0.001177    Cartesian   -0.02
    573 z         15.682702     15.680019    -0.002682    Cartesian   -0.02
    574 x         11.762026     11.759761    -0.002266    Cartesian   -0.02
    574 y          0.000000      0.000000     0.000000    Cartesian    0.00
    574 z         15.682702     15.680756    -0.001946    Cartesian   -0.01
    575 x         19.603377     19.600954    -0.002423    Cartesian   -0.01
    575 y          0.000000      0.000000     0.000000    Cartesian    0.00
    575 z          7.841351      7.840875    -0.000476    Cartesian   -0.01
    576 x        -13.722364    -13.721722     0.000642    Cartesian   -0.00
    576 y         -1.960338     -1.960551    -0.000214    Cartesian    0.01
    576 z         -1.960338     -1.960551    -0.000214    Cartesian    0.01
    577 x         -9.801689     -9.800463     0.001225    Cartesian   -0.01
    577 y          5.881013      5.880516    -0.000497    Cartesian   -0.01
    577 z          9.801689      9.800197    -0.001492    Cartesian   -0.02
    578 x         -5.881013     -5.880865     0.000149    Cartesian   -0.00
    578 y          5.881013      5.880987    -0.000026    Cartesian   -0.00
    578 z         13.722364     13.721401    -0.000964    Cartesian   -0.01
    579 x         -1.960338     -1.960760    -0.000422    Cartesian    0.02
    579 y          9.801689      9.801135    -0.000554    Cartesian   -0.01
    579 z         13.722364     13.721534    -0.000830    Cartesian   -0.01
    580 x          1.960338      1.959855    -0.000482    Cartesian   -0.02
    580 y         -1.960338     -1.960615    -0.000278    Cartesian    0.01
    580 z         17.643040     17.642302    -0.000738    Cartesian   -0.00
    581 x          5.881013      5.881073     0.000060    Cartesian    0.00
    581 y         17.643040     17.642358    -0.000682    Cartesian   -0.00
    581 z         -1.960338     -1.960601    -0.000263    Cartesian    0.01
    582 x          9.801689      9.801291    -0.000398    Cartesian   -0.00
    582 y          9.801689      9.801185    -0.000503    Cartesian   -0.01
    582 z         13.722364     13.721658    -0.000706    Cartesian   -0.01
    583 x         13.722364     13.721687    -0.000677    Cartesian   -0.00
    583 y          5.881013      5.881120     0.000107    Cartesian    0.00
    583 z         13.722364     13.721864    -0.000500    Cartesian   -0.00
    584 x         17.643040     17.642534    -0.000506    Cartesian   -0.00
    584 y          9.801689      9.801555    -0.000134    Cartesian   -0.00
    584 z          5.881013      5.881233     0.000220    Cartesian    0.00
    585 x         21.563715     21.563111    -0.000604    Cartesian   -0.00
    585 y         -1.960338     -1.960624    -0.000286    Cartesian    0.01
    585 z         -1.960338     -1.960624    -0.000286    Cartesian    0.01
    586 x        -11.762026    -11.758652     0.003374    Cartesian   -0.03
    586 y          3.920675      3.919138    -0.001537    Cartesian   -0.04
    586 z          7.841351      7.838744    -0.002607    Cartesian   -0.03
    587 x         -3.920675     -3.921366    -0.000690    Cartesian    0.02
    587 y          3.920675      3.919859    -0.000816    Cartesian   -0.02
    587 z         15.682702     15.678785    -0.003917    Cartesian   -0.02
    588 x          0.000000     -0.000909    -0.000909    Cartesian    0.00
    588 y          7.841351      7.840258    -0.001093    Cartesian   -0.01
    588 z         15.682702     15.679345    -0.003357    Cartesian   -0.02
    589 x          7.841351      7.839192    -0.002159    Cartesian   -0.03
    589 y          7.841351      7.840456    -0.000895    Cartesian   -0.01
    589 z         15.682702     15.680052    -0.002650    Cartesian   -0.02
    590 x         11.762026     11.759874    -0.002153    Cartesian   -0.02
    590 y          3.920675      3.920063    -0.000612    Cartesian   -0.02
    590 z         15.682702     15.680457    -0.002245    Cartesian   -0.01
    591 x         19.603377     19.600612    -0.002766    Cartesian   -0.01
    591 y          3.920675      3.920285    -0.000391    Cartesian   -0.01
    591 z          7.841351      7.841005    -0.000346    Cartesian   -0.00
    592 x         -7.841351     -7.839982     0.001369    Cartesian   -0.02
    592 y          7.841351      7.838536    -0.002815    Cartesian   -0.04
    592 z         11.762026     11.757863    -0.004163    Cartesian   -0.04
    593 x         -3.920675     -3.920266     0.000409    Cartesian   -0.01
    593 y         11.762026     11.758792    -0.003235    Cartesian   -0.03
    593 z         11.762026     11.758792    -0.003235    Cartesian   -0.03
    594 x         11.762026     11.759005    -0.003022    Cartesian   -0.03
    594 y         11.762026     11.759991    -0.002036    Cartesian   -0.02
    594 z         11.762026     11.759991    -0.002036    Cartesian   -0.02
    595 x         15.682702     15.679807    -0.002895    Cartesian   -0.02
    595 y          7.841351      7.840048    -0.001303    Cartesian   -0.02
    595 z         11.762026     11.760474    -0.001553    Cartesian   -0.01
    596 x        -13.722364    -13.721453     0.000911    Cartesian   -0.01
    596 y         -1.960338     -1.960301     0.000036    Cartesian   -0.00
    596 z          5.881013      5.880914    -0.000099    Cartesian   -0.00
    597 x         -1.960338     -1.960811    -0.000473    Cartesian    0.02
    597 y         -1.960338     -1.960534    -0.000196    Cartesian    0.01
    597 z         17.643040     17.642129    -0.000911    Cartesian   -0.01
    598 x          1.960338      1.959908    -0.000430    Cartesian   -0.02
    598 y          5.881013      5.881243     0.000229    Cartesian    0.00
    598 z         17.643040     17.642107    -0.000933    Cartesian   -0.01
    599 x          5.881013      5.880761    -0.000253    Cartesian   -0.00
    599 y         17.643040     17.642240    -0.000800    Cartesian   -0.00
    599 z          5.881013      5.881058     0.000045    Cartesian    0.00
    600 x          9.801689      9.801562    -0.000127    Cartesian   -0.00
    600 y         17.643040     17.642249    -0.000791    Cartesian   -0.00
    600 z         -1.960338     -1.960334     0.000004    Cartesian   -0.00
    601 x         21.563715     21.562959    -0.000756    Cartesian   -0.00
    601 y          5.881013      5.881262     0.000248    Cartesian    0.00
    601 z         -1.960338     -1.960467    -0.000129    Cartesian    0.01
    602 x        -11.762026    -11.758174     0.003853    Cartesian   -0.03
    602 y          7.841351      7.838327    -0.003024    Cartesian   -0.04
    602 z          7.841351      7.838327    -0.003024    Cartesian   -0.04
    603 x         -3.920675     -3.920157     0.000519    Cartesian   -0.01
    603 y          7.841351      7.839283    -0.002068    Cartesian   -0.03
    603 z         15.682702     15.678476    -0.004226    Cartesian   -0.03
    604 x         11.762026     11.759274    -0.002752    Cartesian   -0.02
    604 y          7.841351      7.839759    -0.001592    Cartesian   -0.02
    604 z         15.682702     15.679582    -0.003120    Cartesian   -0.02
    605 x         19.603377     19.599898    -0.003479    Cartesian   -0.02
    605 y          7.841351      7.840029    -0.001322    Cartesian   -0.02
    605 z          7.841351      7.840029    -0.001322    Cartesian   -0.02
    606 x        -13.722364    -13.719929     0.002435    Cartesian   -0.02
    606 y          5.881013      5.879699    -0.001314    Cartesian   -0.02
    606 z          5.881013      5.879699    -0.001314    Cartesian   -0.02
    607 x         -9.801689     -9.800636     0.001053    Cartesian   -0.01
    607 y         -1.960338     -1.960137     0.000201    Cartesian   -0.01
    607 z         13.722364     13.720751    -0.001613    Cartesian   -0.01
    608 x         -9.801689     -9.799351     0.002338    Cartesian   -0.02
    608 y          9.801689      9.799401    -0.002288    Cartesian   -0.02
    608 z          9.801689      9.799401    -0.002288    Cartesian   -0.02
    609 x         -5.881013     -5.879692     0.001322    Cartesian   -0.02
    609 y          9.801689      9.799791    -0.001897    Cartesian   -0.02
    609 z         13.722364     13.719906    -0.002458    Cartesian   -0.02
    610 x         -1.960338     -1.959800     0.000538    Cartesian   -0.03
    610 y          5.881013      5.880041    -0.000972    Cartesian   -0.02
    610 z         17.643040     17.640653    -0.002386    Cartesian   -0.01
    611 x          1.960338      1.959946    -0.000392    Cartesian   -0.02
    611 y         13.722364     13.721117    -0.001247    Cartesian   -0.01
    611 z         13.722364     13.721117    -0.001247    Cartesian   -0.01
    612 x          5.881013      5.880337    -0.000676    Cartesian   -0.01
    612 y         13.722364     13.721129    -0.001235    Cartesian   -0.01
    612 z         13.722364     13.721129    -0.001235    Cartesian   -0.01
    613 x          9.801689      9.800419    -0.001270    Cartesian   -0.01
    613 y         17.643040     17.640921    -0.002118    Cartesian   -0.01
    613 z          5.881013      5.880100    -0.000913    Cartesian   -0.02
    614 x         13.722364     13.720543    -0.001821    Cartesian   -0.01
    614 y          9.801689      9.800217    -0.001472    Cartesian   -0.02
    614 z         13.722364     13.720432    -0.001932    Cartesian   -0.01
    615 x         17.643040     17.641852    -0.001188    Cartesian   -0.01
    615 y         13.722364     13.721452    -0.000912    Cartesian   -0.01
    615 z         -1.960338     -1.960236     0.000102    Cartesian   -0.01
    616 x         17.643040     17.640989    -0.002051    Cartesian   -0.01
    616 y          9.801689      9.800289    -0.001400    Cartesian   -0.01
    616 z          9.801689      9.800289    -0.001400    Cartesian   -0.01
    617 x         21.563715     21.561605    -0.002110    Cartesian   -0.01
    617 y          5.881013      5.880233    -0.000780    Cartesian   -0.01
    617 z          5.881013      5.880233    -0.000780    Cartesian   -0.01
    618 x        -15.682702    -15.677648     0.005054    Cartesian   -0.03
    618 y          0.000000      0.000000     0.000000    Cartesian    0.00
    618 z          0.000000      0.000000     0.000000    Cartesian    0.00
    619 x        -11.762026    -11.757807     0.004219    Cartesian   -0.04
    619 y          0.000000      0.000000     0.000000    Cartesian    0.00
    619 z         11.762026     11.757569    -0.004458    Cartesian   -0.04
    620 x         -7.841351     -7.839301     0.002050    Cartesian   -0.03
    620 y          0.000000      0.000000     0.000000    Cartesian    0.00
    620 z         15.682702     15.677649    -0.005053    Cartesian   -0.03
    621 x          3.920675      3.919393    -0.001283    Cartesian   -0.03
    621 y         11.762026     11.759046    -0.002981    Cartesian   -0.03
    621 z         15.682702     15.678492    -0.004210    Cartesian   -0.03
    622 x          3.920675      3.919643    -0.001032    Cartesian   -0.03
    622 y          0.000000      0.000000     0.000000    Cartesian    0.00
    622 z         19.603377     19.598930    -0.004447    Cartesian   -0.02
    623 x         15.682702     15.679322    -0.003380    Cartesian   -0.02
    623 y          0.000000      0.000000     0.000000    Cartesian    0.00
    623 z         15.682702     15.679114    -0.003588    Cartesian   -0.02
    624 x         19.603377     19.599300    -0.004078    Cartesian   -0.02
    624 y          0.000000      0.000000     0.000000    Cartesian    0.00
    624 z         11.762026     11.759761    -0.002265    Cartesian   -0.02
    625 x         23.524053     23.519927    -0.004126    Cartesian   -0.02
    625 y          0.000000      0.000000     0.000000    Cartesian    0.00
    625 z          0.000000      0.000000     0.000000    Cartesian    0.00
    626 x        -15.682702    -15.676348     0.006354    Cartesian   -0.04
    626 y          0.000000      0.000000     0.000000    Cartesian    0.00
    626 z          3.920675      3.919186    -0.001489    Cartesian   -0.04
    627 x        -11.762026    -11.756969     0.005058    Cartesian   -0.04
    627 y          3.920675      3.919268    -0.001407    Cartesian   -0.04
    627 z         11.762026     11.757463    -0.004563    Cartesian   -0.04
    628 x         -7.841351     -7.838965     0.002386    Cartesian   -0.03
    628 y          3.920675      3.919296    -0.001380    Cartesian   -0.04
    628 z         15.682702     15.676973    -0.005729    Cartesian   -0.04
    629 x          0.000000      0.000093     0.000093    Cartesian    0.00
    629 y         11.762026     11.758537    -0.003490    Cartesian   -0.03
    629 z         15.682702     15.677636    -0.005066    Cartesian   -0.03
    630 x          0.000000      0.000081     0.000081    Cartesian    0.00
    630 y          0.000000      0.000000     0.000000    Cartesian    0.00
    630 z         19.603377     19.597162    -0.006215    Cartesian   -0.03
    631 x          3.920675      3.919892    -0.000784    Cartesian   -0.02
    631 y          3.920675      3.919560    -0.001116    Cartesian   -0.03
    631 z         19.603377     19.597611    -0.005766    Cartesian   -0.03
    632 x          7.841351      7.839300    -0.002051    Cartesian   -0.03
    632 y         11.762026     11.759044    -0.002983    Cartesian   -0.03
    632 z         15.682702     15.677899    -0.004803    Cartesian   -0.03
    633 x          7.841351      7.839330    -0.002021    Cartesian   -0.03
    633 y          0.000000      0.000000     0.000000    Cartesian    0.00
    633 z         19.603377     19.598002    -0.005376    Cartesian   -0.03
    634 x         15.682702     15.679084    -0.003618    Cartesian   -0.02
    634 y          3.920675      3.919727    -0.000949    Cartesian   -0.02
    634 z         15.682702     15.678381    -0.004321    Cartesian   -0.03
    635 x         19.603377     19.598643    -0.004734    Cartesian   -0.02
    635 y          3.920675      3.919685    -0.000990    Cartesian   -0.03
    635 z         11.762026     11.759439    -0.002587    Cartesian   -0.02
    636 x         23.524053     23.518618    -0.005435    Cartesian   -0.02
    636 y          0.000000      0.000000     0.000000    Cartesian    0.00
    636 z          3.920675      3.919743    -0.000933    Cartesian   -0.02
--------------------------------------------------------------------------------


  Time to end of optimisation  =       83.1788 seconds


  Peak dynamic memory used =    1784.44 MB 


  Timing analysis for GULP :

--------------------------------------------------------------------------------
  Task / Subroutine                                          Time (Seconds)
--------------------------------------------------------------------------------
  Calculation of reciprocal space energy and derivatives          0.0003
  Calculation of reciprocal space energy using symmetry           0.0003
  Calculation of real space energy and derivatives                0.0021
  Calculation of real space energy using symmetry                 0.0034
  Calculation for region 1 energy and derivatives (2-b)          41.9641
  Calculation for region 2a energy                                9.8204
  Calculation for region 2b energy                                0.0018
  Calculation and manipulation of Hessian matrix                 28.3021
  Calculation of matrix inversion                                 2.2141
  Symmetry generation of equivalent positions                     0.0017
--------------------------------------------------------------------------------
  Total CPU time                                                 83.1788
--------------------------------------------------------------------------------


  Dump file written as Li3OCl.grs


  Job Finished at 13:32.15 21st October    2020                               

