********************************************************************************
*                       GENERAL UTILITY LATTICE PROGRAM                        *
*                                 Julian Gale                                  *
*                       Curtin Institute for Computation                       *
*                    School of Molecular and Life Sciences                     *
*                    Curtin University, Western Australia                      *
********************************************************************************
* Version = 5.2.0 * Last modified =  10th September 2020                       *
********************************************************************************
*  optimise     - perform optimisation run                                     *
*  conp         - constant pressure calculation                                *
*  property     - calculate properties for final geometry                      *
*  defect       - perform defect calculation after bulk run                    *
*  compare      - compare initial and final structures                         *
********************************************************************************

  Job Started  at 13:05.38 21st October    2020                               

  Number of CPUs =     1


  Total number of configurations input =      1

********************************************************************************
*  Input for Configuration =   1                                               *
********************************************************************************

  Formula = ClOLi3                                                      

  Number of irreducible atoms/shells =       5


  Total number atoms/shells =       7

  Dimensionality = 3               :  Bulk   


  Symmetry :

  Crystal family                   :  Cubic       
  Crystal class  (Groth - 1921)    :  Cubic Hexakisoctahedral              

  Space group (centrosymmetric)    :  P M 3 M         

  Patterson group                  :  P m -3 m 

  Cartesian lattice vectors (Angstroms) :

        3.918873    0.000000    0.000000
        0.000000    3.918873    0.000000
        0.000000    0.000000    3.918873

  Cell parameters (Angstroms/Degrees):

  a =       3.9189    alpha =  90.0000
  b =       3.9189    beta  =  90.0000
  c =       3.9189    gamma =  90.0000

  Initial cell volume =          60.184349 Angs**3

  Temperature of configuration =   0.00     K 

  Pressure of configuration =         0.000 GPa 

  Fractional coordinates of asymmetric unit :

--------------------------------------------------------------------------------
   No.  Atomic       x           y          z         Charge      Occupancy
        Label      (Frac)      (Frac)     (Frac)        (e)         (Frac)  
--------------------------------------------------------------------------------
      1 Cl    c    0.000000    0.000000    0.000000     1.48500    1.000000    
      2 O     c    0.500000    0.500000    0.500000     0.18300    1.000000    
      3 Li    c    0.500000    0.500000    0.000000     1.00000    1.000000    
      4 Cl    s    0.000000    0.000000    0.000000    -2.48500    1.000000    
      5 O     s    0.500000    0.500000    0.500000    -2.18300    1.000000    
--------------------------------------------------------------------------------


  Constraints : 

--------------------------------------------------------------------------------
  Constraint no.      Unconstrained     Constrained    Coefficient    Offset
                         Variable         Variable
--------------------------------------------------------------------------------
           1              Strain 1        Strain 2       1.00000      0.0000
           2              Strain 1        Strain 3       1.00000      0.0000
--------------------------------------------------------------------------------


********************************************************************************
*  General input information                                                   *
********************************************************************************

  Species output for all configurations : 

--------------------------------------------------------------------------------
  Species    Type    Atomic    Atomic    Charge       Radii (Angs)     Library
                     Number     Mass       (e)     Cova   Ionic  VDW   Symbol
--------------------------------------------------------------------------------
    Li       Core        3       6.94   1.000000   0.680  0.000  1.800          
    O        Core        8      16.00   0.183000   0.730  0.000  1.360          
    O        Shell       8       0.00  -2.183000   0.730  0.000  1.360          
    Cl       Core       17      35.45   1.485000   0.990  0.000  1.650          
    Cl       Shell      17       0.00  -2.485000   0.990  0.000  1.650          
--------------------------------------------------------------------------------


  Lattice summation method               =    Ewald          (3-D)
                                         =    Parry          (2-D)
                                         =    Saunders et al (1-D)
  Accuracy factor for lattice sums       =   12.000


  Analytic derivatives to be used

  Time limit = Infinity

  Maximum range for interatomic potentials =    100000.000000 Angstroms

  General interatomic potentials :

--------------------------------------------------------------------------------
Atom  Types   Potential      Parameter       Value         Units   Cutoffs(Ang)
  1     2                                                            Min /  Max 
--------------------------------------------------------------------------------
O    c O    s Spring (c-s)  Spring k 2       593.72000    eV*Ang^-2 0.000  0.800
                            Spring k 4       0.0000000    eV*Ang^-4 
--------------------------------------------------------------------------------
Cl   c Cl   s Spring (c-s)  Spring k 2       29.380000    eV*Ang^-2 0.000  0.800
                            Spring k 4       0.0000000    eV*Ang^-4 
--------------------------------------------------------------------------------
Li   c Li   c Buckingham    Buckingham A     360.53000    eV        0.000 12.000
                            Buckingham rho  0.16100000    Ang       
                            Buckingham C     0.0000000    eV*Ang^6  
--------------------------------------------------------------------------------
Li   c O    s Buckingham    Buckingham A     292.30000    eV        0.000 12.000
                            Buckingham rho  0.34720000    Ang       
                            Buckingham C     0.0000000    eV*Ang^6  
--------------------------------------------------------------------------------
Li   c Cl   s Buckingham    Buckingham A     421.04000    eV        0.000 12.000
                            Buckingham rho  0.33400000    Ang       
                            Buckingham C     0.0000000    eV*Ang^6  
--------------------------------------------------------------------------------
O    s O    s Buckingham    Buckingham A     22764.300    eV        0.000 12.000
                            Buckingham rho  0.14900000    Ang       
                            Buckingham C     13.190000    eV*Ang^6  
--------------------------------------------------------------------------------
O    s Cl   s Buckingham    Buckingham A     8286.9100    eV        0.000 12.000
                            Buckingham rho  0.25900000    Ang       
                            Buckingham C     62.200000    eV*Ang^6  
--------------------------------------------------------------------------------
Cl   s Cl   s Buckingham    Buckingham A     1227.2000    eV        0.000 12.000
                            Buckingham rho  0.32100000    Ang       
                            Buckingham C     14.530000    eV*Ang^6  
--------------------------------------------------------------------------------

********************************************************************************
*  Output for configuration   1                                                *
********************************************************************************


  Components of energy : 

--------------------------------------------------------------------------------
  Interatomic potentials     =           7.26836263 eV    
  Monopole - monopole (real) =         -11.53475722 eV    
  Monopole - monopole (recip)=         -33.94580548 eV    
  Monopole - monopole (total)=         -45.48056271 eV    
--------------------------------------------------------------------------------
  Total lattice energy       =         -38.21220008 eV    
--------------------------------------------------------------------------------
  Total lattice energy       =           -3686.8932 kJ/(mole unit cells)
--------------------------------------------------------------------------------


  Number of variables =        1

  Maximum number of calculations  =          1000
  Maximum Hessian update interval =            10
  Maximum step size               =   1.000000000
  Maximum parameter tolerance     =   0.000010000
  Maximum function  tolerance     =   0.000010000
  Maximum gradient  tolerance     =   0.001000000
  Maximum gradient  component     =   0.010000000

  Symmetry constrained optimisation

  Symmetry used for second derivatives

  Cell parameters to be optimised using strains

  Newton-Raphson optimiser to be used

  BFGS hessian update to be used

  Lower half triangular hessian to be used

  Start of bulk optimisation :

  Cycle:      0 Energy:       -38.212200  Gnorm:      0.095699  CPU:    0.006
  ** Hessian calculated **
  Cycle:      1 Energy:       -38.212222  Gnorm:      0.000105  CPU:    0.007


  **** Optimisation achieved ****


  Final energy =     -38.21222207 eV
  Final Gnorm  =       0.00000016

  Components of energy : 

--------------------------------------------------------------------------------
  Interatomic potentials     =           7.24743141 eV    
  Monopole - monopole (real) =         -11.52945423 eV    
  Monopole - monopole (recip)=         -33.93019924 eV    
  Monopole - monopole (total)=         -45.45965348 eV    
--------------------------------------------------------------------------------
  Total lattice energy       =         -38.21222207 eV    
--------------------------------------------------------------------------------
  Total lattice energy       =           -3686.8953 kJ/(mole unit cells)
--------------------------------------------------------------------------------

  Final asymmetric unit coordinates :

--------------------------------------------------------------------------------
   No.  Atomic        x           y           z         Radius
        Label       (Frac)      (Frac)      (Frac)       (Angs) 
--------------------------------------------------------------------------------
     1  Cl    c     0.000000    0.000000    0.000000    0.000000
     2  O     c     0.500000    0.500000    0.500000    0.000000
     3  Li    c     0.500000    0.500000    0.000000    0.000000
     4  Cl    s     0.000000    0.000000    0.000000    0.000000
     5  O     s     0.500000    0.500000    0.500000    0.000000
--------------------------------------------------------------------------------

  Final Cartesian lattice vectors (Angstroms) :

        3.920675    0.000000    0.000000
        0.000000    3.920675    0.000000
        0.000000    0.000000    3.920675


  Final cell parameters and derivatives :

--------------------------------------------------------------------------------
       a            3.920675 Angstrom     dE/de1(xx)    -0.000000 eV/strain
       b            3.920675 Angstrom     dE/de2(yy)     0.000000 eV/strain
       c            3.920675 Angstrom     dE/de3(zz)     0.000000 eV/strain
       alpha       90.000000 Degrees      dE/de4(yz)     0.000000 eV/strain
       beta        90.000000 Degrees      dE/de5(xz)     0.000000 eV/strain
       gamma       90.000000 Degrees      dE/de6(xy)     0.000000 eV/strain
--------------------------------------------------------------------------------

  Primitive cell volume =            60.267433 Angs**3

  Density of cell =      1.991276 g/cm**3

  Non-primitive cell volume =            60.267433 Angs**3


  Final internal derivatives :

--------------------------------------------------------------------------------
   No.  Atomic          a             b             c           Radius
        Label          (eV)          (eV)          (eV)        (eV/Angs)
--------------------------------------------------------------------------------
      1 Cl    c       0.000000      0.000000      0.000000      0.000000
      2 O     c       0.000000      0.000000      0.000000      0.000000
      3 Li    c       0.000000      0.000000      0.000000      0.000000
      4 Cl    s       0.000000      0.000000      0.000000      0.000000
      5 O     s       0.000000      0.000000      0.000000      0.000000
--------------------------------------------------------------------------------
  Maximum abs         0.000000      0.000000      0.000000      0.000000
--------------------------------------------------------------------------------

  Comparison of initial and final structures : 

--------------------------------------------------------------------------------
  Parameter   Initial value   Final value   Difference    Units      Percent
--------------------------------------------------------------------------------
    Volume        60.184349     60.267433     0.083084    Angs**3      0.14
    a              3.918873      3.920675     0.001802    Angstroms    0.05
    b              3.918873      3.920675     0.001802    Angstroms    0.05
    c              3.918873      3.920675     0.001802    Angstroms    0.05
    alpha         90.000000     90.000000     0.000000    Degrees      0.00
    beta          90.000000     90.000000     0.000000    Degrees      0.00
    gamma         90.000000     90.000000     0.000000    Degrees      0.00
      1 x          0.000000      0.000000     0.000000    Fractional   0.00
      1 y          0.000000      0.000000     0.000000    Fractional   0.00
      1 z          0.000000      0.000000     0.000000    Fractional   0.00
      2 x          0.500000      0.500000     0.000000    Fractional   0.00
      2 y          0.500000      0.500000     0.000000    Fractional   0.00
      2 z          0.500000      0.500000     0.000000    Fractional   0.00
      3 x          0.500000      0.500000     0.000000    Fractional   0.00
      3 y          0.500000      0.500000     0.000000    Fractional   0.00
      3 z          0.000000      0.000000     0.000000    Fractional   0.00
      4 x          0.000000      0.000000     0.000000    Fractional   0.00
      4 y          0.000000      0.000000     0.000000    Fractional   0.00
      4 z          0.000000      0.000000     0.000000    Fractional   0.00
      5 x          0.500000      0.500000     0.000000    Fractional   0.00
      5 y          0.500000      0.500000     0.000000    Fractional   0.00
      5 z          0.500000      0.500000     0.000000    Fractional   0.00
--------------------------------------------------------------------------------


  Born effective charge tensors : 

-------------------------------------------------------------------------------
  Atom             x           y             z
-------------------------------------------------------------------------------
    1 Cl    x      -0.9489     -0.0000     -0.0000
            y      -0.0000     -0.9489     -0.0000
            z      -0.0000     -0.0000     -0.9489
-------------------------------------------------------------------------------
    2 O     x      -2.4688      0.0000      0.0000
            y       0.0000     -2.4688      0.0000
            z       0.0000      0.0000     -2.4688
-------------------------------------------------------------------------------
    3 Li    x       1.3129      0.0000     -0.0000
            y       0.0000      1.3129      0.0000
            z      -0.0000      0.0000      0.7919
-------------------------------------------------------------------------------




  Elastic Constant Matrix: (Units=GPa)

-------------------------------------------------------------------------------
  Indices      1         2         3         4         5         6    
-------------------------------------------------------------------------------
       1     94.3368   44.9178   44.9178    0.0000   -0.0000    0.0000
       2     44.9178   94.3368   44.9178   -0.0000    0.0000   -0.0000
       3     44.9178   44.9178   94.3368    0.0000   -0.0000    0.0000
       4      0.0000   -0.0000    0.0000   44.9178   -0.0000    0.0000
       5     -0.0000    0.0000   -0.0000   -0.0000   44.9178    0.0000
       6      0.0000   -0.0000    0.0000    0.0000    0.0000   44.9178
-------------------------------------------------------------------------------


  Elastic Compliance Matrix: (Units=1/GPa)

-------------------------------------------------------------------------------
  Indices      1         2         3         4         5         6    
-------------------------------------------------------------------------------
       1    0.015300 -0.004935 -0.004935 -0.000000  0.000000 -0.000000
       2   -0.004935  0.015300 -0.004935  0.000000 -0.000000  0.000000
       3   -0.004935 -0.004935  0.015300 -0.000000  0.000000 -0.000000
       4   -0.000000  0.000000 -0.000000  0.022263  0.000000 -0.000000
       5    0.000000 -0.000000  0.000000  0.000000  0.022263 -0.000000
       6   -0.000000  0.000000 -0.000000 -0.000000 -0.000000  0.022263
-------------------------------------------------------------------------------

  Mechanical properties :

-------------------------------------------------------------------------------
  Convention :                    Reuss         Voigt         Hill
-------------------------------------------------------------------------------
  Bulk  Modulus (GPa)     =      61.39080      61.39080      61.39080
  Shear Modulus (GPa)     =      33.84570      36.83448      35.34009
-------------------------------------------------------------------------------
  Velocity S-wave (km/s)  =       4.12274       4.30092       4.21277
  Velocity P-wave (km/s)  =       7.31386       7.44942       7.38195
-------------------------------------------------------------------------------
  Compressibility (1/GPa) =    0.01628909
-------------------------------------------------------------------------------
  Stress axis :                     x             y             z
-------------------------------------------------------------------------------
  Youngs Moduli (GPa)     =      65.35947      65.35947      65.35947
-------------------------------------------------------------------------------
  Poissons Ratio (x)      =                     0.32256       0.32256
  Poissons Ratio (y)      =       0.32256                     0.32256
  Poissons Ratio (z)      =       0.32256       0.32256
-------------------------------------------------------------------------------


  Piezoelectric Strain Matrix: (Units=C/m**2)

-------------------------------------------------------------------------------
  Indices      1         2         3         4         5         6    
-------------------------------------------------------------------------------
       x    -0.00000   0.00000   0.00000  -0.00000  -0.00000   0.00000
       y    -0.00000   0.00000   0.00000  -0.00000  -0.00000  -0.00000
       z     0.00000   0.00000   0.00000   0.00000  -0.00000  -0.00000
-------------------------------------------------------------------------------


  Piezoelectric Stress Matrix: (Units=10**-11 C/N)

-------------------------------------------------------------------------------
  Indices      1         2         3         4         5         6    
-------------------------------------------------------------------------------
       x    -0.00000   0.00000   0.00000  -0.00000  -0.00000   0.00000
       y    -0.00000   0.00000   0.00000  -0.00000  -0.00000  -0.00000
       z    -0.00000  -0.00000   0.00000   0.00000  -0.00000  -0.00000
-------------------------------------------------------------------------------


  Static dielectric constant tensor : 

-------------------------------------------------------------------------------
              x         y         z
-------------------------------------------------------------------------------
       x    12.11703   0.00000  -0.00000
       y     0.00000  12.11703  -0.00000
       z    -0.00000  -0.00000  12.11703
--------------------------------------------------------------------------------

  High frequency dielectric constant tensor : 

-------------------------------------------------------------------------------
              x         y         z
-------------------------------------------------------------------------------
       x     1.74104   0.00000   0.00000
       y     0.00000   1.74104   0.00000
       z     0.00000   0.00000   1.74104
-------------------------------------------------------------------------------

  Static refractive indices : 

-------------------------------------------------------------------------------
    1 =    3.48095      2 =    3.48095      3 =    3.48095
-------------------------------------------------------------------------------

  High frequency refractive indices : 

-------------------------------------------------------------------------------
    1 =    1.31948      2 =    1.31948      3 =    1.31948
-------------------------------------------------------------------------------


  Time to end of optimisation =       0.0107 seconds

********************************************************************************
*  Defect calculation for configuration   1 :                                  *
********************************************************************************

  Total number of defects =      3

  Total charge on defect  =   1.00

  Defect centre is at   0.5878   0.0000   0.0000  Angs

  Region 1 radius =  20.0000      Number of ions =   3886

  Number of symmetry inequivalent region 1 ions  =    626

  Region 2 radius =  24.0000      Number of ions =   2876

  Number of symmetry inequivalent region 2a ions =    419

  Region 2a mode = 4 : screened electrostatics due to region 1 
                       neglect correction to region 1 forces from 2a
                       region 2a displacements based on defects only

  Region 2a ions will only interact with defects in region 1

  Vacancies:

--------------------------------------------------------------------------------
    Specification type     Symbol/Number         x          y          z
--------------------------------------------------------------------------------
    Cartesian                                0.000000   0.000000   0.000000
    Cartesian                                3.918873   0.000000   0.000000
--------------------------------------------------------------------------------

  Interstitials:

--------------------------------------------------------------------------------
    Specification type     Symbol/Number         x          y          z
--------------------------------------------------------------------------------
    Atom/Cartesian          Cl               0.587831   0.000000   0.000000
--------------------------------------------------------------------------------


  Symmetry reduced region 1 (Relative to defect centre) :

--------------------------------------------------------------------------------
   No.   Atomic       x            y             z       Radius  Multiplicity   
         Label      (Angs)       (Angs)        (Angs)    (Angs)     
--------------------------------------------------------------------------------
     1  Cl    c      0.0000       0.0000       0.0000    0.0000     1    Defect
     2  Li    c      1.3725 *    -1.9603 *     0.0000    0.0000     4          
     3  Li    c     -0.5878 *    -1.9603 *    -1.9603    0.0000     4          
     4  O     c      1.3725 *    -1.9603 *    -1.9603    0.0000     4          
     5  Li    c     -2.5482 *    -1.9603 *     0.0000    0.0000     4          
     6  O     c     -2.5482 *    -1.9603 *    -1.9603    0.0000     4          
     7  Cl    c     -0.5878 *     0.0000       3.9207 *  0.0000     4          
     8  Li    c      3.3328 *    -1.9603 *    -1.9603    0.0000     4          
     9  Cl    c     -4.5085 *     0.0000       0.0000    0.0000     1          
    10  Li    c      1.3725 *    -1.9603 *     3.9207 *  0.0000     8          
    11  Li    c     -2.5482 *    -1.9603 *     3.9207 *  0.0000     8          
    12  Cl    c      3.3328 *     0.0000       3.9207 *  0.0000     4          
    13  Li    c     -4.5085 *    -1.9603 *    -1.9603    0.0000     4          
    14  Cl    c     -0.5878 *     3.9207 *     3.9207    0.0000     4          
    15  Li    c      5.2932 *    -1.9603 *     0.0000    0.0000     4          
    16  Cl    c     -4.5085 *     0.0000       3.9207 *  0.0000     4          
    17  O     c      5.2932 *    -1.9603 *    -1.9603    0.0000     4          
    18  Li    c      1.3725 *     5.8810 *     0.0000    0.0000     4          
    19  Li    c     -0.5878 *    -1.9603 *     5.8810 *  0.0000     8          
    20  O     c      1.3725 *    -1.9603 *     5.8810 *  0.0000     8          
    21  Li    c     -2.5482 *     5.8810 *     0.0000    0.0000     4          
    22  Cl    c      3.3328 *     3.9207 *     3.9207    0.0000     4          
    23  O     c     -2.5482 *    -1.9603 *     5.8810 *  0.0000     8          
    24  Li    c     -6.4688 *    -1.9603 *     0.0000    0.0000     4          
    25  Li    c      5.2932 *     3.9207 *    -1.9603 *  0.0000     8          
    26  O     c     -6.4688 *    -1.9603 *    -1.9603    0.0000     4          
    27  Li    c      3.3328 *    -1.9603 *     5.8810 *  0.0000     8          
    28  Cl    c     -4.5085 *     3.9207 *     3.9207    0.0000     4          
    29  Li    c      1.3725 *     5.8810 *     3.9207 *  0.0000     8          
    30  Cl    c      7.2535 *     0.0000       0.0000    0.0000     1          
    31  Li    c     -2.5482 *     5.8810 *     3.9207 *  0.0000     8          
    32  Li    c     -4.5085 *    -1.9603 *     5.8810 *  0.0000     8          
    33  Li    c      7.2535 *    -1.9603 *    -1.9603    0.0000     4          
    34  Li    c     -6.4688 *    -1.9603 *     3.9207 *  0.0000     8          
    35  Cl    c     -0.5878 *     0.0000       7.8414 *  0.0000     4          
    36  Li    c      5.2932 *     5.8810 *     0.0000    0.0000     4          
    37  O     c      5.2932 *    -1.9603 *     5.8810 *  0.0000     8          
    38  Li    c      1.3725 *    -1.9603 *     7.8414 *  0.0000     8          
    39  Cl    c      7.2535 *     0.0000       3.9207 *  0.0000     4          
    40  Li    c     -0.5878 *     5.8810 *     5.8810    0.0000     4          
    41  Cl    c     -8.4292 *     0.0000       0.0000    0.0000     1          
    42  O     c      1.3725 *     5.8810 *     5.8810    0.0000     4          
    43  Li    c     -2.5482 *    -1.9603 *     7.8414 *  0.0000     8          
    44  Cl    c      3.3328 *     0.0000       7.8414 *  0.0000     4          
    45  O     c     -2.5482 *     5.8810 *     5.8810    0.0000     4          
    46  Li    c     -6.4688 *     5.8810 *     0.0000    0.0000     4          
    47  Cl    c     -0.5878 *     3.9207 *     7.8414 *  0.0000     8          
    48  Li    c      5.2932 *     3.9207 *     5.8810 *  0.0000     8          
    49  Li    c     -8.4292 *    -1.9603 *    -1.9603    0.0000     4          
    50  O     c     -6.4688 *    -1.9603 *     5.8810 *  0.0000     8          
    51  Li    c      3.3328 *     5.8810 *     5.8810    0.0000     4          
    52  Cl    c     -4.5085 *     0.0000       7.8414 *  0.0000     4          
    53  Cl    c      7.2535 *     3.9207 *     3.9207    0.0000     4          
    54  Cl    c     -8.4292 *     0.0000       3.9207 *  0.0000     4          
    55  Cl    c      3.3328 *     3.9207 *     7.8414 *  0.0000     8          
    56  Li    c      9.2139 *    -1.9603 *     0.0000    0.0000     4          
    57  Li    c     -4.5085 *     5.8810 *     5.8810    0.0000     4          
    58  Li    c      7.2535 *    -1.9603 *     5.8810 *  0.0000     8          
    59  Li    c     -6.4688 *     5.8810 *     3.9207 *  0.0000     8          
    60  O     c      9.2139 *    -1.9603 *    -1.9603    0.0000     4          
    61  Li    c      5.2932 *    -1.9603 *     7.8414 *  0.0000     8          
    62  Cl    c     -4.5085 *     3.9207 *     7.8414 *  0.0000     8          
    63  O     c      5.2932 *     5.8810 *     5.8810    0.0000     4          
    64  Li    c      1.3725 *     5.8810 *     7.8414 *  0.0000     8          
    65  Li    c      1.3725 *     9.8017 *     0.0000    0.0000     4          
    66  Li    c     -0.5878 *    -1.9603 *     9.8017 *  0.0000     8          
    67  Cl    c     -8.4292 *     3.9207 *     3.9207    0.0000     4          
    68  O     c      1.3725 *    -1.9603 *     9.8017 *  0.0000     8          
    69  Li    c     -2.5482 *     5.8810 *     7.8414 *  0.0000     8          
    70  Li    c     -2.5482 *     9.8017 *     0.0000    0.0000     4          
    71  Li    c      9.2139 *    -1.9603 *     3.9207 *  0.0000     8          
    72  O     c     -2.5482 *    -1.9603 *     9.8017 *  0.0000     8          
    73  Li    c     -6.4688 *    -1.9603 *     7.8414 *  0.0000     8          
    74  Li    c     -8.4292 *    -1.9603 *     5.8810 *  0.0000     8          
    75  O     c     -6.4688 *     5.8810 *     5.8810    0.0000     4          
    76  Li    c      3.3328 *    -1.9603 *     9.8017 *  0.0000     8          
    77  Li    c    -10.3895 *    -1.9603 *     0.0000    0.0000     4          
    78  Li    c      1.3725 *     9.8017 *     3.9207 *  0.0000     8          
    79  Cl    c      7.2535 *     0.0000       7.8414 *  0.0000     4          
    80  O     c    -10.3895 *    -1.9603 *    -1.9603    0.0000     4          
    81  Li    c     -2.5482 *     3.9207 *     9.8017 *  0.0000     8          
    82  Li    c      9.2139 *     5.8810 *     0.0000    0.0000     4          
    83  Li    c     -4.5085 *    -1.9603 *     9.8017 *  0.0000     8          
    84  Li    c      7.2535 *     5.8810 *     5.8810    0.0000     4          
    85  Cl    c     -0.5878 *     7.8414 *     7.8414    0.0000     4          
    86  O     c      9.2139 *    -1.9603 *     5.8810 *  0.0000     8          
    87  Li    c      5.2932 *     5.8810 *     7.8414 *  0.0000     8          
    88  Li    c      5.2932 *     9.8017 *     0.0000    0.0000     4          
    89  Cl    c     11.1742 *     0.0000       0.0000    0.0000     1          
    90  Li    c    -10.3895 *    -1.9603 *     3.9207 *  0.0000     8          
    91  O     c      5.2932 *    -1.9603 *     9.8017 *  0.0000     8          
    92  Cl    c      7.2535 *     3.9207 *     7.8414 *  0.0000     8          
    93  Li    c     -0.5878 *     5.8810 *     9.8017 *  0.0000     8          
    94  Cl    c     -8.4292 *     0.0000       7.8414 *  0.0000     4          
    95  O     c      1.3725 *     5.8810 *     9.8017 *  0.0000     8          
    96  Li    c     11.1742 *    -1.9603 *    -1.9603    0.0000     4          
    97  Cl    c      3.3328 *     7.8414 *     7.8414    0.0000     4          
    98  Li    c      9.2139 *     5.8810 *     3.9207 *  0.0000     8          
    99  O     c     -2.5482 *     5.8810 *     9.8017 *  0.0000     8          
   100  Li    c     -6.4688 *     5.8810 *     7.8414 *  0.0000     8          
   101  Li    c     -6.4688 *     9.8017 *     0.0000    0.0000     4          
   102  Cl    c     -0.5878 *     0.0000      11.7620 *  0.0000     4          
   103  Li    c      5.2932 *     9.8017 *     3.9207 *  0.0000     8          
   104  Li    c     -8.4292 *     5.8810 *     5.8810    0.0000     4          
   105  Cl    c     11.1742 *     0.0000       3.9207 *  0.0000     4          
   106  O     c     -6.4688 *     9.8017 *    -1.9603 *  0.0000     8          
   107  Li    c      3.3328 *     5.8810 *     9.8017 *  0.0000     8          
   108  Li    c    -10.3895 *     5.8810 *     0.0000    0.0000     4          
   109  Cl    c     -4.5085 *     7.8414 *     7.8414    0.0000     4          
   110  Li    c      1.3725 *    -1.9603 *    11.7620 *  0.0000     8          
   111  O     c    -10.3895 *     5.8810 *    -1.9603 *  0.0000     8          
   112  Cl    c     -8.4292 *     3.9207 *     7.8414 *  0.0000     8          
   113  Li    c     -2.5482 *    11.7620 *    -1.9603 *  0.0000     8          
   114  Cl    c      3.3328 *     0.0000      11.7620 *  0.0000     4          
   115  Li    c      9.2139 *    -1.9603 *     7.8414 *  0.0000     8          
   116  Li    c     -4.5085 *     5.8810 *     9.8017 *  0.0000     8          
   117  Cl    c    -12.3499 *     0.0000       0.0000    0.0000     1          
   118  Li    c      7.2535 *     9.8017 *    -1.9603 *  0.0000     8          
   119  Li    c     -6.4688 *     9.8017 *     3.9207 *  0.0000     8          
   120  Cl    c     -0.5878 *     3.9207 *    11.7620 *  0.0000     8          
   121  O     c      9.2139 *     5.8810 *     5.8810    0.0000     4          
   122  Cl    c     11.1742 *     3.9207 *     3.9207    0.0000     4          
   123  Li    c    -10.3895 *     5.8810 *     3.9207 *  0.0000     8          
   124  Cl    c     -4.5085 *     0.0000      11.7620 *  0.0000     4          
   125  O     c      5.2932 *     5.8810 *     9.8017 *  0.0000     8          
   126  Li    c      1.3725 *     9.8017 *     7.8414 *  0.0000     8          
   127  Li    c    -12.3499 *    -1.9603 *    -1.9603    0.0000     4          
   128  Li    c     11.1742 *    -1.9603 *     5.8810 *  0.0000     8          
   129  Li    c     -2.5482 *     9.8017 *     7.8414 *  0.0000     8          
   130  Cl    c      3.3328 *     3.9207 *    11.7620 *  0.0000     8          
   131  Cl    c    -12.3499 *     0.0000       3.9207 *  0.0000     4          
   132  Li    c      5.2932 *    -1.9603 *    11.7620 *  0.0000     8          
   133  Li    c     -8.4292 *     9.8017 *    -1.9603 *  0.0000     8          
   134  O     c     -6.4688 *     9.8017 *     5.8810 *  0.0000     8          
   135  Li    c    -10.3895 *     7.8414 *    -1.9603 *  0.0000     8          
   136  Cl    c     -4.5085 *    11.7620 *     3.9207 *  0.0000     8          
   137  Li    c      1.3725 *     5.8810 *    11.7620 *  0.0000     8          
   138  Cl    c      7.2535 *     7.8414 *     7.8414    0.0000     4          
   139  Li    c     13.1345 *    -1.9603 *     0.0000    0.0000     4          
   140  O     c    -10.3895 *     5.8810 *     5.8810    0.0000     4          
   141  Li    c     -2.5482 *     5.8810 *    11.7620 *  0.0000     8          
   142  O     c     13.1345 *    -1.9603 *    -1.9603    0.0000     4          
   143  Li    c      9.2139 *     5.8810 *     7.8414 *  0.0000     8          
   144  Li    c      9.2139 *     9.8017 *     0.0000    0.0000     4          
   145  Cl    c    -12.3499 *     3.9207 *     3.9207    0.0000     4          
   146  Li    c      7.2535 *     9.8017 *     5.8810 *  0.0000     8          
   147  Li    c     -6.4688 *    -1.9603 *    11.7620 *  0.0000     8          
   148  O     c      9.2139 *    -1.9603 *     9.8017 *  0.0000     8          
   149  Li    c      5.2932 *     9.8017 *     7.8414 *  0.0000     8          
   150  Cl    c     11.1742 *     0.0000       7.8414 *  0.0000     4          
   151  Li    c      1.3725 *    13.7224 *     0.0000    0.0000     4          
   152  Li    c    -12.3499 *    -1.9603 *     5.8810 *  0.0000     8          
   153  Cl    c      7.2535 *     0.0000      11.7620 *  0.0000     4          
   154  Li    c     13.1345 *    -1.9603 *     3.9207 *  0.0000     8          
   155  Li    c     -0.5878 *    13.7224 *    -1.9603 *  0.0000     8          
   156  Li    c     -0.5878 *     9.8017 *     9.8017    0.0000     4          
   157  Cl    c     -8.4292 *     7.8414 *     7.8414    0.0000     4          
   158  O     c      1.3725 *    -1.9603 *    13.7224 *  0.0000     8          
   159  O     c      1.3725 *     9.8017 *     9.8017    0.0000     4          
   160  Li    c     11.1742 *     5.8810 *     5.8810    0.0000     4          
   161  Li    c     -2.5482 *    13.7224 *     0.0000    0.0000     4          
   162  Li    c      9.2139 *     9.8017 *     3.9207 *  0.0000     8          
   163  O     c     -2.5482 *    13.7224 *    -1.9603 *  0.0000     8          
   164  O     c     -2.5482 *     9.8017 *     9.8017    0.0000     4          
   165  Li    c     -6.4688 *     9.8017 *     7.8414 *  0.0000     8          
   166  Cl    c     -0.5878 *     7.8414 *    11.7620 *  0.0000     8          
   167  Li    c      5.2932 *     5.8810 *    11.7620 *  0.0000     8          
   168  Li    c     -8.4292 *     9.8017 *     5.8810 *  0.0000     8          
   169  Cl    c     11.1742 *     3.9207 *     7.8414 *  0.0000     8          
   170  Li    c      3.3328 *    -1.9603 *    13.7224 *  0.0000     8          
   171  Li    c      3.3328 *     9.8017 *     9.8017    0.0000     4          
   172  Li    c    -10.3895 *     5.8810 *     7.8414 *  0.0000     8          
   173  Li    c    -10.3895 *     9.8017 *     0.0000    0.0000     4          
   174  Li    c      1.3725 *    13.7224 *     3.9207 *  0.0000     8          
   175  Cl    c      7.2535 *     3.9207 *    11.7620 *  0.0000     8          
   176  Li    c     13.1345 *     5.8810 *     0.0000    0.0000     4          
   177  O     c    -10.3895 *     9.8017 *    -1.9603 *  0.0000     8          
   178  Li    c    -14.3102 *    -1.9603 *     0.0000    0.0000     4          
   179  Cl    c     -8.4292 *     0.0000      11.7620 *  0.0000     4          
   180  Li    c     -2.5482 *    13.7224 *     3.9207 *  0.0000     8          
   181  Cl    c      3.3328 *     7.8414 *    11.7620 *  0.0000     8          
   182  O     c     13.1345 *    -1.9603 *     5.8810 *  0.0000     8          
   183  O     c    -14.3102 *    -1.9603 *    -1.9603    0.0000     4          
   184  Li    c     -4.5085 *    13.7224 *    -1.9603 *  0.0000     8          
   185  Li    c     -4.5085 *     9.8017 *     9.8017    0.0000     4          
   186  Cl    c    -12.3499 *     0.0000       7.8414 *  0.0000     4          
   187  Li    c     -6.4688 *     5.8810 *    11.7620 *  0.0000     8          
   188  O     c      9.2139 *     5.8810 *     9.8017 *  0.0000     8          
   189  Li    c      5.2932 *    13.7224 *     0.0000    0.0000     4          
   190  Li    c    -10.3895 *     9.8017 *     3.9207 *  0.0000     8          
   191  Cl    c     -4.5085 *    11.7620 *     7.8414 *  0.0000     8          
   192  O     c      5.2932 *    -1.9603 *    13.7224 *  0.0000     8          
   193  O     c      5.2932 *     9.8017 *     9.8017    0.0000     4          
   194  Li    c    -12.3499 *     5.8810 *     5.8810    0.0000     4          
   195  Li    c     13.1345 *     5.8810 *     3.9207 *  0.0000     8          
   196  Li    c     -0.5878 *     5.8810 *    13.7224 *  0.0000     8          
   197  Li    c    -14.3102 *    -1.9603 *     3.9207 *  0.0000     8          
   198  Cl    c     -8.4292 *     3.9207 *    11.7620 *  0.0000     8          
   199  O     c      1.3725 *     5.8810 *    13.7224 *  0.0000     8          
   200  Li    c     11.1742 *    -1.9603 *     9.8017 *  0.0000     8          
   201  Li    c      9.2139 *    11.7620 *    -1.9603 *  0.0000     8          
   202  Cl    c     15.0949 *     0.0000       0.0000    0.0000     1          
   203  Cl    c    -12.3499 *     3.9207 *     7.8414 *  0.0000     8          
   204  O     c     -2.5482 *     5.8810 *    13.7224 *  0.0000     8          
   205  Li    c     -6.4688 *    13.7224 *     0.0000    0.0000     4          
   206  Li    c      5.2932 *    13.7224 *     3.9207 *  0.0000     8          
   207  O     c     -6.4688 *    13.7224 *    -1.9603 *  0.0000     8          
   208  O     c     -6.4688 *     9.8017 *     9.8017    0.0000     4          
   209  Li    c      3.3328 *     5.8810 *    13.7224 *  0.0000     8          
   210  Li    c     15.0949 *    -1.9603 *    -1.9603    0.0000     4          
   211  Li    c      1.3725 *     9.8017 *    11.7620 *  0.0000     8          
   212  Li    c     13.1345 *    -1.9603 *     7.8414 *  0.0000     8          
   213  O     c    -10.3895 *     5.8810 *     9.8017 *  0.0000     8          
   214  Li    c    -14.3102 *     5.8810 *     0.0000    0.0000     4          
   215  Li    c     -2.5482 *     9.8017 *    11.7620 *  0.0000     8          
   216  O     c     13.1345 *     5.8810 *     5.8810    0.0000     4          
   217  Li    c      9.2139 *     9.8017 *     7.8414 *  0.0000     8          
   218  O     c    -14.3102 *    -1.9603 *     5.8810 *  0.0000     8          
   219  Li    c     -4.5085 *     5.8810 *    13.7224 *  0.0000     8          
   220  Cl    c     15.0949 *     0.0000       3.9207 *  0.0000     4          
   221  Li    c      7.2535 *    13.7224 *    -1.9603 *  0.0000     8          
   222  Li    c      7.2535 *     9.8017 *     9.8017    0.0000     4          
   223  Li    c     -6.4688 *    13.7224 *     3.9207 *  0.0000     8          
   224  Cl    c     -0.5878 *     0.0000      15.6827 *  0.0000     4          
   225  Cl    c     11.1742 *     7.8414 *     7.8414    0.0000     4          
   226  Li    c    -10.3895 *    -1.9603 *    11.7620 *  0.0000     8          
   227  O     c      5.2932 *     5.8810 *    13.7224 *  0.0000     8          
   228  Li    c      1.3725 *    -1.9603 *    15.6827 *  0.0000     8          
   229  Li    c      1.3725 *    13.7224 *     7.8414 *  0.0000     8          
   230  Li    c    -12.3499 *    -1.9603 *     9.8017 *  0.0000     8          
   231  Cl    c      7.2535 *     7.8414 *    11.7620 *  0.0000     8          
   232  Li    c    -14.3102 *     5.8810 *     3.9207 *  0.0000     8          
   233  Li    c     11.1742 *     5.8810 *     9.8017 *  0.0000     8          
   234  Li    c     -2.5482 *    -1.9603 *    15.6827 *  0.0000     8          
   235  Li    c     -2.5482 *    13.7224 *     7.8414 *  0.0000     8          
   236  Cl    c      3.3328 *     0.0000      15.6827 *  0.0000     4          
   237  Li    c      9.2139 *    11.7620 *     5.8810 *  0.0000     8          
   238  Cl    c     15.0949 *     3.9207 *     3.9207    0.0000     4          
   239  Cl    c     -0.5878 *     3.9207 *    15.6827 *  0.0000     8          
   240  Li    c      5.2932 *     9.8017 *    11.7620 *  0.0000     8          
   241  Li    c     -8.4292 *    13.7224 *    -1.9603 *  0.0000     8          
   242  Li    c     -8.4292 *     9.8017 *     9.8017    0.0000     4          
   243  Cl    c     11.1742 *     0.0000      11.7620 *  0.0000     4          
   244  Cl    c    -16.2705 *     0.0000       0.0000    0.0000     1          
   245  O     c     -6.4688 *    13.7224 *     5.8810 *  0.0000     8          
   246  Li    c    -10.3895 *     9.8017 *     7.8414 *  0.0000     8          
   247  Cl    c     -4.5085 *     0.0000      15.6827 *  0.0000     4          
   248  Li    c     15.0949 *    -1.9603 *     5.8810 *  0.0000     8          
   249  Li    c     13.1345 *     5.8810 *     7.8414 *  0.0000     8          
   250  Li    c     13.1345 *     9.8017 *     0.0000    0.0000     4          
   251  Li    c    -14.3102 *    -1.9603 *     7.8414 *  0.0000     8          
   252  Cl    c     -8.4292 *     7.8414 *    11.7620 *  0.0000     8          
   253  Li    c    -16.2705 *    -1.9603 *    -1.9603    0.0000     4          
   254  Cl    c      3.3328 *     3.9207 *    15.6827 *  0.0000     8          
   255  O     c     13.1345 *    -1.9603 *     9.8017 *  0.0000     8          
   256  Li    c      9.2139 *    13.7224 *     0.0000    0.0000     4          
   257  O     c    -14.3102 *     5.8810 *     5.8810    0.0000     4          
   258  Cl    c    -12.3499 *     7.8414 *     7.8414    0.0000     4          
   259  Li    c      7.2535 *     5.8810 *    13.7224 *  0.0000     8          
   260  Li    c     -6.4688 *     9.8017 *    11.7620 *  0.0000     8          
   261  Cl    c     -0.5878 *    11.7620 *    11.7620    0.0000     4          
   262  O     c      9.2139 *    -1.9603 *    13.7224 *  0.0000     8          
   263  O     c      9.2139 *     9.8017 *     9.8017    0.0000     4          
   264  Li    c      5.2932 *    -1.9603 *    15.6827 *  0.0000     8          
   265  Li    c      5.2932 *    13.7224 *     7.8414 *  0.0000     8          
   266  Cl    c     11.1742 *     3.9207 *    11.7620 *  0.0000     8          
   267  Cl    c    -16.2705 *     0.0000       3.9207 *  0.0000     4          
   268  Li    c    -10.3895 *     5.8810 *    11.7620 *  0.0000     8          
   269  Cl    c     -4.5085 *     3.9207 *    15.6827 *  0.0000     8          
   270  Li    c      1.3725 *     5.8810 *    15.6827 *  0.0000     8          
   271  Li    c    -12.3499 *     5.8810 *     9.8017 *  0.0000     8          
   272  Li    c     13.1345 *     3.9207 *     9.8017 *  0.0000     8          
   273  Li    c     -0.5878 *     9.8017 *    13.7224 *  0.0000     8          
   274  O     c      1.3725 *     9.8017 *    13.7224 *  0.0000     8          
   275  Li    c     -2.5482 *    15.6827 *     5.8810 *  0.0000     8          
   276  Cl    c      3.3328 *    11.7620 *    11.7620    0.0000     4          
   277  Li    c      9.2139 *     3.9207 *    13.7224 *  0.0000     8          
   278  Cl    c     15.0949 *     0.0000       7.8414 *  0.0000     4          
   279  Cl    c    -12.3499 *     0.0000      11.7620 *  0.0000     4          
   280  O     c     -2.5482 *    13.7224 *     9.8017 *  0.0000     8          
   281  Li    c     -6.4688 *    -1.9603 *    15.6827 *  0.0000     8          
   282  Li    c     -6.4688 *    13.7224 *     7.8414 *  0.0000     8          
   283  Li    c     -8.4292 *    13.7224 *     5.8810 *  0.0000     8          
   284  Li    c     17.0552 *    -1.9603 *     0.0000    0.0000     4          
   285  Cl    c    -16.2705 *     3.9207 *     3.9207    0.0000     4          
   286  Li    c      3.3328 *     9.8017 *    13.7224 *  0.0000     8          
   287  Li    c    -10.3895 *    13.7224 *     0.0000    0.0000     4          
   288  Cl    c     -4.5085 *    11.7620 *    11.7620    0.0000     4          
   289  Li    c     15.0949 *     5.8810 *     5.8810    0.0000     4          
   290  Cl    c      7.2535 *     0.0000      15.6827 *  0.0000     4          
   291  O     c     17.0552 *    -1.9603 *    -1.9603    0.0000     4          
   292  O     c    -10.3895 *    13.7224 *    -1.9603 *  0.0000     8          
   293  O     c    -10.3895 *     9.8017 *     9.8017    0.0000     4          
   294  Li    c    -14.3102 *     5.8810 *     7.8414 *  0.0000     8          
   295  Li    c    -14.3102 *     9.8017 *     0.0000    0.0000     4          
   296  Li    c    -16.2705 *     5.8810 *    -1.9603 *  0.0000     8          
   297  O     c     13.1345 *     5.8810 *     9.8017 *  0.0000     8          
   298  O     c    -14.3102 *    -1.9603 *     9.8017 *  0.0000     8          
   299  Li    c     -4.5085 *     9.8017 *    13.7224 *  0.0000     8          
   300  Cl    c     15.0949 *     3.9207 *     7.8414 *  0.0000     8          
   301  Cl    c    -12.3499 *     3.9207 *    11.7620 *  0.0000     8          
   302  Cl    c     -0.5878 *     7.8414 *    15.6827 *  0.0000     8          
   303  O     c      9.2139 *     5.8810 *    13.7224 *  0.0000     8          
   304  Li    c      5.2932 *     5.8810 *    15.6827 *  0.0000     8          
   305  Li    c     17.0552 *    -1.9603 *     3.9207 *  0.0000     8          
   306  Li    c    -10.3895 *    13.7224 *     3.9207 *  0.0000     8          
   307  O     c      5.2932 *     9.8017 *    13.7224 *  0.0000     8          
   308  Li    c      1.3725 *    17.6430 *     0.0000    0.0000     4          
   309  Cl    c      7.2535 *     3.9207 *    15.6827 *  0.0000     8          
   310  Li    c     13.1345 *    11.7620 *    -1.9603 *  0.0000     8          
   311  Li    c     -0.5878 *    -1.9603 *    17.6430 *  0.0000     8          
   312  Li    c    -14.3102 *     3.9207 *     9.8017 *  0.0000     8          
   313  Cl    c     -8.4292 *     0.0000      15.6827 *  0.0000     4          
   314  O     c      1.3725 *    -1.9603 *    17.6430 *  0.0000     8          
   315  Li    c     11.1742 *    -1.9603 *    13.7224 *  0.0000     8          
   316  Li    c     11.1742 *     9.8017 *     9.8017    0.0000     4          
   317  Li    c     -2.5482 *    17.6430 *     0.0000    0.0000     4          
   318  Cl    c      3.3328 *     7.8414 *    15.6827 *  0.0000     8          
   319  Li    c      9.2139 *     9.8017 *    11.7620 *  0.0000     8          
   320  O     c     -2.5482 *    -1.9603 *    17.6430 *  0.0000     8          
   321  Li    c     -6.4688 *     5.8810 *    15.6827 *  0.0000     8          
   322  Cl    c     11.1742 *     7.8414 *    11.7620 *  0.0000     8          
   323  Li    c     17.0552 *     5.8810 *     0.0000    0.0000     4          
   324  Cl    c    -16.2705 *     0.0000       7.8414 *  0.0000     4          
   325  O     c     -6.4688 *     9.8017 *    13.7224 *  0.0000     8          
   326  Li    c      3.3328 *    17.6430 *    -1.9603 *  0.0000     8          
   327  Cl    c     -4.5085 *     7.8414 *    15.6827 *  0.0000     8          
   328  Li    c     15.0949 *    -1.9603 *     9.8017 *  0.0000     8          
   329  Li    c      1.3725 *    13.7224 *    11.7620 *  0.0000     8          
   330  Li    c      1.3725 *    17.6430 *     3.9207 *  0.0000     8          
   331  Cl    c      7.2535 *    11.7620 *    11.7620    0.0000     4          
   332  O     c     17.0552 *    -1.9603 *     5.8810 *  0.0000     8          
   333  Li    c     13.1345 *     7.8414 *     9.8017 *  0.0000     8          
   334  O     c    -10.3895 *    13.7224 *     5.8810 *  0.0000     8          
   335  Cl    c     -8.4292 *     3.9207 *    15.6827 *  0.0000     8          
   336  Li    c     -2.5482 *    13.7224 *    11.7620 *  0.0000     8          
   337  Li    c     -2.5482 *     3.9207 *    17.6430 *  0.0000     8          
   338  Li    c    -16.2705 *     5.8810 *     5.8810    0.0000     4          
   339  Li    c      9.2139 *    -1.9603 *    15.6827 *  0.0000     8          
   340  Li    c      9.2139 *     7.8414 *    13.7224 *  0.0000     8          
   341  O     c    -14.3102 *     5.8810 *     9.8017 *  0.0000     8          
   342  Li    c     -4.5085 *    -1.9603 *    17.6430 *  0.0000     8          
   343  Li    c    -18.2309 *    -1.9603 *     0.0000    0.0000     4          
   344  Li    c      7.2535 *     9.8017 *    13.7224 *  0.0000     8          
   345  Li    c      5.2932 *    17.6430 *     0.0000    0.0000     4          
   346  O     c    -18.2309 *    -1.9603 *    -1.9603    0.0000     4          
   347  Li    c     17.0552 *     3.9207 *     5.8810 *  0.0000     8          
   348  Cl    c    -16.2705 *     3.9207 *     7.8414 *  0.0000     8          
   349  Li    c    -10.3895 *     9.8017 *    11.7620 *  0.0000     8          
   350  O     c      5.2932 *    17.6430 *    -1.9603 *  0.0000     8          
   351  Li    c      1.3725 *     9.8017 *    15.6827 *  0.0000     8          
   352  Li    c    -12.3499 *    -1.9603 *    13.7224 *  0.0000     8          
   353  Li    c    -12.3499 *     9.8017 *     9.8017    0.0000     4          
   354  Li    c     13.1345 *    11.7620 *     5.8810 *  0.0000     8          
   355  Li    c     -0.5878 *     5.8810 *    17.6430 *  0.0000     8          
   356  Li    c    -14.3102 *    11.7620 *    -1.9603 *  0.0000     8          
   357  Cl    c     -8.4292 *    11.7620 *    11.7620    0.0000     4          
   358  O     c      1.3725 *     5.8810 *    17.6430 *  0.0000     8          
   359  Li    c     11.1742 *     5.8810 *    13.7224 *  0.0000     8          
   360  Li    c     -2.5482 *     9.8017 *    15.6827 *  0.0000     8          
   361  Cl    c     15.0949 *     7.8414 *     7.8414    0.0000     4          
   362  Li    c    -18.2309 *    -1.9603 *     3.9207 *  0.0000     8          
   363  Cl    c    -12.3499 *     7.8414 *    11.7620 *  0.0000     8          
   364  O     c     -2.5482 *     5.8810 *    17.6430 *  0.0000     8          
   365  Li    c     -6.4688 *    17.6430 *     0.0000    0.0000     4          
   366  Li    c      5.2932 *    13.7224 *    11.7620 *  0.0000     8          
   367  Li    c      5.2932 *    17.6430 *     3.9207 *  0.0000     8          
   368  Li    c     -8.4292 *     9.8017 *    13.7224 *  0.0000     8          
   369  Li    c     17.0552 *    -1.9603 *     7.8414 *  0.0000     8          
   370  O     c     -6.4688 *    -1.9603 *    17.6430 *  0.0000     8          
   371  Li    c      3.3328 *    17.6430 *     5.8810 *  0.0000     8          
   372  Li    c    -10.3895 *    -1.9603 *    15.6827 *  0.0000     8          
   373  Li    c    -10.3895 *    13.7224 *     7.8414 *  0.0000     8          
   374  Li    c     15.0949 *     5.8810 *     9.8017 *  0.0000     8          
   375  Cl    c      7.2535 *     7.8414 *    15.6827 *  0.0000     8          
   376  O     c     17.0552 *     5.8810 *     5.8810    0.0000     4          
   377  Li    c     13.1345 *    13.7224 *     0.0000    0.0000     4          
   378  Cl    c     19.0155 *     0.0000       0.0000    0.0000     1          
   379  Li    c    -14.3102 *     7.8414 *     9.8017 *  0.0000     8          
   380  Li    c    -16.2705 *    -1.9603 *     9.8017 *  0.0000     8          
   381  O     c     13.1345 *    -1.9603 *    13.7224 *  0.0000     8          
   382  O     c     13.1345 *     9.8017 *     9.8017    0.0000     4          
   383  Li    c      9.2139 *     5.8810 *    15.6827 *  0.0000     8          
   384  Li    c     -4.5085 *    17.6430 *     5.8810 *  0.0000     8          
   385  Cl    c     15.0949 *     0.0000      11.7620 *  0.0000     4          
   386  Li    c    -18.2309 *     5.8810 *     0.0000    0.0000     4          
   387  Li    c      7.2535 *    -1.9603 *    17.6430 *  0.0000     8          
   388  Li    c     -6.4688 *    13.7224 *    11.7620 *  0.0000     8          
   389  Li    c     -6.4688 *     3.9207 *    17.6430 *  0.0000     8          
   390  O     c      9.2139 *     9.8017 *    13.7224 *  0.0000     8          
   391  Li    c     19.0155 *    -1.9603 *    -1.9603    0.0000     4          
   392  Li    c      5.2932 *     9.8017 *    15.6827 *  0.0000     8          
   393  O     c    -18.2309 *    -1.9603 *     5.8810 *  0.0000     8          
   394  Cl    c     11.1742 *     0.0000      15.6827 *  0.0000     4          
   395  O     c      5.2932 *    17.6430 *     5.8810 *  0.0000     8          
   396  Li    c      1.3725 *    17.6430 *     7.8414 *  0.0000     8          
   397  Li    c    -12.3499 *     5.8810 *    13.7224 *  0.0000     8          
   398  Li    c     13.1345 *     3.9207 *    13.7224 *  0.0000     8          
   399  Li    c     -0.5878 *    13.7224 *    13.7224    0.0000     4          
   400  Cl    c     19.0155 *     0.0000       3.9207 *  0.0000     4          
   401  Li    c    -14.3102 *    11.7620 *     5.8810 *  0.0000     8          
   402  Cl    c     -8.4292 *     7.8414 *    15.6827 *  0.0000     8          
   403  O     c      1.3725 *    13.7224 *    13.7224    0.0000     4          
   404  Li    c     -2.5482 *     7.8414 *    17.6430 *  0.0000     8          
   405  Cl    c     15.0949 *     3.9207 *    11.7620 *  0.0000     8          
   406  Li    c    -18.2309 *     3.9207 *     5.8810 *  0.0000     8          
   407  O     c     -2.5482 *    13.7224 *    13.7224    0.0000     4          
   408  Li    c     -6.4688 *     9.8017 *    15.6827 *  0.0000     8          
   409  Cl    c     -0.5878 *    11.7620 *    15.6827 *  0.0000     8          
   410  Cl    c     -0.5878 *     0.0000      19.6034 *  0.0000     4          
   411  Li    c     -8.4292 *    -1.9603 *    17.6430 *  0.0000     8          
   412  Cl    c     11.1742 *     3.9207 *    15.6827 *  0.0000     8          
   413  Li    c     17.0552 *     9.8017 *     0.0000    0.0000     4          
   414  Li    c     17.0552 *     7.8414 *     5.8810 *  0.0000     8          
   415  Cl    c    -16.2705 *     7.8414 *     7.8414    0.0000     4          
   416  O     c     -6.4688 *     5.8810 *    17.6430 *  0.0000     8          
   417  Li    c      3.3328 *    13.7224 *    13.7224    0.0000     4          
   418  Li    c    -10.3895 *     5.8810 *    15.6827 *  0.0000     8          
   419  Li    c      1.3725 *    -1.9603 *    19.6034 *  0.0000     8          
   420  O     c     17.0552 *     9.8017 *    -1.9603 *  0.0000     8          
   421  O     c    -10.3895 *     9.8017 *    13.7224 *  0.0000     8          
   422  Cl    c     19.0155 *     3.9207 *     3.9207    0.0000     4          
   423  Li    c    -14.3102 *    13.7224 *     0.0000    0.0000     4          
   424  Li    c     -2.5482 *    -1.9603 *    19.6034 *  0.0000     8          
   425  Li    c    -16.2705 *     5.8810 *     9.8017 *  0.0000     8          
   426  Cl    c      3.3328 *    11.7620 *    15.6827 *  0.0000     8          
   427  Cl    c      3.3328 *     0.0000      19.6034 *  0.0000     4          
   428  O     c     13.1345 *     5.8810 *    13.7224 *  0.0000     8          
   429  Li    c      9.2139 *    17.6430 *     0.0000    0.0000     4          
   430  O     c    -14.3102 *    -1.9603 *    13.7224 *  0.0000     8          
   431  O     c    -14.3102 *     9.8017 *     9.8017    0.0000     4          
   432  Li    c     -4.5085 *    13.7224 *    13.7224    0.0000     4          
   433  Li    c    -18.2309 *    -1.9603 *     7.8414 *  0.0000     8          
   434  Cl    c    -12.3499 *     0.0000      15.6827 *  0.0000     4          
   435  Li    c      7.2535 *     5.8810 *    17.6430 *  0.0000     8          
   436  Cl    s      0.0000       0.0000       0.0000    0.0000     1    Defect
   437  O     s      1.3725 *    -1.9603 *    -1.9603    0.0000     4          
   438  O     s     -2.5482 *    -1.9603 *    -1.9603    0.0000     4          
   439  Cl    s     -0.5878 *     0.0000       3.9207 *  0.0000     4          
   440  Cl    s     -4.5085 *     0.0000       0.0000    0.0000     1          
   441  Cl    s      3.3328 *     0.0000       3.9207 *  0.0000     4          
   442  Cl    s     -0.5878 *     3.9207 *     3.9207    0.0000     4          
   443  Cl    s     -4.5085 *     0.0000       3.9207 *  0.0000     4          
   444  O     s      5.2932 *    -1.9603 *    -1.9603    0.0000     4          
   445  O     s      1.3725 *    -1.9603 *     5.8810 *  0.0000     8          
   446  Cl    s      3.3328 *     3.9207 *     3.9207    0.0000     4          
   447  O     s     -2.5482 *    -1.9603 *     5.8810 *  0.0000     8          
   448  O     s     -6.4688 *    -1.9603 *    -1.9603    0.0000     4          
   449  Cl    s     -4.5085 *     3.9207 *     3.9207    0.0000     4          
   450  Cl    s      7.2535 *     0.0000       0.0000    0.0000     1          
   451  Cl    s     -0.5878 *     0.0000       7.8414 *  0.0000     4          
   452  O     s      5.2932 *    -1.9603 *     5.8810 *  0.0000     8          
   453  Cl    s      7.2535 *     0.0000       3.9207 *  0.0000     4          
   454  Cl    s     -8.4292 *     0.0000       0.0000    0.0000     1          
   455  O     s      1.3725 *     5.8810 *     5.8810    0.0000     4          
   456  Cl    s      3.3328 *     0.0000       7.8414 *  0.0000     4          
   457  O     s     -2.5482 *     5.8810 *     5.8810    0.0000     4          
   458  Cl    s     -0.5878 *     3.9207 *     7.8414 *  0.0000     8          
   459  O     s     -6.4688 *    -1.9603 *     5.8810 *  0.0000     8          
   460  Cl    s     -4.5085 *     0.0000       7.8414 *  0.0000     4          
   461  Cl    s      7.2535 *     3.9207 *     3.9207    0.0000     4          
   462  Cl    s     -8.4292 *     0.0000       3.9207 *  0.0000     4          
   463  Cl    s      3.3328 *     3.9207 *     7.8414 *  0.0000     8          
   464  O     s      9.2139 *    -1.9603 *    -1.9603    0.0000     4          
   465  Cl    s     -4.5085 *     3.9207 *     7.8414 *  0.0000     8          
   466  O     s      5.2932 *     5.8810 *     5.8810    0.0000     4          
   467  Cl    s     -8.4292 *     3.9207 *     3.9207    0.0000     4          
   468  O     s      1.3725 *    -1.9603 *     9.8017 *  0.0000     8          
   469  O     s     -2.5482 *    -1.9603 *     9.8017 *  0.0000     8          
   470  O     s     -6.4688 *     5.8810 *     5.8810    0.0000     4          
   471  Cl    s      7.2535 *     0.0000       7.8414 *  0.0000     4          
   472  O     s    -10.3895 *    -1.9603 *    -1.9603    0.0000     4          
   473  Cl    s     -0.5878 *     7.8414 *     7.8414    0.0000     4          
   474  O     s      9.2139 *    -1.9603 *     5.8810 *  0.0000     8          
   475  Cl    s     11.1742 *     0.0000       0.0000    0.0000     1          
   476  O     s      5.2932 *    -1.9603 *     9.8017 *  0.0000     8          
   477  Cl    s      7.2535 *     3.9207 *     7.8414 *  0.0000     8          
   478  Cl    s     -8.4292 *     0.0000       7.8414 *  0.0000     4          
   479  O     s      1.3725 *     5.8810 *     9.8017 *  0.0000     8          
   480  Cl    s      3.3328 *     7.8414 *     7.8414    0.0000     4          
   481  O     s     -2.5482 *     5.8810 *     9.8017 *  0.0000     8          
   482  Cl    s     -0.5878 *     0.0000      11.7620 *  0.0000     4          
   483  Cl    s     11.1742 *     0.0000       3.9207 *  0.0000     4          
   484  O     s     -6.4688 *     9.8017 *    -1.9603 *  0.0000     8          
   485  Cl    s     -4.5085 *     7.8414 *     7.8414    0.0000     4          
   486  O     s    -10.3895 *     5.8810 *    -1.9603 *  0.0000     8          
   487  Cl    s     -8.4292 *     3.9207 *     7.8414 *  0.0000     8          
   488  Cl    s      3.3328 *     0.0000      11.7620 *  0.0000     4          
   489  Cl    s    -12.3499 *     0.0000       0.0000    0.0000     1          
   490  Cl    s     -0.5878 *     3.9207 *    11.7620 *  0.0000     8          
   491  O     s      9.2139 *     5.8810 *     5.8810    0.0000     4          
   492  Cl    s     11.1742 *     3.9207 *     3.9207    0.0000     4          
   493  Cl    s     -4.5085 *     0.0000      11.7620 *  0.0000     4          
   494  O     s      5.2932 *     5.8810 *     9.8017 *  0.0000     8          
   495  Cl    s      3.3328 *     3.9207 *    11.7620 *  0.0000     8          
   496  Cl    s    -12.3499 *     0.0000       3.9207 *  0.0000     4          
   497  O     s     -6.4688 *     9.8017 *     5.8810 *  0.0000     8          
   498  Cl    s     -4.5085 *    11.7620 *     3.9207 *  0.0000     8          
   499  Cl    s      7.2535 *     7.8414 *     7.8414    0.0000     4          
   500  O     s    -10.3895 *     5.8810 *     5.8810    0.0000     4          
   501  O     s     13.1345 *    -1.9603 *    -1.9603    0.0000     4          
   502  Cl    s    -12.3499 *     3.9207 *     3.9207    0.0000     4          
   503  O     s      9.2139 *    -1.9603 *     9.8017 *  0.0000     8          
   504  Cl    s     11.1742 *     0.0000       7.8414 *  0.0000     4          
   505  Cl    s      7.2535 *     0.0000      11.7620 *  0.0000     4          
   506  Cl    s     -8.4292 *     7.8414 *     7.8414    0.0000     4          
   507  O     s      1.3725 *    -1.9603 *    13.7224 *  0.0000     8          
   508  O     s      1.3725 *     9.8017 *     9.8017    0.0000     4          
   509  O     s     -2.5482 *    13.7224 *    -1.9603 *  0.0000     8          
   510  O     s     -2.5482 *     9.8017 *     9.8017    0.0000     4          
   511  Cl    s     -0.5878 *     7.8414 *    11.7620 *  0.0000     8          
   512  Cl    s     11.1742 *     3.9207 *     7.8414 *  0.0000     8          
   513  Cl    s      7.2535 *     3.9207 *    11.7620 *  0.0000     8          
   514  O     s    -10.3895 *     9.8017 *    -1.9603 *  0.0000     8          
   515  Cl    s     -8.4292 *     0.0000      11.7620 *  0.0000     4          
   516  Cl    s      3.3328 *     7.8414 *    11.7620 *  0.0000     8          
   517  O     s     13.1345 *    -1.9603 *     5.8810 *  0.0000     8          
   518  O     s    -14.3102 *    -1.9603 *    -1.9603    0.0000     4          
   519  Cl    s    -12.3499 *     0.0000       7.8414 *  0.0000     4          
   520  O     s      9.2139 *     5.8810 *     9.8017 *  0.0000     8          
   521  Cl    s     -4.5085 *    11.7620 *     7.8414 *  0.0000     8          
   522  O     s      5.2932 *    -1.9603 *    13.7224 *  0.0000     8          
   523  O     s      5.2932 *     9.8017 *     9.8017    0.0000     4          
   524  Cl    s     -8.4292 *     3.9207 *    11.7620 *  0.0000     8          
   525  O     s      1.3725 *     5.8810 *    13.7224 *  0.0000     8          
   526  Cl    s     15.0949 *     0.0000       0.0000    0.0000     1          
   527  Cl    s    -12.3499 *     3.9207 *     7.8414 *  0.0000     8          
   528  O     s     -2.5482 *     5.8810 *    13.7224 *  0.0000     8          
   529  O     s     -6.4688 *    13.7224 *    -1.9603 *  0.0000     8          
   530  O     s     -6.4688 *     9.8017 *     9.8017    0.0000     4          
   531  O     s    -10.3895 *     5.8810 *     9.8017 *  0.0000     8          
   532  O     s     13.1345 *     5.8810 *     5.8810    0.0000     4          
   533  O     s    -14.3102 *    -1.9603 *     5.8810 *  0.0000     8          
   534  Cl    s     15.0949 *     0.0000       3.9207 *  0.0000     4          
   535  Cl    s     -0.5878 *     0.0000      15.6827 *  0.0000     4          
   536  Cl    s     11.1742 *     7.8414 *     7.8414    0.0000     4          
   537  O     s      5.2932 *     5.8810 *    13.7224 *  0.0000     8          
   538  Cl    s      7.2535 *     7.8414 *    11.7620 *  0.0000     8          
   539  Cl    s      3.3328 *     0.0000      15.6827 *  0.0000     4          
   540  Cl    s     15.0949 *     3.9207 *     3.9207    0.0000     4          
   541  Cl    s     -0.5878 *     3.9207 *    15.6827 *  0.0000     8          
   542  Cl    s     11.1742 *     0.0000      11.7620 *  0.0000     4          
   543  Cl    s    -16.2705 *     0.0000       0.0000    0.0000     1          
   544  O     s     -6.4688 *    13.7224 *     5.8810 *  0.0000     8          
   545  Cl    s     -4.5085 *     0.0000      15.6827 *  0.0000     4          
   546  Cl    s     -8.4292 *     7.8414 *    11.7620 *  0.0000     8          
   547  Cl    s      3.3328 *     3.9207 *    15.6827 *  0.0000     8          
   548  O     s     13.1345 *    -1.9603 *     9.8017 *  0.0000     8          
   549  O     s    -14.3102 *     5.8810 *     5.8810    0.0000     4          
   550  Cl    s    -12.3499 *     7.8414 *     7.8414    0.0000     4          
   551  Cl    s     -0.5878 *    11.7620 *    11.7620    0.0000     4          
   552  O     s      9.2139 *    -1.9603 *    13.7224 *  0.0000     8          
   553  O     s      9.2139 *     9.8017 *     9.8017    0.0000     4          
   554  Cl    s     11.1742 *     3.9207 *    11.7620 *  0.0000     8          
   555  Cl    s    -16.2705 *     0.0000       3.9207 *  0.0000     4          
   556  Cl    s     -4.5085 *     3.9207 *    15.6827 *  0.0000     8          
   557  O     s      1.3725 *     9.8017 *    13.7224 *  0.0000     8          
   558  Cl    s      3.3328 *    11.7620 *    11.7620    0.0000     4          
   559  Cl    s     15.0949 *     0.0000       7.8414 *  0.0000     4          
   560  Cl    s    -12.3499 *     0.0000      11.7620 *  0.0000     4          
   561  O     s     -2.5482 *    13.7224 *     9.8017 *  0.0000     8          
   562  Cl    s    -16.2705 *     3.9207 *     3.9207    0.0000     4          
   563  Cl    s     -4.5085 *    11.7620 *    11.7620    0.0000     4          
   564  Cl    s      7.2535 *     0.0000      15.6827 *  0.0000     4          
   565  O     s     17.0552 *    -1.9603 *    -1.9603    0.0000     4          
   566  O     s    -10.3895 *    13.7224 *    -1.9603 *  0.0000     8          
   567  O     s    -10.3895 *     9.8017 *     9.8017    0.0000     4          
   568  O     s     13.1345 *     5.8810 *     9.8017 *  0.0000     8          
   569  O     s    -14.3102 *    -1.9603 *     9.8017 *  0.0000     8          
   570  Cl    s     15.0949 *     3.9207 *     7.8414 *  0.0000     8          
   571  Cl    s    -12.3499 *     3.9207 *    11.7620 *  0.0000     8          
   572  Cl    s     -0.5878 *     7.8414 *    15.6827 *  0.0000     8          
   573  O     s      9.2139 *     5.8810 *    13.7224 *  0.0000     8          
   574  O     s      5.2932 *     9.8017 *    13.7224 *  0.0000     8          
   575  Cl    s      7.2535 *     3.9207 *    15.6827 *  0.0000     8          
   576  Cl    s     -8.4292 *     0.0000      15.6827 *  0.0000     4          
   577  O     s      1.3725 *    -1.9603 *    17.6430 *  0.0000     8          
   578  Cl    s      3.3328 *     7.8414 *    15.6827 *  0.0000     8          
   579  O     s     -2.5482 *    -1.9603 *    17.6430 *  0.0000     8          
   580  Cl    s     11.1742 *     7.8414 *    11.7620 *  0.0000     8          
   581  Cl    s    -16.2705 *     0.0000       7.8414 *  0.0000     4          
   582  O     s     -6.4688 *     9.8017 *    13.7224 *  0.0000     8          
   583  Cl    s     -4.5085 *     7.8414 *    15.6827 *  0.0000     8          
   584  Cl    s      7.2535 *    11.7620 *    11.7620    0.0000     4          
   585  O     s     17.0552 *    -1.9603 *     5.8810 *  0.0000     8          
   586  O     s    -10.3895 *    13.7224 *     5.8810 *  0.0000     8          
   587  Cl    s     -8.4292 *     3.9207 *    15.6827 *  0.0000     8          
   588  O     s    -14.3102 *     5.8810 *     9.8017 *  0.0000     8          
   589  O     s    -18.2309 *    -1.9603 *    -1.9603    0.0000     4          
   590  Cl    s    -16.2705 *     3.9207 *     7.8414 *  0.0000     8          
   591  O     s      5.2932 *    17.6430 *    -1.9603 *  0.0000     8          
   592  Cl    s     -8.4292 *    11.7620 *    11.7620    0.0000     4          
   593  O     s      1.3725 *     5.8810 *    17.6430 *  0.0000     8          
   594  Cl    s     15.0949 *     7.8414 *     7.8414    0.0000     4          
   595  Cl    s    -12.3499 *     7.8414 *    11.7620 *  0.0000     8          
   596  O     s     -2.5482 *     5.8810 *    17.6430 *  0.0000     8          
   597  O     s     -6.4688 *    -1.9603 *    17.6430 *  0.0000     8          
   598  Cl    s      7.2535 *     7.8414 *    15.6827 *  0.0000     8          
   599  O     s     17.0552 *     5.8810 *     5.8810    0.0000     4          
   600  Cl    s     19.0155 *     0.0000       0.0000    0.0000     1          
   601  O     s     13.1345 *    -1.9603 *    13.7224 *  0.0000     8          
   602  O     s     13.1345 *     9.8017 *     9.8017    0.0000     4          
   603  Cl    s     15.0949 *     0.0000      11.7620 *  0.0000     4          
   604  O     s      9.2139 *     9.8017 *    13.7224 *  0.0000     8          
   605  O     s    -18.2309 *    -1.9603 *     5.8810 *  0.0000     8          
   606  Cl    s     11.1742 *     0.0000      15.6827 *  0.0000     4          
   607  O     s      5.2932 *    17.6430 *     5.8810 *  0.0000     8          
   608  Cl    s     19.0155 *     0.0000       3.9207 *  0.0000     4          
   609  Cl    s     -8.4292 *     7.8414 *    15.6827 *  0.0000     8          
   610  O     s      1.3725 *    13.7224 *    13.7224    0.0000     4          
   611  Cl    s     15.0949 *     3.9207 *    11.7620 *  0.0000     8          
   612  O     s     -2.5482 *    13.7224 *    13.7224    0.0000     4          
   613  Cl    s     -0.5878 *    11.7620 *    15.6827 *  0.0000     8          
   614  Cl    s     -0.5878 *     0.0000      19.6034 *  0.0000     4          
   615  Cl    s     11.1742 *     3.9207 *    15.6827 *  0.0000     8          
   616  Cl    s    -16.2705 *     7.8414 *     7.8414    0.0000     4          
   617  O     s     -6.4688 *     5.8810 *    17.6430 *  0.0000     8          
   618  O     s     17.0552 *     9.8017 *    -1.9603 *  0.0000     8          
   619  O     s    -10.3895 *     9.8017 *    13.7224 *  0.0000     8          
   620  Cl    s     19.0155 *     3.9207 *     3.9207    0.0000     4          
   621  Cl    s      3.3328 *    11.7620 *    15.6827 *  0.0000     8          
   622  Cl    s      3.3328 *     0.0000      19.6034 *  0.0000     4          
   623  O     s     13.1345 *     5.8810 *    13.7224 *  0.0000     8          
   624  O     s    -14.3102 *    -1.9603 *    13.7224 *  0.0000     8          
   625  O     s    -14.3102 *     9.8017 *     9.8017    0.0000     4          
   626  Cl    s    -12.3499 *     0.0000      15.6827 *  0.0000     4          
--------------------------------------------------------------------------------


  Constraints on symmetry reduced coordinates :

--------------------------------------------------------------------------------
  Constraint no.      Unconstrained     Constrained    Coefficient    
                         Variable         Variable
--------------------------------------------------------------------------------
           1                 3 y             3 z         1.00000
           2                 4 y             4 z         1.00000
           3                 6 y             6 z         1.00000
           4                 8 y             8 z         1.00000
           5                13 y            13 z         1.00000
           6                14 y            14 z         1.00000
           7                17 y            17 z         1.00000
           8                22 y            22 z         1.00000
           9                26 y            26 z         1.00000
          10                28 y            28 z         1.00000
          11                33 y            33 z         1.00000
          12                40 y            40 z         1.00000
          13                42 y            42 z         1.00000
          14                45 y            45 z         1.00000
          15                49 y            49 z         1.00000
          16                51 y            51 z         1.00000
          17                53 y            53 z         1.00000
          18                57 y            57 z         1.00000
          19                60 y            60 z         1.00000
          20                63 y            63 z         1.00000
          21                67 y            67 z         1.00000
          22                75 y            75 z         1.00000
          23                80 y            80 z         1.00000
          24                84 y            84 z         1.00000
          25                85 y            85 z         1.00000
          26                96 y            96 z         1.00000
          27                97 y            97 z         1.00000
          28               104 y           104 z         1.00000
          29               109 y           109 z         1.00000
          30               121 y           121 z         1.00000
          31               122 y           122 z         1.00000
          32               127 y           127 z         1.00000
          33               138 y           138 z         1.00000
          34               140 y           140 z         1.00000
          35               142 y           142 z         1.00000
          36               145 y           145 z         1.00000
          37               156 y           156 z         1.00000
          38               157 y           157 z         1.00000
          39               159 y           159 z         1.00000
          40               160 y           160 z         1.00000
          41               164 y           164 z         1.00000
          42               171 y           171 z         1.00000
          43               183 y           183 z         1.00000
          44               185 y           185 z         1.00000
          45               193 y           193 z         1.00000
          46               194 y           194 z         1.00000
          47               208 y           208 z         1.00000
          48               210 y           210 z         1.00000
          49               216 y           216 z         1.00000
          50               222 y           222 z         1.00000
          51               225 y           225 z         1.00000
          52               238 y           238 z         1.00000
          53               242 y           242 z         1.00000
          54               253 y           253 z         1.00000
          55               257 y           257 z         1.00000
          56               258 y           258 z         1.00000
          57               261 y           261 z         1.00000
          58               263 y           263 z         1.00000
          59               276 y           276 z         1.00000
          60               285 y           285 z         1.00000
          61               288 y           288 z         1.00000
          62               289 y           289 z         1.00000
          63               291 y           291 z         1.00000
          64               293 y           293 z         1.00000
          65               316 y           316 z         1.00000
          66               331 y           331 z         1.00000
          67               338 y           338 z         1.00000
          68               346 y           346 z         1.00000
          69               353 y           353 z         1.00000
          70               357 y           357 z         1.00000
          71               361 y           361 z         1.00000
          72               376 y           376 z         1.00000
          73               382 y           382 z         1.00000
          74               391 y           391 z         1.00000
          75               399 y           399 z         1.00000
          76               403 y           403 z         1.00000
          77               407 y           407 z         1.00000
          78               415 y           415 z         1.00000
          79               417 y           417 z         1.00000
          80               422 y           422 z         1.00000
          81               431 y           431 z         1.00000
          82               432 y           432 z         1.00000
          83               437 y           437 z         1.00000
          84               438 y           438 z         1.00000
[...]
    546 y          7.841351      7.837475    -0.003876    Cartesian   -0.05
    546 z         11.762026     11.757019    -0.005008    Cartesian   -0.04
    547 x          3.920675      3.921846     0.001171    Cartesian    0.03
    547 y          3.920675      3.919973    -0.000702    Cartesian   -0.02
    547 z         15.682702     15.679777    -0.002925    Cartesian   -0.02
    548 x         13.722364     13.722428     0.000064    Cartesian    0.00
    548 y         -1.960338     -1.960174     0.000163    Cartesian   -0.01
    548 z          9.801689      9.801011    -0.000678    Cartesian   -0.01
    549 x        -13.722364    -13.719622     0.002743    Cartesian   -0.02
    549 y          5.881013      5.879496    -0.001517    Cartesian   -0.03
    549 z          5.881013      5.879496    -0.001517    Cartesian   -0.03
    550 x        -11.762026    -11.755579     0.006447    Cartesian   -0.05
    550 y          7.841351      7.837569    -0.003782    Cartesian   -0.05
    550 z          7.841351      7.837569    -0.003782    Cartesian   -0.05
    551 x         -0.000000      0.001439     0.001439    Cartesian *******
    551 y         11.762026     11.758387    -0.003640    Cartesian   -0.03
    551 z         11.762026     11.758387    -0.003640    Cartesian   -0.03
    552 x          9.801689      9.802483     0.000794    Cartesian    0.01
    552 y         -1.960338     -1.960143     0.000195    Cartesian   -0.01
    552 z         13.722364     13.722826     0.000462    Cartesian    0.00
    553 x          9.801689      9.802737     0.001048    Cartesian    0.01
    553 y          9.801689      9.801656    -0.000033    Cartesian   -0.00
    553 z          9.801689      9.801656    -0.000033    Cartesian   -0.00
    554 x         11.762026     11.760795    -0.001232    Cartesian   -0.01
    554 y          3.920675      3.919457    -0.001218    Cartesian   -0.03
    554 z         11.762026     11.758000    -0.004026    Cartesian   -0.03
    555 x        -15.682702    -15.678227     0.004475    Cartesian   -0.03
    555 y          0.000000      0.000000     0.000000    Cartesian    0.00
    555 z          3.920675      3.919525    -0.001150    Cartesian   -0.03
    556 x         -3.920675     -3.917407     0.003269    Cartesian   -0.08
    556 y          3.920675      3.919061    -0.001614    Cartesian   -0.04
    556 z         15.682702     15.678848    -0.003854    Cartesian   -0.02
    557 x          1.960338      1.960847     0.000509    Cartesian    0.03
    557 y          9.801689      9.800984    -0.000705    Cartesian   -0.01
    557 z         13.722364     13.721659    -0.000705    Cartesian   -0.01
    558 x          3.920675      3.922136     0.001460    Cartesian    0.04
    558 y         11.762026     11.759217    -0.002810    Cartesian   -0.02
    558 z         11.762026     11.759217    -0.002810    Cartesian   -0.02
    559 x         15.682702     15.678878    -0.003824    Cartesian   -0.02
    559 y          0.000000      0.000000     0.000000    Cartesian    0.00
    559 z          7.841351      7.837728    -0.003623    Cartesian   -0.05
    560 x        -11.762026    -11.755613     0.006413    Cartesian   -0.05
    560 y          0.000000      0.000000     0.000000    Cartesian    0.00
    560 z         11.762026     11.756293    -0.005734    Cartesian   -0.05
    561 x         -1.960338     -1.960280     0.000058    Cartesian   -0.00
    561 y         13.722364     13.721440    -0.000924    Cartesian   -0.01
    561 z          9.801689      9.800900    -0.000789    Cartesian   -0.01
    562 x        -15.682702    -15.678586     0.004116    Cartesian   -0.03
    562 y          3.920675      3.919825    -0.000851    Cartesian   -0.02
    562 z          3.920675      3.919825    -0.000851    Cartesian   -0.02
    563 x         -3.920675     -3.918692     0.001984    Cartesian   -0.05
    563 y         11.762026     11.758710    -0.003317    Cartesian   -0.03
    563 z         11.762026     11.758710    -0.003317    Cartesian   -0.03
    564 x          7.841351      7.841891     0.000540    Cartesian    0.01
    564 y          0.000000      0.000000     0.000000    Cartesian    0.00
    564 z         15.682702     15.680201    -0.002501    Cartesian   -0.02
    565 x         17.643040     17.642762    -0.000278    Cartesian   -0.00
    565 y         -1.960338     -1.960108     0.000229    Cartesian   -0.01
    565 z         -1.960338     -1.960108     0.000229    Cartesian   -0.01
    566 x         -9.801689     -9.799288     0.002401    Cartesian   -0.02
    566 y         13.722364     13.720270    -0.002095    Cartesian   -0.02
    566 z         -1.960338     -1.960434    -0.000096    Cartesian    0.00
    567 x         -9.801689     -9.799032     0.002657    Cartesian   -0.03
    567 y          9.801689      9.799560    -0.002129    Cartesian   -0.02
    567 z          9.801689      9.799560    -0.002129    Cartesian   -0.02
    568 x         13.722364     13.722695     0.000331    Cartesian    0.00
    568 y          5.881013      5.880997    -0.000016    Cartesian   -0.00
    568 z          9.801689      9.801126    -0.000562    Cartesian   -0.01
    569 x        -13.722364    -13.720552     0.001812    Cartesian   -0.01
    569 y         -1.960338     -1.960018     0.000320    Cartesian   -0.02
    569 z          9.801689      9.800538    -0.001151    Cartesian   -0.01
    570 x         15.682702     15.680216    -0.002486    Cartesian   -0.02
    570 y          3.920675      3.920106    -0.000569    Cartesian   -0.01
    570 z          7.841351      7.838884    -0.002467    Cartesian   -0.03
    571 x        -11.762026    -11.757292     0.004734    Cartesian   -0.04
    571 y          3.920675      3.919955    -0.000720    Cartesian   -0.02
    571 z         11.762026     11.758293    -0.003733    Cartesian   -0.03
    572 x         -0.000000      0.001318     0.001318    Cartesian *******
    572 y          7.841351      7.840347    -0.001004    Cartesian   -0.01
    572 z         15.682702     15.680137    -0.002565    Cartesian   -0.02
    573 x          9.801689      9.802425     0.000737    Cartesian    0.01
    573 y          5.881013      5.881356     0.000343    Cartesian    0.01
    573 z         13.722364     13.722712     0.000348    Cartesian    0.00
    574 x          5.881013      5.881940     0.000927    Cartesian    0.02
    574 y          9.801689      9.801933     0.000244    Cartesian    0.00
    574 z         13.722364     13.722661     0.000297    Cartesian    0.00
    575 x          7.841351      7.842319     0.000968    Cartesian    0.01
    575 y          3.920675      3.919848    -0.000827    Cartesian   -0.02
    575 z         15.682702     15.679866    -0.002836    Cartesian   -0.02
    576 x         -7.841351     -7.838651     0.002700    Cartesian   -0.03
    576 y          0.000000      0.000000     0.000000    Cartesian    0.00
    576 z         15.682702     15.679566    -0.003136    Cartesian   -0.02
    577 x          1.960338      1.960631     0.000293    Cartesian    0.01
    577 y         -1.960338     -1.961174    -0.000836    Cartesian    0.04
    577 z         17.643040     17.643278     0.000238    Cartesian    0.00
    578 x          3.920675      3.921674     0.000998    Cartesian    0.03
    578 y          7.841351      7.840442    -0.000909    Cartesian   -0.01
    578 z         15.682702     15.680411    -0.002291    Cartesian   -0.01
    579 x         -1.960338     -1.960224     0.000114    Cartesian   -0.01
    579 y         -1.960338     -1.960497    -0.000159    Cartesian    0.01
    579 z         17.643040     17.643253     0.000213    Cartesian    0.00
    580 x         11.762026     11.761586    -0.000441    Cartesian   -0.00
    580 y          7.841351      7.839976    -0.001375    Cartesian   -0.02
    580 z         11.762026     11.759004    -0.003023    Cartesian   -0.03
    581 x        -15.682702    -15.678696     0.004006    Cartesian   -0.03
    581 y          0.000000      0.000000     0.000000    Cartesian    0.00
    581 z          7.841351      7.840371    -0.000980    Cartesian   -0.01
    582 x         -5.881013     -5.879921     0.001092    Cartesian   -0.02
    582 y          9.801689      9.801106    -0.000583    Cartesian   -0.01
    582 z         13.722364     13.721465    -0.000899    Cartesian   -0.01
    583 x         -3.920675     -3.918452     0.002223    Cartesian   -0.06
    583 y          7.841351      7.840261    -0.001090    Cartesian   -0.01
    583 z         15.682702     15.679666    -0.003036    Cartesian   -0.02
    584 x          7.841351      7.841468     0.000117    Cartesian    0.00
    584 y         11.762026     11.759988    -0.002039    Cartesian   -0.02
    584 z         11.762026     11.759988    -0.002039    Cartesian   -0.02
    585 x         17.643040     17.642651    -0.000388    Cartesian   -0.00
    585 y         -1.960338     -1.960120     0.000218    Cartesian   -0.01
    585 z          5.881013      5.881267     0.000254    Cartesian    0.00
    586 x         -9.801689     -9.800645     0.001044    Cartesian   -0.01
    586 y         13.722364     13.721292    -0.001073    Cartesian   -0.01
    586 z          5.881013      5.880016    -0.000997    Cartesian   -0.02
    587 x         -7.841351     -7.839081     0.002270    Cartesian   -0.03
    587 y          3.920675      3.919510    -0.001165    Cartesian   -0.03
    587 z         15.682702     15.679519    -0.003183    Cartesian   -0.02
    588 x        -13.722364    -13.720978     0.001386    Cartesian   -0.01
    588 y          5.881013      5.880029    -0.000985    Cartesian   -0.02
    588 z          9.801689      9.801101    -0.000588    Cartesian   -0.01
    589 x        -17.643040    -17.641378     0.001661    Cartesian   -0.01
    589 y         -1.960338     -1.960206     0.000132    Cartesian   -0.01
    589 z         -1.960338     -1.960206     0.000132    Cartesian   -0.01
    590 x        -15.682702    -15.678890     0.003812    Cartesian   -0.02
    590 y          3.920675      3.920019    -0.000657    Cartesian   -0.02
    590 z          7.841351      7.839890    -0.001461    Cartesian   -0.02
    591 x          5.881013      5.881688     0.000674    Cartesian    0.01
    591 y         17.643040     17.642698    -0.000342    Cartesian   -0.00
    591 z         -1.960338     -1.960612    -0.000275    Cartesian    0.01
    592 x         -7.841351     -7.838054     0.003297    Cartesian   -0.04
    592 y         11.762026     11.759100    -0.002926    Cartesian   -0.02
    592 z         11.762026     11.759100    -0.002926    Cartesian   -0.02
    593 x          1.960338      1.960605     0.000267    Cartesian    0.01
    593 y          5.881013      5.881100     0.000087    Cartesian    0.00
    593 z         17.643040     17.642511    -0.000529    Cartesian   -0.00
    594 x         15.682702     15.680594    -0.002108    Cartesian   -0.01
    594 y          7.841351      7.839531    -0.001819    Cartesian   -0.02
    594 z          7.841351      7.839531    -0.001819    Cartesian   -0.02
    595 x        -11.762026    -11.758087     0.003940    Cartesian   -0.03
    595 y          7.841351      7.838893    -0.002458    Cartesian   -0.03
    595 z         11.762026     11.759200    -0.002827    Cartesian   -0.02
    596 x         -1.960338     -1.959881     0.000457    Cartesian   -0.02
    596 y          5.881013      5.880807    -0.000207    Cartesian   -0.00
    596 z         17.643040     17.642245    -0.000795    Cartesian   -0.00
    597 x         -5.881013     -5.880459     0.000554    Cartesian   -0.01
    597 y         -1.960338     -1.960133     0.000205    Cartesian   -0.01
    597 z         17.643040     17.641908    -0.001132    Cartesian   -0.01
    598 x          7.841351      7.841185    -0.000166    Cartesian   -0.00
    598 y          7.841351      7.840046    -0.001305    Cartesian   -0.02
    598 z         15.682702     15.679663    -0.003039    Cartesian   -0.02
    599 x         17.643040     17.643111     0.000072    Cartesian    0.00
    599 y          5.881013      5.881081     0.000068    Cartesian    0.00
    599 z          5.881013      5.881081     0.000068    Cartesian    0.00
    600 x         19.603377     19.599507    -0.003871    Cartesian   -0.02
    600 y          0.000000      0.000000     0.000000    Cartesian    0.00
    600 z          0.000000      0.000000     0.000000    Cartesian    0.00
    601 x         13.722364     13.721921    -0.000443    Cartesian   -0.00
    601 y         -1.960338     -1.960084     0.000254    Cartesian   -0.01
    601 z         13.722364     13.721250    -0.001114    Cartesian   -0.01
    602 x         13.722364     13.720875    -0.001489    Cartesian   -0.01
    602 y          9.801689      9.799954    -0.001735    Cartesian   -0.02
    602 z          9.801689      9.799954    -0.001735    Cartesian   -0.02
    603 x         15.682702     15.680103    -0.002599    Cartesian   -0.02
    603 y          0.000000      0.000000     0.000000    Cartesian    0.00
    603 z         11.762026     11.759187    -0.002840    Cartesian   -0.02
    604 x          9.801689      9.800810    -0.000879    Cartesian   -0.01
    604 y          9.801689      9.800228    -0.001461    Cartesian   -0.01
    604 z         13.722364     13.720635    -0.001730    Cartesian   -0.01
    605 x        -17.643040    -17.641699     0.001340    Cartesian   -0.01
    605 y         -1.960338     -1.960272     0.000065    Cartesian   -0.00
    605 z          5.881013      5.880826    -0.000187    Cartesian   -0.00
    606 x         11.762026     11.760987    -0.001040    Cartesian   -0.01
    606 y          0.000000      0.000000     0.000000    Cartesian    0.00
    606 z         15.682702     15.679210    -0.003492    Cartesian   -0.02
    607 x          5.881013      5.881256     0.000243    Cartesian    0.00
    607 y         17.643040     17.641997    -0.001043    Cartesian   -0.01
    607 z          5.881013      5.880383    -0.000630    Cartesian   -0.01
    608 x         19.603377     19.598333    -0.005044    Cartesian   -0.03
    608 y          0.000000      0.000000     0.000000    Cartesian    0.00
    608 z          3.920675      3.919514    -0.001161    Cartesian   -0.03
    609 x         -7.841351     -7.838508     0.002843    Cartesian   -0.04
    609 y          7.841351      7.839213    -0.002138    Cartesian   -0.03
    609 z         15.682702     15.678591    -0.004111    Cartesian   -0.03
    610 x          1.960338      1.960562     0.000224    Cartesian    0.01
    610 y         13.722364     13.721325    -0.001039    Cartesian   -0.01
    610 z         13.722364     13.721325    -0.001039    Cartesian   -0.01
    611 x         15.682702     15.679561    -0.003141    Cartesian   -0.02
    611 y          3.920675      3.919276    -0.001399    Cartesian   -0.04
    611 z         11.762026     11.758280    -0.003746    Cartesian   -0.03
    612 x         -1.960338     -1.960092     0.000246    Cartesian   -0.01
    612 y         13.722364     13.720961    -0.001404    Cartesian   -0.01
    612 z         13.722364     13.720961    -0.001404    Cartesian   -0.01
    613 x         -0.000000      0.000965     0.000965    Cartesian *******
    613 y         11.762026     11.759048    -0.002979    Cartesian   -0.03
    613 z         15.682702     15.678278    -0.004424    Cartesian   -0.03
    614 x         -0.000000      0.001101     0.001101    Cartesian *******
    614 y          0.000000      0.000000     0.000000    Cartesian    0.00
    614 z         19.603377     19.598331    -0.005047    Cartesian   -0.03
    615 x         11.762026     11.760376    -0.001651    Cartesian   -0.01
    615 y          3.920675      3.919394    -0.001282    Cartesian   -0.03
    615 z         15.682702     15.678291    -0.004411    Cartesian   -0.03
    616 x        -15.682702    -15.677544     0.005158    Cartesian   -0.03
    616 y          7.841351      7.839204    -0.002147    Cartesian   -0.03
    616 z          7.841351      7.839204    -0.002147    Cartesian   -0.03
    617 x         -5.881013     -5.879665     0.001349    Cartesian   -0.02
    617 y          5.881013      5.879911    -0.001102    Cartesian   -0.02
    617 z         17.643040     17.640551    -0.002489    Cartesian   -0.01
    618 x         17.643040     17.640993    -0.002047    Cartesian   -0.01
    618 y          9.801689      9.800147    -0.001541    Cartesian   -0.02
    618 z         -1.960338     -1.959651     0.000687    Cartesian   -0.04
    619 x         -9.801689     -9.799500     0.002189    Cartesian   -0.02
    619 y          9.801689      9.799752    -0.001936    Cartesian   -0.02
    619 z         13.722364     13.719901    -0.002463    Cartesian   -0.02
    620 x         19.603377     19.597369    -0.006009    Cartesian   -0.03
    620 y          3.920675      3.919147    -0.001528    Cartesian   -0.04
    620 z          3.920675      3.919147    -0.001528    Cartesian   -0.04
    621 x          3.920675      3.920415    -0.000261    Cartesian   -0.01
    621 y         11.762026     11.758939    -0.003088    Cartesian   -0.03
    621 z         15.682702     15.678044    -0.004658    Cartesian   -0.03
    622 x          3.920675      3.920595    -0.000081    Cartesian   -0.00
    622 y          0.000000      0.000000     0.000000    Cartesian    0.00
    622 z         19.603377     19.597173    -0.006205    Cartesian   -0.03
    623 x         13.722364     13.720778    -0.001586    Cartesian   -0.01
    623 y          5.881013      5.879670    -0.001344    Cartesian   -0.02
    623 z         13.722364     13.720364    -0.002000    Cartesian   -0.01
    624 x        -13.722364    -13.719598     0.002766    Cartesian   -0.02
    624 y         -1.960338     -1.959605     0.000733    Cartesian   -0.04
    624 z         13.722364     13.719857    -0.002507    Cartesian   -0.02
    625 x        -13.722364    -13.719626     0.002738    Cartesian   -0.02
    625 y          9.801689      9.799718    -0.001971    Cartesian   -0.02
    625 z          9.801689      9.799718    -0.001971    Cartesian   -0.02
    626 x        -11.762026    -11.757395     0.004631    Cartesian   -0.04
    626 y          0.000000      0.000000     0.000000    Cartesian    0.00
    626 z         15.682702     15.677646    -0.005056    Cartesian   -0.03
--------------------------------------------------------------------------------


  Time to end of optimisation  =       80.0383 seconds


  Peak dynamic memory used =    1741.29 MB 


  Timing analysis for GULP :

--------------------------------------------------------------------------------
  Task / Subroutine                                          Time (Seconds)
--------------------------------------------------------------------------------
  Calculation of reciprocal space energy and derivatives          0.0003
  Calculation of reciprocal space energy using symmetry           0.0003
  Calculation of real space energy and derivatives                0.0018
  Calculation of real space energy using symmetry                 0.0033
  Calculation for region 1 energy and derivatives (2-b)          41.1568
  Calculation for region 2a energy                               10.1116
  Calculation for region 2b energy                                0.0019
  Calculation and manipulation of Hessian matrix                 25.8187
  Calculation of matrix inversion                                 2.0888
  Symmetry generation of equivalent positions                     0.0016
--------------------------------------------------------------------------------
  Total CPU time                                                 80.0384
--------------------------------------------------------------------------------


  Dump file written as Li3OCl.grs


  Job Finished at 13:06.58 21st October    2020                               

