********************************************************************************
*                       GENERAL UTILITY LATTICE PROGRAM                        *
*                                 Julian Gale                                  *
*                       Curtin Institute for Computation                       *
*                    School of Molecular and Life Sciences                     *
*                    Curtin University, Western Australia                      *
********************************************************************************
* Version = 5.2.0 * Last modified =  10th September 2020                       *
********************************************************************************
*  optimise     - perform optimisation run                                     *
*  conp         - constant pressure calculation                                *
*  property     - calculate properties for final geometry                      *
*  defect       - perform defect calculation after bulk run                    *
*  compare      - compare initial and final structures                         *
********************************************************************************

  Job Started  at 13:06.58 21st October    2020                               

  Number of CPUs =     1


  Total number of configurations input =      1

********************************************************************************
*  Input for Configuration =   1                                               *
********************************************************************************

  Formula = ClOLi3                                                      

  Number of irreducible atoms/shells =       5


  Total number atoms/shells =       7

  Dimensionality = 3               :  Bulk   


  Symmetry :

  Crystal family                   :  Cubic       
  Crystal class  (Groth - 1921)    :  Cubic Hexakisoctahedral              

  Space group (centrosymmetric)    :  P M 3 M         

  Patterson group                  :  P m -3 m 

  Cartesian lattice vectors (Angstroms) :

        3.918873    0.000000    0.000000
        0.000000    3.918873    0.000000
        0.000000    0.000000    3.918873

  Cell parameters (Angstroms/Degrees):

  a =       3.9189    alpha =  90.0000
  b =       3.9189    beta  =  90.0000
  c =       3.9189    gamma =  90.0000

  Initial cell volume =          60.184349 Angs**3

  Temperature of configuration =   0.00     K 

  Pressure of configuration =         0.000 GPa 

  Fractional coordinates of asymmetric unit :

--------------------------------------------------------------------------------
   No.  Atomic       x           y          z         Charge      Occupancy
        Label      (Frac)      (Frac)     (Frac)        (e)         (Frac)  
--------------------------------------------------------------------------------
      1 Cl    c    0.000000    0.000000    0.000000     1.48500    1.000000    
      2 O     c    0.500000    0.500000    0.500000     0.18300    1.000000    
      3 Li    c    0.500000    0.500000    0.000000     1.00000    1.000000    
      4 Cl    s    0.000000    0.000000    0.000000    -2.48500    1.000000    
      5 O     s    0.500000    0.500000    0.500000    -2.18300    1.000000    
--------------------------------------------------------------------------------


  Constraints : 

--------------------------------------------------------------------------------
  Constraint no.      Unconstrained     Constrained    Coefficient    Offset
                         Variable         Variable
--------------------------------------------------------------------------------
           1              Strain 1        Strain 2       1.00000      0.0000
           2              Strain 1        Strain 3       1.00000      0.0000
--------------------------------------------------------------------------------


********************************************************************************
*  General input information                                                   *
********************************************************************************

  Species output for all configurations : 

--------------------------------------------------------------------------------
  Species    Type    Atomic    Atomic    Charge       Radii (Angs)     Library
                     Number     Mass       (e)     Cova   Ionic  VDW   Symbol
--------------------------------------------------------------------------------
    Li       Core        3       6.94   1.000000   0.680  0.000  1.800          
    O        Core        8      16.00   0.183000   0.730  0.000  1.360          
    O        Shell       8       0.00  -2.183000   0.730  0.000  1.360          
    Cl       Core       17      35.45   1.485000   0.990  0.000  1.650          
    Cl       Shell      17       0.00  -2.485000   0.990  0.000  1.650          
--------------------------------------------------------------------------------


  Lattice summation method               =    Ewald          (3-D)
                                         =    Parry          (2-D)
                                         =    Saunders et al (1-D)
  Accuracy factor for lattice sums       =   12.000


  Analytic derivatives to be used

  Time limit = Infinity

  Maximum range for interatomic potentials =    100000.000000 Angstroms

  General interatomic potentials :

--------------------------------------------------------------------------------
Atom  Types   Potential      Parameter       Value         Units   Cutoffs(Ang)
  1     2                                                            Min /  Max 
--------------------------------------------------------------------------------
O    c O    s Spring (c-s)  Spring k 2       593.72000    eV*Ang^-2 0.000  0.800
                            Spring k 4       0.0000000    eV*Ang^-4 
--------------------------------------------------------------------------------
Cl   c Cl   s Spring (c-s)  Spring k 2       29.380000    eV*Ang^-2 0.000  0.800
                            Spring k 4       0.0000000    eV*Ang^-4 
--------------------------------------------------------------------------------
Li   c Li   c Buckingham    Buckingham A     360.53000    eV        0.000 12.000
                            Buckingham rho  0.16100000    Ang       
                            Buckingham C     0.0000000    eV*Ang^6  
--------------------------------------------------------------------------------
Li   c O    s Buckingham    Buckingham A     292.30000    eV        0.000 12.000
                            Buckingham rho  0.34720000    Ang       
                            Buckingham C     0.0000000    eV*Ang^6  
--------------------------------------------------------------------------------
Li   c Cl   s Buckingham    Buckingham A     421.04000    eV        0.000 12.000
                            Buckingham rho  0.33400000    Ang       
                            Buckingham C     0.0000000    eV*Ang^6  
--------------------------------------------------------------------------------
O    s O    s Buckingham    Buckingham A     22764.300    eV        0.000 12.000
                            Buckingham rho  0.14900000    Ang       
                            Buckingham C     13.190000    eV*Ang^6  
--------------------------------------------------------------------------------
O    s Cl   s Buckingham    Buckingham A     8286.9100    eV        0.000 12.000
                            Buckingham rho  0.25900000    Ang       
                            Buckingham C     62.200000    eV*Ang^6  
--------------------------------------------------------------------------------
Cl   s Cl   s Buckingham    Buckingham A     1227.2000    eV        0.000 12.000
                            Buckingham rho  0.32100000    Ang       
                            Buckingham C     14.530000    eV*Ang^6  
--------------------------------------------------------------------------------

********************************************************************************
*  Output for configuration   1                                                *
********************************************************************************


  Components of energy : 

--------------------------------------------------------------------------------
  Interatomic potentials     =           7.26836263 eV    
  Monopole - monopole (real) =         -11.53475722 eV    
  Monopole - monopole (recip)=         -33.94580548 eV    
  Monopole - monopole (total)=         -45.48056271 eV    
--------------------------------------------------------------------------------
  Total lattice energy       =         -38.21220008 eV    
--------------------------------------------------------------------------------
  Total lattice energy       =           -3686.8932 kJ/(mole unit cells)
--------------------------------------------------------------------------------


  Number of variables =        1

  Maximum number of calculations  =          1000
  Maximum Hessian update interval =            10
  Maximum step size               =   1.000000000
  Maximum parameter tolerance     =   0.000010000
  Maximum function  tolerance     =   0.000010000
  Maximum gradient  tolerance     =   0.001000000
  Maximum gradient  component     =   0.010000000

  Symmetry constrained optimisation

  Symmetry used for second derivatives

  Cell parameters to be optimised using strains

  Newton-Raphson optimiser to be used

  BFGS hessian update to be used

  Lower half triangular hessian to be used

  Start of bulk optimisation :

  Cycle:      0 Energy:       -38.212200  Gnorm:      0.095699  CPU:    0.005
  ** Hessian calculated **
  Cycle:      1 Energy:       -38.212222  Gnorm:      0.000105  CPU:    0.006


  **** Optimisation achieved ****


  Final energy =     -38.21222207 eV
  Final Gnorm  =       0.00000016

  Components of energy : 

--------------------------------------------------------------------------------
  Interatomic potentials     =           7.24743141 eV    
  Monopole - monopole (real) =         -11.52945423 eV    
  Monopole - monopole (recip)=         -33.93019924 eV    
  Monopole - monopole (total)=         -45.45965348 eV    
--------------------------------------------------------------------------------
  Total lattice energy       =         -38.21222207 eV    
--------------------------------------------------------------------------------
  Total lattice energy       =           -3686.8953 kJ/(mole unit cells)
--------------------------------------------------------------------------------

  Final asymmetric unit coordinates :

--------------------------------------------------------------------------------
   No.  Atomic        x           y           z         Radius
        Label       (Frac)      (Frac)      (Frac)       (Angs) 
--------------------------------------------------------------------------------
     1  Cl    c     0.000000    0.000000    0.000000    0.000000
     2  O     c     0.500000    0.500000    0.500000    0.000000
     3  Li    c     0.500000    0.500000    0.000000    0.000000
     4  Cl    s     0.000000    0.000000    0.000000    0.000000
     5  O     s     0.500000    0.500000    0.500000    0.000000
--------------------------------------------------------------------------------

  Final Cartesian lattice vectors (Angstroms) :

        3.920675    0.000000    0.000000
        0.000000    3.920675    0.000000
        0.000000    0.000000    3.920675


  Final cell parameters and derivatives :

--------------------------------------------------------------------------------
       a            3.920675 Angstrom     dE/de1(xx)    -0.000000 eV/strain
       b            3.920675 Angstrom     dE/de2(yy)     0.000000 eV/strain
       c            3.920675 Angstrom     dE/de3(zz)     0.000000 eV/strain
       alpha       90.000000 Degrees      dE/de4(yz)     0.000000 eV/strain
       beta        90.000000 Degrees      dE/de5(xz)     0.000000 eV/strain
       gamma       90.000000 Degrees      dE/de6(xy)     0.000000 eV/strain
--------------------------------------------------------------------------------

  Primitive cell volume =            60.267433 Angs**3

  Density of cell =      1.991276 g/cm**3

  Non-primitive cell volume =            60.267433 Angs**3


  Final internal derivatives :

--------------------------------------------------------------------------------
   No.  Atomic          a             b             c           Radius
        Label          (eV)          (eV)          (eV)        (eV/Angs)
--------------------------------------------------------------------------------
      1 Cl    c       0.000000      0.000000      0.000000      0.000000
      2 O     c       0.000000      0.000000      0.000000      0.000000
      3 Li    c       0.000000      0.000000      0.000000      0.000000
      4 Cl    s       0.000000      0.000000      0.000000      0.000000
      5 O     s       0.000000      0.000000      0.000000      0.000000
--------------------------------------------------------------------------------
  Maximum abs         0.000000      0.000000      0.000000      0.000000
--------------------------------------------------------------------------------

  Comparison of initial and final structures : 

--------------------------------------------------------------------------------
  Parameter   Initial value   Final value   Difference    Units      Percent
--------------------------------------------------------------------------------
    Volume        60.184349     60.267433     0.083084    Angs**3      0.14
    a              3.918873      3.920675     0.001802    Angstroms    0.05
    b              3.918873      3.920675     0.001802    Angstroms    0.05
    c              3.918873      3.920675     0.001802    Angstroms    0.05
    alpha         90.000000     90.000000     0.000000    Degrees      0.00
    beta          90.000000     90.000000     0.000000    Degrees      0.00
    gamma         90.000000     90.000000     0.000000    Degrees      0.00
      1 x          0.000000      0.000000     0.000000    Fractional   0.00
      1 y          0.000000      0.000000     0.000000    Fractional   0.00
      1 z          0.000000      0.000000     0.000000    Fractional   0.00
      2 x          0.500000      0.500000     0.000000    Fractional   0.00
      2 y          0.500000      0.500000     0.000000    Fractional   0.00
      2 z          0.500000      0.500000     0.000000    Fractional   0.00
      3 x          0.500000      0.500000     0.000000    Fractional   0.00
      3 y          0.500000      0.500000     0.000000    Fractional   0.00
      3 z          0.000000      0.000000     0.000000    Fractional   0.00
      4 x          0.000000      0.000000     0.000000    Fractional   0.00
      4 y          0.000000      0.000000     0.000000    Fractional   0.00
      4 z          0.000000      0.000000     0.000000    Fractional   0.00
      5 x          0.500000      0.500000     0.000000    Fractional   0.00
      5 y          0.500000      0.500000     0.000000    Fractional   0.00
      5 z          0.500000      0.500000     0.000000    Fractional   0.00
--------------------------------------------------------------------------------


  Born effective charge tensors : 

-------------------------------------------------------------------------------
  Atom             x           y             z
-------------------------------------------------------------------------------
    1 Cl    x      -0.9489     -0.0000     -0.0000
            y      -0.0000     -0.9489     -0.0000
            z      -0.0000     -0.0000     -0.9489
-------------------------------------------------------------------------------
    2 O     x      -2.4688      0.0000      0.0000
            y       0.0000     -2.4688      0.0000
            z       0.0000      0.0000     -2.4688
-------------------------------------------------------------------------------
    3 Li    x       1.3129      0.0000     -0.0000
            y       0.0000      1.3129      0.0000
            z      -0.0000      0.0000      0.7919
-------------------------------------------------------------------------------




  Elastic Constant Matrix: (Units=GPa)

-------------------------------------------------------------------------------
  Indices      1         2         3         4         5         6    
-------------------------------------------------------------------------------
       1     94.3368   44.9178   44.9178    0.0000   -0.0000    0.0000
       2     44.9178   94.3368   44.9178   -0.0000    0.0000   -0.0000
       3     44.9178   44.9178   94.3368    0.0000   -0.0000    0.0000
       4      0.0000   -0.0000    0.0000   44.9178   -0.0000    0.0000
       5     -0.0000    0.0000   -0.0000   -0.0000   44.9178    0.0000
       6      0.0000   -0.0000    0.0000    0.0000    0.0000   44.9178
-------------------------------------------------------------------------------


  Elastic Compliance Matrix: (Units=1/GPa)

-------------------------------------------------------------------------------
  Indices      1         2         3         4         5         6    
-------------------------------------------------------------------------------
       1    0.015300 -0.004935 -0.004935 -0.000000  0.000000 -0.000000
       2   -0.004935  0.015300 -0.004935  0.000000 -0.000000  0.000000
       3   -0.004935 -0.004935  0.015300 -0.000000  0.000000 -0.000000
       4   -0.000000  0.000000 -0.000000  0.022263  0.000000 -0.000000
       5    0.000000 -0.000000  0.000000  0.000000  0.022263 -0.000000
       6   -0.000000  0.000000 -0.000000 -0.000000 -0.000000  0.022263
-------------------------------------------------------------------------------

  Mechanical properties :

-------------------------------------------------------------------------------
  Convention :                    Reuss         Voigt         Hill
-------------------------------------------------------------------------------
  Bulk  Modulus (GPa)     =      61.39080      61.39080      61.39080
  Shear Modulus (GPa)     =      33.84570      36.83448      35.34009
-------------------------------------------------------------------------------
  Velocity S-wave (km/s)  =       4.12274       4.30092       4.21277
  Velocity P-wave (km/s)  =       7.31386       7.44942       7.38195
-------------------------------------------------------------------------------
  Compressibility (1/GPa) =    0.01628909
-------------------------------------------------------------------------------
  Stress axis :                     x             y             z
-------------------------------------------------------------------------------
  Youngs Moduli (GPa)     =      65.35947      65.35947      65.35947
-------------------------------------------------------------------------------
  Poissons Ratio (x)      =                     0.32256       0.32256
  Poissons Ratio (y)      =       0.32256                     0.32256
  Poissons Ratio (z)      =       0.32256       0.32256
-------------------------------------------------------------------------------


  Piezoelectric Strain Matrix: (Units=C/m**2)

-------------------------------------------------------------------------------
  Indices      1         2         3         4         5         6    
-------------------------------------------------------------------------------
       x    -0.00000   0.00000   0.00000  -0.00000  -0.00000   0.00000
       y    -0.00000   0.00000   0.00000  -0.00000  -0.00000  -0.00000
       z     0.00000   0.00000   0.00000   0.00000  -0.00000  -0.00000
-------------------------------------------------------------------------------


  Piezoelectric Stress Matrix: (Units=10**-11 C/N)

-------------------------------------------------------------------------------
  Indices      1         2         3         4         5         6    
-------------------------------------------------------------------------------
       x    -0.00000   0.00000   0.00000  -0.00000  -0.00000   0.00000
       y    -0.00000   0.00000   0.00000  -0.00000  -0.00000  -0.00000
       z    -0.00000  -0.00000   0.00000   0.00000  -0.00000  -0.00000
-------------------------------------------------------------------------------


  Static dielectric constant tensor : 

-------------------------------------------------------------------------------
              x         y         z
-------------------------------------------------------------------------------
       x    12.11703   0.00000  -0.00000
       y     0.00000  12.11703  -0.00000
       z    -0.00000  -0.00000  12.11703
--------------------------------------------------------------------------------

  High frequency dielectric constant tensor : 

-------------------------------------------------------------------------------
              x         y         z
-------------------------------------------------------------------------------
       x     1.74104   0.00000   0.00000
       y     0.00000   1.74104   0.00000
       z     0.00000   0.00000   1.74104
-------------------------------------------------------------------------------

  Static refractive indices : 

-------------------------------------------------------------------------------
    1 =    3.48095      2 =    3.48095      3 =    3.48095
-------------------------------------------------------------------------------

  High frequency refractive indices : 

-------------------------------------------------------------------------------
    1 =    1.31948      2 =    1.31948      3 =    1.31948
-------------------------------------------------------------------------------


  Time to end of optimisation =       0.0110 seconds

********************************************************************************
*  Defect calculation for configuration   1 :                                  *
********************************************************************************

  Total number of defects =      3

  Total charge on defect  =   1.00

  Defect centre is at   0.7838   0.0000   0.0000  Angs

  Region 1 radius =  20.0000      Number of ions =   3886

  Number of symmetry inequivalent region 1 ions  =    625

  Region 2 radius =  24.0000      Number of ions =   2880

  Number of symmetry inequivalent region 2a ions =    420

  Region 2a mode = 4 : screened electrostatics due to region 1 
                       neglect correction to region 1 forces from 2a
                       region 2a displacements based on defects only

  Region 2a ions will only interact with defects in region 1

  Vacancies:

--------------------------------------------------------------------------------
    Specification type     Symbol/Number         x          y          z
--------------------------------------------------------------------------------
    Cartesian                                0.000000   0.000000   0.000000
    Cartesian                                3.918873   0.000000   0.000000
--------------------------------------------------------------------------------

  Interstitials:

--------------------------------------------------------------------------------
    Specification type     Symbol/Number         x          y          z
--------------------------------------------------------------------------------
    Atom/Cartesian          Cl               0.783775   0.000000   0.000000
--------------------------------------------------------------------------------


  Symmetry reduced region 1 (Relative to defect centre) :

--------------------------------------------------------------------------------
   No.   Atomic       x            y             z       Radius  Multiplicity   
         Label      (Angs)       (Angs)        (Angs)    (Angs)     
--------------------------------------------------------------------------------
     1  Cl    c      0.0000       0.0000       0.0000    0.0000     1    Defect
     2  Li    c      1.1766 *    -1.9603 *     0.0000    0.0000     4          
     3  Li    c     -0.7838 *    -1.9603 *    -1.9603    0.0000     4          
     4  O     c      1.1766 *    -1.9603 *    -1.9603    0.0000     4          
     5  Li    c     -2.7441 *    -1.9603 *     0.0000    0.0000     4          
     6  O     c     -2.7441 *    -1.9603 *    -1.9603    0.0000     4          
     7  Cl    c     -0.7838 *     0.0000       3.9207 *  0.0000     4          
     8  Li    c      3.1369 *    -1.9603 *    -1.9603    0.0000     4          
     9  Li    c      1.1766 *    -1.9603 *     3.9207 *  0.0000     8          
    10  Cl    c     -4.7045 *     0.0000       0.0000    0.0000     1          
    11  Cl    c      3.1369 *     0.0000       3.9207 *  0.0000     4          
    12  Li    c     -2.7441 *    -1.9603 *     3.9207 *  0.0000     8          
    13  Li    c     -4.7045 *    -1.9603 *    -1.9603    0.0000     4          
    14  Li    c      5.0972 *    -1.9603 *     0.0000    0.0000     4          
    15  Cl    c     -0.7838 *     3.9207 *     3.9207    0.0000     4          
    16  O     c      5.0972 *    -1.9603 *    -1.9603    0.0000     4          
    17  Li    c      1.1766 *     5.8810 *     0.0000    0.0000     4          
    18  Cl    c     -4.7045 *     0.0000       3.9207 *  0.0000     4          
    19  Li    c     -0.7838 *    -1.9603 *     5.8810 *  0.0000     8          
    20  O     c      1.1766 *    -1.9603 *     5.8810 *  0.0000     8          
    21  Cl    c      3.1369 *     3.9207 *     3.9207    0.0000     4          
    22  Li    c     -2.7441 *     5.8810 *     0.0000    0.0000     4          
    23  Li    c      5.0972 *    -1.9603 *     3.9207 *  0.0000     8          
    24  O     c     -2.7441 *    -1.9603 *     5.8810 *  0.0000     8          
    25  Li    c     -6.6648 *    -1.9603 *     0.0000    0.0000     4          
    26  Li    c      3.1369 *     5.8810 *    -1.9603 *  0.0000     8          
    27  Cl    c      7.0576 *     0.0000       0.0000    0.0000     1          
    28  Li    c      1.1766 *     5.8810 *     3.9207 *  0.0000     8          
    29  O     c     -6.6648 *    -1.9603 *    -1.9603    0.0000     4          
    30  Cl    c     -4.7045 *     3.9207 *     3.9207    0.0000     4          
    31  Li    c     -2.7441 *     5.8810 *     3.9207 *  0.0000     8          
    32  Li    c      7.0576 *    -1.9603 *    -1.9603    0.0000     4          
    33  Li    c     -4.7045 *     5.8810 *    -1.9603 *  0.0000     8          
    34  Li    c      5.0972 *     5.8810 *     0.0000    0.0000     4          
    35  Cl    c     -0.7838 *     0.0000       7.8414 *  0.0000     4          
    36  Li    c     -6.6648 *    -1.9603 *     3.9207 *  0.0000     8          
    37  O     c      5.0972 *    -1.9603 *     5.8810 *  0.0000     8          
    38  Cl    c      7.0576 *     0.0000       3.9207 *  0.0000     4          
    39  Li    c      1.1766 *    -1.9603 *     7.8414 *  0.0000     8          
    40  Li    c     -0.7838 *     5.8810 *     5.8810    0.0000     4          
    41  O     c      1.1766 *     5.8810 *     5.8810    0.0000     4          
    42  Cl    c      3.1369 *     0.0000       7.8414 *  0.0000     4          
    43  Li    c     -2.7441 *    -1.9603 *     7.8414 *  0.0000     8          
    44  Cl    c     -8.6251 *     0.0000       0.0000    0.0000     1          
    45  Li    c      5.0972 *     5.8810 *     3.9207 *  0.0000     8          
    46  O     c     -2.7441 *     5.8810 *     5.8810    0.0000     4          
    47  Cl    c     -0.7838 *     3.9207 *     7.8414 *  0.0000     8          
    48  Li    c     -6.6648 *     5.8810 *     0.0000    0.0000     4          
    49  Li    c      3.1369 *     5.8810 *     5.8810    0.0000     4          
    50  Cl    c      7.0576 *     3.9207 *     3.9207    0.0000     4          
    51  Li    c     -8.6251 *    -1.9603 *    -1.9603    0.0000     4          
    52  O     c     -6.6648 *    -1.9603 *     5.8810 *  0.0000     8          
    53  Cl    c     -4.7045 *     0.0000       7.8414 *  0.0000     4          
    54  Li    c      9.0179 *    -1.9603 *     0.0000    0.0000     4          
    55  Cl    c      3.1369 *     3.9207 *     7.8414 *  0.0000     8          
    56  Li    c      7.0576 *    -1.9603 *     5.8810 *  0.0000     8          
    57  O     c      9.0179 *    -1.9603 *    -1.9603    0.0000     4          
    58  Cl    c     -8.6251 *     0.0000       3.9207 *  0.0000     4          
    59  Li    c     -4.7045 *     5.8810 *     5.8810    0.0000     4          
    60  Li    c      5.0972 *    -1.9603 *     7.8414 *  0.0000     8          
    61  Li    c     -6.6648 *     3.9207 *     5.8810 *  0.0000     8          
    62  O     c      5.0972 *     5.8810 *     5.8810    0.0000     4          
    63  Li    c      1.1766 *     5.8810 *     7.8414 *  0.0000     8          
    64  Li    c      1.1766 *     9.8017 *     0.0000    0.0000     4          
    65  Cl    c     -4.7045 *     3.9207 *     7.8414 *  0.0000     8          
    66  Li    c     -0.7838 *    -1.9603 *     9.8017 *  0.0000     8          
    67  Li    c      9.0179 *    -1.9603 *     3.9207 *  0.0000     8          
    68  O     c      1.1766 *    -1.9603 *     9.8017 *  0.0000     8          
    69  Li    c     -2.7441 *     5.8810 *     7.8414 *  0.0000     8          
    70  Li    c     -2.7441 *     9.8017 *     0.0000    0.0000     4          
    71  Cl    c     -8.6251 *     3.9207 *     3.9207    0.0000     4          
    72  O     c     -2.7441 *    -1.9603 *     9.8017 *  0.0000     8          
    73  Li    c     -6.6648 *    -1.9603 *     7.8414 *  0.0000     8          
    74  Li    c      3.1369 *    -1.9603 *     9.8017 *  0.0000     8          
    75  Cl    c      7.0576 *     0.0000       7.8414 *  0.0000     4          
    76  Li    c     -8.6251 *    -1.9603 *     5.8810 *  0.0000     8          
    77  Li    c      1.1766 *     9.8017 *     3.9207 *  0.0000     8          
    78  O     c     -6.6648 *     5.8810 *     5.8810    0.0000     4          
    79  Li    c    -10.5855 *    -1.9603 *     0.0000    0.0000     4          
    80  Li    c      9.0179 *     5.8810 *     0.0000    0.0000     4          
    81  Li    c     -2.7441 *     3.9207 *     9.8017 *  0.0000     8          
    82  Li    c      7.0576 *     5.8810 *     5.8810    0.0000     4          
    83  O     c    -10.5855 *    -1.9603 *    -1.9603    0.0000     4          
    84  O     c      9.0179 *    -1.9603 *     5.8810 *  0.0000     8          
    85  Cl    c     10.9783 *     0.0000       0.0000    0.0000     1          
    86  Li    c     -4.7045 *    -1.9603 *     9.8017 *  0.0000     8          
    87  Li    c      5.0972 *     5.8810 *     7.8414 *  0.0000     8          
    88  Li    c      5.0972 *     9.8017 *     0.0000    0.0000     4          
    89  Cl    c     -0.7838 *     7.8414 *     7.8414    0.0000     4          
    90  O     c      5.0972 *    -1.9603 *     9.8017 *  0.0000     8          
    91  Cl    c      7.0576 *     7.8414 *     3.9207 *  0.0000     8          
    92  Li    c     10.9783 *    -1.9603 *    -1.9603    0.0000     4          
    93  Li    c    -10.5855 *    -1.9603 *     3.9207 *  0.0000     8          
    94  Li    c     -0.7838 *     5.8810 *     9.8017 *  0.0000     8          
    95  Li    c      9.0179 *     5.8810 *     3.9207 *  0.0000     8          
    96  O     c      1.1766 *     5.8810 *     9.8017 *  0.0000     8          
    97  Cl    c      3.1369 *     7.8414 *     7.8414    0.0000     4          
    98  Cl    c     -8.6251 *     0.0000       7.8414 *  0.0000     4          
    99  Cl    c     10.9783 *     0.0000       3.9207 *  0.0000     4          
   100  Li    c      5.0972 *     9.8017 *     3.9207 *  0.0000     8          
   101  O     c     -2.7441 *     5.8810 *     9.8017 *  0.0000     8          
   102  Cl    c     -0.7838 *     0.0000      11.7620 *  0.0000     4          
   103  Li    c     -6.6648 *     5.8810 *     7.8414 *  0.0000     8          
   104  Li    c     -6.6648 *     9.8017 *     0.0000    0.0000     4          
   105  Li    c      3.1369 *     5.8810 *     9.8017 *  0.0000     8          
   106  Li    c     -8.6251 *     5.8810 *     5.8810    0.0000     4          
   107  Li    c      1.1766 *    11.7620 *    -1.9603 *  0.0000     8          
   108  O     c     -6.6648 *    -1.9603 *     9.8017 *  0.0000     8          
   109  Cl    c     -4.7045 *     7.8414 *     7.8414    0.0000     4          
   110  Li    c    -10.5855 *     5.8810 *     0.0000    0.0000     4          
   111  Li    c      9.0179 *     7.8414 *    -1.9603 *  0.0000     8          
   112  Cl    c      3.1369 *     0.0000      11.7620 *  0.0000     4          
   113  Li    c     -2.7441 *    -1.9603 *    11.7620 *  0.0000     8          
   114  Li    c      7.0576 *    -1.9603 *     9.8017 *  0.0000     8          
   115  O     c    -10.5855 *    -1.9603 *     5.8810 *  0.0000     8          
   116  O     c      9.0179 *     5.8810 *     5.8810    0.0000     4          
   117  Cl    c     -8.6251 *     7.8414 *     3.9207 *  0.0000     8          
   118  Cl    c     10.9783 *     3.9207 *     3.9207    0.0000     4          
   119  Li    c     -4.7045 *     5.8810 *     9.8017 *  0.0000     8          
   120  Cl    c     -0.7838 *     3.9207 *    11.7620 *  0.0000     8          
   121  Li    c     -6.6648 *     9.8017 *     3.9207 *  0.0000     8          
   122  O     c      5.0972 *     5.8810 *     9.8017 *  0.0000     8          
   123  Cl    c    -12.5458 *     0.0000       0.0000    0.0000     1          
   124  Li    c      1.1766 *     9.8017 *     7.8414 *  0.0000     8          
   125  Li    c     10.9783 *    -1.9603 *     5.8810 *  0.0000     8          
   126  Cl    c     -4.7045 *     0.0000      11.7620 *  0.0000     4          
   127  Li    c    -10.5855 *     5.8810 *     3.9207 *  0.0000     8          
   128  Cl    c      3.1369 *     3.9207 *    11.7620 *  0.0000     8          
   129  Li    c    -12.5458 *    -1.9603 *    -1.9603    0.0000     4          
   130  Li    c     -2.7441 *     9.8017 *     7.8414 *  0.0000     8          
   131  Li    c      5.0972 *    -1.9603 *    11.7620 *  0.0000     8          
   132  Li    c     12.9386 *    -1.9603 *     0.0000    0.0000     4          
   133  Cl    c    -12.5458 *     0.0000       3.9207 *  0.0000     4          
   134  Cl    c      7.0576 *     7.8414 *     7.8414    0.0000     4          
   135  Li    c     -8.6251 *     9.8017 *    -1.9603 *  0.0000     8          
   136  Li    c      1.1766 *     5.8810 *    11.7620 *  0.0000     8          
   137  O     c     -6.6648 *     5.8810 *     9.8017 *  0.0000     8          
   138  O     c     12.9386 *    -1.9603 *    -1.9603    0.0000     4          
   139  Cl    c     -4.7045 *     3.9207 *    11.7620 *  0.0000     8          
   140  Li    c    -10.5855 *    -1.9603 *     7.8414 *  0.0000     8          
   141  Li    c      9.0179 *     5.8810 *     7.8414 *  0.0000     8          
   142  Li    c      9.0179 *     9.8017 *     0.0000    0.0000     4          
   143  Li    c     -2.7441 *     5.8810 *    11.7620 *  0.0000     8          
   144  Li    c      7.0576 *     5.8810 *     9.8017 *  0.0000     8          
   145  O     c    -10.5855 *     5.8810 *     5.8810    0.0000     4          
   146  O     c      9.0179 *    -1.9603 *     9.8017 *  0.0000     8          
   147  Cl    c     10.9783 *     0.0000       7.8414 *  0.0000     4          
   148  Li    c      5.0972 *     9.8017 *     7.8414 *  0.0000     8          
   149  Li    c     -6.6648 *    -1.9603 *    11.7620 *  0.0000     8          
   150  Li    c     12.9386 *    -1.9603 *     3.9207 *  0.0000     8          
   151  Cl    c    -12.5458 *     3.9207 *     3.9207    0.0000     4          
   152  Cl    c      7.0576 *     0.0000      11.7620 *  0.0000     4          
   153  Li    c      1.1766 *    13.7224 *     0.0000    0.0000     4          
   154  Li    c     10.9783 *     5.8810 *     5.8810    0.0000     4          
   155  Li    c     -0.7838 *    -1.9603 *    13.7224 *  0.0000     8          
   156  Li    c     -0.7838 *     9.8017 *     9.8017    0.0000     4          
   157  Li    c      9.0179 *     9.8017 *     3.9207 *  0.0000     8          
   158  O     c      1.1766 *    13.7224 *    -1.9603 *  0.0000     8          
   159  O     c      1.1766 *     9.8017 *     9.8017    0.0000     4          
   160  Li    c    -12.5458 *    -1.9603 *     5.8810 *  0.0000     8          
   161  Li    c     -2.7441 *    13.7224 *     0.0000    0.0000     4          
   162  Cl    c     -8.6251 *     7.8414 *     7.8414    0.0000     4          
   163  Cl    c     10.9783 *     3.9207 *     7.8414 *  0.0000     8          
   164  Li    c      5.0972 *     5.8810 *    11.7620 *  0.0000     8          
   165  O     c     -2.7441 *    -1.9603 *    13.7224 *  0.0000     8          
   166  O     c     -2.7441 *     9.8017 *     9.8017    0.0000     4          
   167  Cl    c     -0.7838 *     7.8414 *    11.7620 *  0.0000     8          
   168  Li    c     -6.6648 *     9.8017 *     7.8414 *  0.0000     8          
   169  Li    c      3.1369 *    -1.9603 *    13.7224 *  0.0000     8          
   170  Li    c      3.1369 *     9.8017 *     9.8017    0.0000     4          
   171  Li    c     12.9386 *     5.8810 *     0.0000    0.0000     4          
   172  Cl    c      7.0576 *    11.7620 *     3.9207 *  0.0000     8          
   173  Li    c     -8.6251 *     5.8810 *     9.8017 *  0.0000     8          
   174  Li    c      1.1766 *    13.7224 *     3.9207 *  0.0000     8          
   175  O     c     12.9386 *    -1.9603 *     5.8810 *  0.0000     8          
   176  Li    c    -10.5855 *     5.8810 *     7.8414 *  0.0000     8          
   177  Li    c    -10.5855 *     9.8017 *     0.0000    0.0000     4          
   178  Cl    c      3.1369 *     7.8414 *    11.7620 *  0.0000     8          
   179  Li    c     -2.7441 *    13.7224 *     3.9207 *  0.0000     8          
   180  O     c    -10.5855 *    -1.9603 *     9.8017 *  0.0000     8          
   181  O     c      9.0179 *     5.8810 *     9.8017 *  0.0000     8          
   182  Cl    c     -8.6251 *     0.0000      11.7620 *  0.0000     4          
   183  Li    c    -14.5061 *    -1.9603 *     0.0000    0.0000     4          
   184  Li    c     -4.7045 *    -1.9603 *    13.7224 *  0.0000     8          
   185  Li    c     -4.7045 *     9.8017 *     9.8017    0.0000     4          
   186  Li    c      5.0972 *    13.7224 *     0.0000    0.0000     4          
   187  Li    c     -6.6648 *     5.8810 *    11.7620 *  0.0000     8          
   188  Li    c     12.9386 *     5.8810 *     3.9207 *  0.0000     8          
   189  O     c    -14.5061 *    -1.9603 *    -1.9603    0.0000     4          
   190  O     c      5.0972 *    -1.9603 *    13.7224 *  0.0000     8          
   191  O     c      5.0972 *     9.8017 *     9.8017    0.0000     4          
   192  Cl    c    -12.5458 *     0.0000       7.8414 *  0.0000     4          
   193  Li    c     10.9783 *    -1.9603 *     9.8017 *  0.0000     8          
   194  Cl    c     -4.7045 *     7.8414 *    11.7620 *  0.0000     8          
   195  Cl    c     14.8989 *     0.0000       0.0000    0.0000     1          
   196  Li    c    -10.5855 *     9.8017 *     3.9207 *  0.0000     8          
   197  Li    c     -0.7838 *     5.8810 *    13.7224 *  0.0000     8          
   198  Li    c      9.0179 *    11.7620 *    -1.9603 *  0.0000     8          
   199  O     c      1.1766 *     5.8810 *    13.7224 *  0.0000     8          
   200  Li    c    -12.5458 *     5.8810 *     5.8810    0.0000     4          
   201  Cl    c     -8.6251 *    11.7620 *     3.9207 *  0.0000     8          
   202  Li    c    -14.5061 *    -1.9603 *     3.9207 *  0.0000     8          
   203  Li    c      5.0972 *    13.7224 *     3.9207 *  0.0000     8          
   204  Li    c     14.8989 *    -1.9603 *    -1.9603    0.0000     4          
   205  O     c     -2.7441 *     5.8810 *    13.7224 *  0.0000     8          
   206  Li    c     -6.6648 *    13.7224 *     0.0000    0.0000     4          
   207  Li    c      3.1369 *     5.8810 *    13.7224 *  0.0000     8          
   208  Li    c     12.9386 *    -1.9603 *     7.8414 *  0.0000     8          
   209  Cl    c    -12.5458 *     3.9207 *     7.8414 *  0.0000     8          
   210  Li    c      1.1766 *     9.8017 *    11.7620 *  0.0000     8          
   211  O     c     -6.6648 *    -1.9603 *    13.7224 *  0.0000     8          
   212  O     c     -6.6648 *     9.8017 *     9.8017    0.0000     4          
   213  O     c     12.9386 *     5.8810 *     5.8810    0.0000     4          
   214  Cl    c     14.8989 *     0.0000       3.9207 *  0.0000     4          
   215  Li    c      9.0179 *     9.8017 *     7.8414 *  0.0000     8          
   216  Li    c     -2.7441 *     9.8017 *    11.7620 *  0.0000     8          
   217  Li    c      7.0576 *    -1.9603 *    13.7224 *  0.0000     8          
   218  Li    c      7.0576 *     9.8017 *     9.8017    0.0000     4          
   219  O     c    -10.5855 *     5.8810 *     9.8017 *  0.0000     8          
   220  Cl    c     10.9783 *     7.8414 *     7.8414    0.0000     4          
   221  Li    c    -14.5061 *     5.8810 *     0.0000    0.0000     4          
   222  Li    c     -4.7045 *     5.8810 *    13.7224 *  0.0000     8          
   223  Cl    c     -0.7838 *     0.0000      15.6827 *  0.0000     4          
   224  Li    c     -6.6648 *    13.7224 *     3.9207 *  0.0000     8          
   225  O     c    -14.5061 *    -1.9603 *     5.8810 *  0.0000     8          
   226  O     c      5.0972 *     5.8810 *    13.7224 *  0.0000     8          
   227  Cl    c      7.0576 *     7.8414 *    11.7620 *  0.0000     8          
   228  Li    c      1.1766 *    15.6827 *    -1.9603 *  0.0000     8          
   229  Li    c      1.1766 *    13.7224 *     7.8414 *  0.0000     8          
   230  Li    c     10.9783 *     5.8810 *     9.8017 *  0.0000     8          
   231  Cl    c     14.8989 *     3.9207 *     3.9207    0.0000     4          
   232  Li    c    -10.5855 *    11.7620 *    -1.9603 *  0.0000     8          
   233  Li    c      9.0179 *     5.8810 *    11.7620 *  0.0000     8          
   234  Cl    c      3.1369 *     0.0000      15.6827 *  0.0000     4          
   235  Li    c    -12.5458 *    -1.9603 *     9.8017 *  0.0000     8          
   236  Li    c     -2.7441 *    -1.9603 *    15.6827 *  0.0000     8          
   237  Li    c     -2.7441 *    13.7224 *     7.8414 *  0.0000     8          
   238  Cl    c     10.9783 *     0.0000      11.7620 *  0.0000     4          
   239  Li    c    -14.5061 *     5.8810 *     3.9207 *  0.0000     8          
   240  Li    c      5.0972 *     9.8017 *    11.7620 *  0.0000     8          
   241  Li    c     14.8989 *     5.8810 *    -1.9603 *  0.0000     8          
   242  Cl    c     -0.7838 *     3.9207 *    15.6827 *  0.0000     8          
   243  Li    c     12.9386 *     5.8810 *     7.8414 *  0.0000     8          
   244  Li    c     12.9386 *     9.8017 *     0.0000    0.0000     4          
   245  Li    c     -8.6251 *    13.7224 *    -1.9603 *  0.0000     8          
   246  Li    c     -8.6251 *     9.8017 *     9.8017    0.0000     4          
   247  O     c     -6.6648 *     5.8810 *    13.7224 *  0.0000     8          
   248  O     c     12.9386 *    -1.9603 *     9.8017 *  0.0000     8          
   249  Cl    c     -4.7045 *     0.0000      15.6827 *  0.0000     4          
   250  Li    c    -10.5855 *     9.8017 *     7.8414 *  0.0000     8          
   251  Li    c      9.0179 *    13.7224 *     0.0000    0.0000     4          
   252  Cl    c    -16.4665 *     0.0000       0.0000    0.0000     1          
   253  Cl    c      3.1369 *     3.9207 *    15.6827 *  0.0000     8          
   254  Li    c      7.0576 *     5.8810 *    13.7224 *  0.0000     8          
   255  O     c      9.0179 *    -1.9603 *    13.7224 *  0.0000     8          
   256  O     c      9.0179 *     9.8017 *     9.8017    0.0000     4          
   257  Cl    c     -8.6251 *     7.8414 *    11.7620 *  0.0000     8          
   258  Cl    c     10.9783 *     3.9207 *    11.7620 *  0.0000     8          
   259  Li    c    -14.5061 *    -1.9603 *     7.8414 *  0.0000     8          
   260  Li    c      5.0972 *    15.6827 *    -1.9603 *  0.0000     8          
   261  Li    c      5.0972 *    13.7224 *     7.8414 *  0.0000     8          
   262  Cl    c     -0.7838 *    11.7620 *    11.7620    0.0000     4          
   263  Li    c    -16.4665 *    -1.9603 *    -1.9603    0.0000     4          
   264  Li    c     -6.6648 *     9.8017 *    11.7620 *  0.0000     8          
   265  Li    c     12.9386 *     3.9207 *     9.8017 *  0.0000     8          
   266  O     c    -14.5061 *     5.8810 *     5.8810    0.0000     4          
   267  Cl    c    -12.5458 *     7.8414 *     7.8414    0.0000     4          
   268  Li    c      1.1766 *     5.8810 *    15.6827 *  0.0000     8          
   269  Cl    c     -4.7045 *     3.9207 *    15.6827 *  0.0000     8          
   270  Cl    c     14.8989 *     0.0000       7.8414 *  0.0000     4          
   271  Li    c    -10.5855 *     5.8810 *    11.7620 *  0.0000     8          
   272  Li    c     -0.7838 *     9.8017 *    13.7224 *  0.0000     8          
   273  Li    c      9.0179 *    13.7224 *     3.9207 *  0.0000     8          
   274  O     c      1.1766 *     9.8017 *    13.7224 *  0.0000     8          
   275  Cl    c    -16.4665 *     0.0000       3.9207 *  0.0000     4          
   276  Cl    c      3.1369 *    11.7620 *    11.7620    0.0000     4          
   277  Li    c    -12.5458 *     5.8810 *     9.8017 *  0.0000     8          
   278  Li    c     -2.7441 *     5.8810 *    15.6827 *  0.0000     8          
   279  Li    c     16.8593 *    -1.9603 *     0.0000    0.0000     4          
   280  Li    c     14.8989 *     5.8810 *     5.8810    0.0000     4          
   281  O     c     -2.7441 *     9.8017 *    13.7224 *  0.0000     8          
   282  O     c     16.8593 *    -1.9603 *    -1.9603    0.0000     4          
   283  Li    c     -6.6648 *    -1.9603 *    15.6827 *  0.0000     8          
   284  Li    c     -6.6648 *    13.7224 *     7.8414 *  0.0000     8          
   285  Li    c      3.1369 *     9.8017 *    13.7224 *  0.0000     8          
   286  Cl    c    -12.5458 *     0.0000      11.7620 *  0.0000     4          
   287  Cl    c      7.0576 *     0.0000      15.6827 *  0.0000     4          
   288  Li    c     -8.6251 *    13.7224 *     5.8810 *  0.0000     8          
   289  O     c     12.9386 *     5.8810 *     9.8017 *  0.0000     8          
   290  Cl    c     -4.7045 *    11.7620 *    11.7620    0.0000     4          
   291  Cl    c     14.8989 *     3.9207 *     7.8414 *  0.0000     8          
   292  Li    c    -10.5855 *    13.7224 *     0.0000    0.0000     4          
   293  Cl    c    -16.4665 *     3.9207 *     3.9207    0.0000     4          
   294  Li    c     16.8593 *    -1.9603 *     3.9207 *  0.0000     8          
   295  O     c    -10.5855 *    -1.9603 *    13.7224 *  0.0000     8          
   296  O     c    -10.5855 *     9.8017 *     9.8017    0.0000     4          
   297  O     c      9.0179 *     5.8810 *    13.7224 *  0.0000     8          
   298  Li    c    -14.5061 *     5.8810 *     7.8414 *  0.0000     8          
   299  Li    c    -14.5061 *     9.8017 *     0.0000    0.0000     4          
   300  Li    c     -4.7045 *     9.8017 *    13.7224 *  0.0000     8          
   301  Li    c      5.0972 *    15.6827 *     5.8810 *  0.0000     8          
   302  Cl    c     -0.7838 *     7.8414 *    15.6827 *  0.0000     8          
   303  Li    c    -16.4665 *     5.8810 *    -1.9603 *  0.0000     8          
   304  Li    c     12.9386 *    11.7620 *    -1.9603 *  0.0000     8          
   305  O     c    -14.5061 *    -1.9603 *     9.8017 *  0.0000     8          
   306  O     c      5.0972 *     9.8017 *    13.7224 *  0.0000     8          
   307  Cl    c    -12.5458 *     3.9207 *    11.7620 *  0.0000     8          
   308  Cl    c      7.0576 *     3.9207 *    15.6827 *  0.0000     8          
   309  Li    c      1.1766 *    17.6430 *     0.0000    0.0000     4          
   310  Li    c     10.9783 *    -1.9603 *    13.7224 *  0.0000     8          
   311  Li    c     10.9783 *     9.8017 *     9.8017    0.0000     4          
   312  Li    c    -10.5855 *    13.7224 *     3.9207 *  0.0000     8          
   313  Li    c     -0.7838 *    -1.9603 *    17.6430 *  0.0000     8          
   314  Li    c      9.0179 *     9.8017 *    11.7620 *  0.0000     8          
   315  O     c      1.1766 *    -1.9603 *    17.6430 *  0.0000     8          
   316  Cl    c      3.1369 *     7.8414 *    15.6827 *  0.0000     8          
   317  Li    c     -2.7441 *    17.6430 *     0.0000    0.0000     4          
   318  Li    c     16.8593 *     5.8810 *     0.0000    0.0000     4          
   319  Cl    c     -8.6251 *     0.0000      15.6827 *  0.0000     4          
   320  Cl    c     10.9783 *     7.8414 *    11.7620 *  0.0000     8          
   321  Li    c    -14.5061 *     3.9207 *     9.8017 *  0.0000     8          
   322  Li    c     14.8989 *    -1.9603 *     9.8017 *  0.0000     8          
   323  O     c     -2.7441 *    -1.9603 *    17.6430 *  0.0000     8          
   324  O     c     16.8593 *    -1.9603 *     5.8810 *  0.0000     8          
   325  Li    c     -6.6648 *     5.8810 *    15.6827 *  0.0000     8          
   326  Li    c      3.1369 *    -1.9603 *    17.6430 *  0.0000     8          
   327  Li    c     12.9386 *     7.8414 *     9.8017 *  0.0000     8          
   328  Cl    c      7.0576 *    11.7620 *    11.7620    0.0000     4          
   329  Li    c      1.1766 *    13.7224 *    11.7620 *  0.0000     8          
   330  Li    c      1.1766 *    17.6430 *     3.9207 *  0.0000     8          
   331  O     c     -6.6648 *     9.8017 *    13.7224 *  0.0000     8          
   332  Cl    c     -4.7045 *     7.8414 *    15.6827 *  0.0000     8          
   333  Li    c      9.0179 *    -1.9603 *    15.6827 *  0.0000     8          
   334  Li    c      9.0179 *     7.8414 *    13.7224 *  0.0000     8          
   335  Cl    c    -16.4665 *     0.0000       7.8414 *  0.0000     4          
   336  Li    c     -2.7441 *    13.7224 *    11.7620 *  0.0000     8          
   337  Li    c     -2.7441 *    17.6430 *     3.9207 *  0.0000     8          
   338  Li    c      7.0576 *     9.8017 *    13.7224 *  0.0000     8          
   339  Li    c     16.8593 *     3.9207 *     5.8810 *  0.0000     8          
   340  O     c    -10.5855 *     5.8810 *    13.7224 *  0.0000     8          
   341  Cl    c     -8.6251 *     3.9207 *    15.6827 *  0.0000     8          
   342  Li    c     -4.7045 *    17.6430 *    -1.9603 *  0.0000     8          
   343  Li    c      5.0972 *    17.6430 *     0.0000    0.0000     4          
   344  Li    c    -16.4665 *     5.8810 *     5.8810    0.0000     4          
   345  Li    c     12.9386 *    11.7620 *     5.8810 *  0.0000     8          
   346  O     c    -14.5061 *     5.8810 *     9.8017 *  0.0000     8          
   347  O     c      5.0972 *    -1.9603 *    17.6430 *  0.0000     8          
   348  Li    c    -18.4268 *    -1.9603 *     0.0000    0.0000     4          
   349  Li    c      1.1766 *     9.8017 *    15.6827 *  0.0000     8          
   350  Li    c     10.9783 *     5.8810 *    13.7224 *  0.0000     8          
   351  Cl    c     14.8989 *     7.8414 *     7.8414    0.0000     4          
   352  Li    c    -10.5855 *    11.7620 *     9.8017 *  0.0000     8          
   353  Li    c     -0.7838 *     5.8810 *    17.6430 *  0.0000     8          
   354  O     c    -18.4268 *    -1.9603 *    -1.9603    0.0000     4          
   355  O     c      1.1766 *     5.8810 *    17.6430 *  0.0000     8          
   356  Cl    c    -16.4665 *     3.9207 *     7.8414 *  0.0000     8          
   357  Li    c    -12.5458 *    -1.9603 *    13.7224 *  0.0000     8          
   358  Li    c    -12.5458 *     9.8017 *     9.8017    0.0000     4          
   359  Li    c     -2.7441 *     9.8017 *    15.6827 *  0.0000     8          
   360  Li    c     16.8593 *    -1.9603 *     7.8414 *  0.0000     8          
   361  Cl    c     -8.6251 *    11.7620 *    11.7620    0.0000     4          
   362  Li    c    -14.5061 *    11.7620 *    -1.9603 *  0.0000     8          
   363  Li    c      5.0972 *    13.7224 *    11.7620 *  0.0000     8          
   364  Li    c      5.0972 *    17.6430 *     3.9207 *  0.0000     8          
   365  Li    c     14.8989 *     5.8810 *     9.8017 *  0.0000     8          
   366  O     c     -2.7441 *     5.8810 *    17.6430 *  0.0000     8          
   367  O     c     16.8593 *     5.8810 *     5.8810    0.0000     4          
   368  Cl    c     18.8196 *     0.0000       0.0000    0.0000     1          
   369  Li    c     -6.6648 *    17.6430 *     0.0000    0.0000     4          
   370  Li    c      3.1369 *     5.8810 *    17.6430 *  0.0000     8          
   371  Li    c     12.9386 *    13.7224 *     0.0000    0.0000     4          
   372  Cl    c    -12.5458 *     7.8414 *    11.7620 *  0.0000     8          
   373  Cl    c      7.0576 *     7.8414 *    15.6827 *  0.0000     8          
   374  Li    c    -18.4268 *    -1.9603 *     3.9207 *  0.0000     8          
   375  Li    c     -8.6251 *     9.8017 *    13.7224 *  0.0000     8          
   376  O     c     -6.6648 *    -1.9603 *    17.6430 *  0.0000     8          
   377  O     c     12.9386 *    -1.9603 *    13.7224 *  0.0000     8          
   378  O     c     12.9386 *     9.8017 *     9.8017    0.0000     4          
   379  Cl    c     14.8989 *     0.0000      11.7620 *  0.0000     4          
   380  Li    c    -10.5855 *    -1.9603 *    15.6827 *  0.0000     8          
   381  Li    c    -10.5855 *    13.7224 *     7.8414 *  0.0000     8          
   382  Li    c      9.0179 *     5.8810 *    15.6827 *  0.0000     8          
   383  Li    c     18.8196 *    -1.9603 *    -1.9603    0.0000     4          
   384  Li    c      7.0576 *    -1.9603 *    17.6430 *  0.0000     8          
   385  O     c      9.0179 *     9.8017 *    13.7224 *  0.0000     8          
   386  Cl    c     10.9783 *     0.0000      15.6827 *  0.0000     4          
   387  Li    c    -14.5061 *     7.8414 *     9.8017 *  0.0000     8          
   388  Li    c     -4.7045 *    17.6430 *     5.8810 *  0.0000     8          
   389  Li    c      5.0972 *     9.8017 *    15.6827 *  0.0000     8          
   390  Cl    c     18.8196 *     0.0000       3.9207 *  0.0000     4          
   391  Li    c    -16.4665 *    -1.9603 *     9.8017 *  0.0000     8          
   392  Li    c     -6.6648 *    13.7224 *    11.7620 *  0.0000     8          
   393  Li    c     -6.6648 *    17.6430 *     3.9207 *  0.0000     8          
   394  Li    c     12.9386 *     3.9207 *    13.7224 *  0.0000     8          
   395  O     c      5.0972 *     5.8810 *    17.6430 *  0.0000     8          
   396  Li    c    -18.4268 *     5.8810 *     0.0000    0.0000     4          
   397  Li    c      1.1766 *    17.6430 *     7.8414 *  0.0000     8          
   398  Cl    c     14.8989 *     3.9207 *    11.7620 *  0.0000     8          
   399  Li    c     -0.7838 *    13.7224 *    13.7224    0.0000     4          
   400  O     c    -18.4268 *    -1.9603 *     5.8810 *  0.0000     8          
   401  O     c      1.1766 *    13.7224 *    13.7224    0.0000     4          
   402  Li    c    -12.5458 *     5.8810 *    13.7224 *  0.0000     8          
   403  Li    c     -2.7441 *    17.6430 *     7.8414 *  0.0000     8          
   404  Li    c     16.8593 *     9.8017 *     0.0000    0.0000     4          
   405  Li    c     16.8593 *     7.8414 *     5.8810 *  0.0000     8          
   406  Cl    c     -8.6251 *     7.8414 *    15.6827 *  0.0000     8          
   407  Cl    c     10.9783 *     3.9207 *    15.6827 *  0.0000     8          
   408  Li    c    -14.5061 *    11.7620 *     5.8810 *  0.0000     8          
   409  O     c     -2.7441 *    13.7224 *    13.7224    0.0000     4          
   410  O     c     16.8593 *     9.8017 *    -1.9603 *  0.0000     8          
   411  Cl    c     -0.7838 *    11.7620 *    15.6827 *  0.0000     8          
   412  Cl    c     -0.7838 *     0.0000      19.6034 *  0.0000     4          
   413  Cl    c     18.8196 *     3.9207 *     3.9207    0.0000     4          
   414  Li    c     -6.6648 *     9.8017 *    15.6827 *  0.0000     8          
   415  Li    c      3.1369 *    13.7224 *    13.7224    0.0000     4          
   416  Li    c    -18.4268 *     3.9207 *     5.8810 *  0.0000     8          
   417  Li    c     -8.6251 *    -1.9603 *    17.6430 *  0.0000     8          
   418  Li    c      1.1766 *    -1.9603 *    19.6034 *  0.0000     8          
   419  O     c     -6.6648 *     5.8810 *    17.6430 *  0.0000     8          
   420  O     c     12.9386 *     5.8810 *    13.7224 *  0.0000     8          
   421  Li    c    -10.5855 *     5.8810 *    15.6827 *  0.0000     8          
   422  Li    c      9.0179 *    17.6430 *     0.0000    0.0000     4          
   423  Li    c     18.8196 *    -1.9603 *     5.8810 *  0.0000     8          
   424  Cl    c    -16.4665 *     7.8414 *     7.8414    0.0000     4          
   425  Cl    c      3.1369 *    11.7620 *    15.6827 *  0.0000     8          
   426  Cl    c      3.1369 *     0.0000      19.6034 *  0.0000     4          
   427  Li    c     -2.7441 *    -1.9603 *    19.6034 *  0.0000     8          
   428  Li    c      7.0576 *     5.8810 *    17.6430 *  0.0000     8          
   429  Li    c     16.8593 *     9.8017 *     3.9207 *  0.0000     8          
   430  O     c    -10.5855 *     9.8017 *    13.7224 *  0.0000     8          
   431  O     c      9.0179 *    -1.9603 *    17.6430 *  0.0000     8          
   432  Cl    c     10.9783 *    11.7620 *    11.7620    0.0000     4          
   433  Li    c    -14.5061 *    13.7224 *     0.0000    0.0000     4          
   434  Li    c     -4.7045 *    13.7224 *    13.7224    0.0000     4          
   435  Li    c      5.0972 *    17.6430 *     7.8414 *  0.0000     8          
   436  Cl    s      0.0000       0.0000       0.0000    0.0000     1    Defect
   437  O     s      1.1766 *    -1.9603 *    -1.9603    0.0000     4          
   438  O     s     -2.7441 *    -1.9603 *    -1.9603    0.0000     4          
   439  Cl    s     -0.7838 *     0.0000       3.9207 *  0.0000     4          
   440  Cl    s     -4.7045 *     0.0000       0.0000    0.0000     1          
   441  Cl    s      3.1369 *     0.0000       3.9207 *  0.0000     4          
   442  Cl    s     -0.7838 *     3.9207 *     3.9207    0.0000     4          
   443  O     s      5.0972 *    -1.9603 *    -1.9603    0.0000     4          
   444  Cl    s     -4.7045 *     0.0000       3.9207 *  0.0000     4          
   445  O     s      1.1766 *    -1.9603 *     5.8810 *  0.0000     8          
   446  Cl    s      3.1369 *     3.9207 *     3.9207    0.0000     4          
   447  O     s     -2.7441 *    -1.9603 *     5.8810 *  0.0000     8          
   448  Cl    s      7.0576 *     0.0000       0.0000    0.0000     1          
   449  O     s     -6.6648 *    -1.9603 *    -1.9603    0.0000     4          
   450  Cl    s     -4.7045 *     3.9207 *     3.9207    0.0000     4          
   451  Cl    s     -0.7838 *     0.0000       7.8414 *  0.0000     4          
   452  O     s      5.0972 *    -1.9603 *     5.8810 *  0.0000     8          
   453  Cl    s      7.0576 *     0.0000       3.9207 *  0.0000     4          
   454  O     s      1.1766 *     5.8810 *     5.8810    0.0000     4          
   455  Cl    s      3.1369 *     0.0000       7.8414 *  0.0000     4          
   456  Cl    s     -8.6251 *     0.0000       0.0000    0.0000     1          
   457  O     s     -2.7441 *     5.8810 *     5.8810    0.0000     4          
   458  Cl    s     -0.7838 *     3.9207 *     7.8414 *  0.0000     8          
   459  Cl    s      7.0576 *     3.9207 *     3.9207    0.0000     4          
   460  O     s     -6.6648 *    -1.9603 *     5.8810 *  0.0000     8          
   461  Cl    s     -4.7045 *     0.0000       7.8414 *  0.0000     4          
   462  Cl    s      3.1369 *     3.9207 *     7.8414 *  0.0000     8          
   463  O     s      9.0179 *    -1.9603 *    -1.9603    0.0000     4          
   464  Cl    s     -8.6251 *     0.0000       3.9207 *  0.0000     4          
   465  O     s      5.0972 *     5.8810 *     5.8810    0.0000     4          
   466  Cl    s     -4.7045 *     3.9207 *     7.8414 *  0.0000     8          
   467  O     s      1.1766 *    -1.9603 *     9.8017 *  0.0000     8          
   468  Cl    s     -8.6251 *     3.9207 *     3.9207    0.0000     4          
   469  O     s     -2.7441 *    -1.9603 *     9.8017 *  0.0000     8          
   470  Cl    s      7.0576 *     0.0000       7.8414 *  0.0000     4          
   471  O     s     -6.6648 *     5.8810 *     5.8810    0.0000     4          
   472  O     s    -10.5855 *    -1.9603 *    -1.9603    0.0000     4          
   473  O     s      9.0179 *    -1.9603 *     5.8810 *  0.0000     8          
   474  Cl    s     10.9783 *     0.0000       0.0000    0.0000     1          
   475  Cl    s     -0.7838 *     7.8414 *     7.8414    0.0000     4          
   476  O     s      5.0972 *    -1.9603 *     9.8017 *  0.0000     8          
   477  Cl    s      7.0576 *     7.8414 *     3.9207 *  0.0000     8          
   478  O     s      1.1766 *     5.8810 *     9.8017 *  0.0000     8          
   479  Cl    s      3.1369 *     7.8414 *     7.8414    0.0000     4          
   480  Cl    s     -8.6251 *     0.0000       7.8414 *  0.0000     4          
   481  Cl    s     10.9783 *     0.0000       3.9207 *  0.0000     4          
   482  O     s     -2.7441 *     5.8810 *     9.8017 *  0.0000     8          
   483  Cl    s     -0.7838 *     0.0000      11.7620 *  0.0000     4          
   484  O     s     -6.6648 *    -1.9603 *     9.8017 *  0.0000     8          
   485  Cl    s     -4.7045 *     7.8414 *     7.8414    0.0000     4          
   486  Cl    s      3.1369 *     0.0000      11.7620 *  0.0000     4          
   487  O     s    -10.5855 *    -1.9603 *     5.8810 *  0.0000     8          
   488  O     s      9.0179 *     5.8810 *     5.8810    0.0000     4          
   489  Cl    s     -8.6251 *     7.8414 *     3.9207 *  0.0000     8          
   490  Cl    s     10.9783 *     3.9207 *     3.9207    0.0000     4          
   491  Cl    s     -0.7838 *     3.9207 *    11.7620 *  0.0000     8          
   492  O     s      5.0972 *     5.8810 *     9.8017 *  0.0000     8          
   493  Cl    s    -12.5458 *     0.0000       0.0000    0.0000     1          
   494  Cl    s     -4.7045 *     0.0000      11.7620 *  0.0000     4          
   495  Cl    s      3.1369 *     3.9207 *    11.7620 *  0.0000     8          
   496  Cl    s    -12.5458 *     0.0000       3.9207 *  0.0000     4          
   497  Cl    s      7.0576 *     7.8414 *     7.8414    0.0000     4          
   498  O     s     -6.6648 *     5.8810 *     9.8017 *  0.0000     8          
   499  O     s     12.9386 *    -1.9603 *    -1.9603    0.0000     4          
   500  Cl    s     -4.7045 *     3.9207 *    11.7620 *  0.0000     8          
   501  O     s    -10.5855 *     5.8810 *     5.8810    0.0000     4          
   502  O     s      9.0179 *    -1.9603 *     9.8017 *  0.0000     8          
   503  Cl    s     10.9783 *     0.0000       7.8414 *  0.0000     4          
   504  Cl    s    -12.5458 *     3.9207 *     3.9207    0.0000     4          
   505  Cl    s      7.0576 *     0.0000      11.7620 *  0.0000     4          
   506  O     s      1.1766 *    13.7224 *    -1.9603 *  0.0000     8          
   507  O     s      1.1766 *     9.8017 *     9.8017    0.0000     4          
   508  Cl    s     -8.6251 *     7.8414 *     7.8414    0.0000     4          
   509  Cl    s     10.9783 *     3.9207 *     7.8414 *  0.0000     8          
   510  O     s     -2.7441 *    -1.9603 *    13.7224 *  0.0000     8          
   511  O     s     -2.7441 *     9.8017 *     9.8017    0.0000     4          
   512  Cl    s     -0.7838 *     7.8414 *    11.7620 *  0.0000     8          
   513  Cl    s      7.0576 *    11.7620 *     3.9207 *  0.0000     8          
   514  O     s     12.9386 *    -1.9603 *     5.8810 *  0.0000     8          
   515  Cl    s      3.1369 *     7.8414 *    11.7620 *  0.0000     8          
   516  O     s    -10.5855 *    -1.9603 *     9.8017 *  0.0000     8          
   517  O     s      9.0179 *     5.8810 *     9.8017 *  0.0000     8          
   518  Cl    s     -8.6251 *     0.0000      11.7620 *  0.0000     4          
   519  O     s    -14.5061 *    -1.9603 *    -1.9603    0.0000     4          
   520  O     s      5.0972 *    -1.9603 *    13.7224 *  0.0000     8          
   521  O     s      5.0972 *     9.8017 *     9.8017    0.0000     4          
   522  Cl    s    -12.5458 *     0.0000       7.8414 *  0.0000     4          
   523  Cl    s     -4.7045 *     7.8414 *    11.7620 *  0.0000     8          
   524  Cl    s     14.8989 *     0.0000       0.0000    0.0000     1          
   525  O     s      1.1766 *     5.8810 *    13.7224 *  0.0000     8          
   526  Cl    s     -8.6251 *    11.7620 *     3.9207 *  0.0000     8          
   527  O     s     -2.7441 *     5.8810 *    13.7224 *  0.0000     8          
   528  Cl    s    -12.5458 *     3.9207 *     7.8414 *  0.0000     8          
   529  O     s     -6.6648 *    -1.9603 *    13.7224 *  0.0000     8          
   530  O     s     -6.6648 *     9.8017 *     9.8017    0.0000     4          
   531  O     s     12.9386 *     5.8810 *     5.8810    0.0000     4          
   532  Cl    s     14.8989 *     0.0000       3.9207 *  0.0000     4          
   533  O     s    -10.5855 *     5.8810 *     9.8017 *  0.0000     8          
   534  Cl    s     10.9783 *     7.8414 *     7.8414    0.0000     4          
   535  Cl    s     -0.7838 *     0.0000      15.6827 *  0.0000     4          
   536  O     s    -14.5061 *    -1.9603 *     5.8810 *  0.0000     8          
   537  O     s      5.0972 *     5.8810 *    13.7224 *  0.0000     8          
   538  Cl    s      7.0576 *     7.8414 *    11.7620 *  0.0000     8          
   539  Cl    s     14.8989 *     3.9207 *     3.9207    0.0000     4          
   540  Cl    s      3.1369 *     0.0000      15.6827 *  0.0000     4          
   541  Cl    s     10.9783 *     0.0000      11.7620 *  0.0000     4          
   542  Cl    s     -0.7838 *     3.9207 *    15.6827 *  0.0000     8          
   543  O     s     -6.6648 *     5.8810 *    13.7224 *  0.0000     8          
   544  O     s     12.9386 *    -1.9603 *     9.8017 *  0.0000     8          
   545  Cl    s     -4.7045 *     0.0000      15.6827 *  0.0000     4          
   546  Cl    s    -16.4665 *     0.0000       0.0000    0.0000     1          
   547  Cl    s      3.1369 *     3.9207 *    15.6827 *  0.0000     8          
   548  O     s      9.0179 *    -1.9603 *    13.7224 *  0.0000     8          
   549  O     s      9.0179 *     9.8017 *     9.8017    0.0000     4          
   550  Cl    s     -8.6251 *     7.8414 *    11.7620 *  0.0000     8          
   551  Cl    s     10.9783 *     3.9207 *    11.7620 *  0.0000     8          
   552  Cl    s     -0.7838 *    11.7620 *    11.7620    0.0000     4          
   553  O     s    -14.5061 *     5.8810 *     5.8810    0.0000     4          
   554  Cl    s    -12.5458 *     7.8414 *     7.8414    0.0000     4          
   555  Cl    s     -4.7045 *     3.9207 *    15.6827 *  0.0000     8          
   556  Cl    s     14.8989 *     0.0000       7.8414 *  0.0000     4          
   557  O     s      1.1766 *     9.8017 *    13.7224 *  0.0000     8          
   558  Cl    s    -16.4665 *     0.0000       3.9207 *  0.0000     4          
   559  Cl    s      3.1369 *    11.7620 *    11.7620    0.0000     4          
   560  O     s     -2.7441 *     9.8017 *    13.7224 *  0.0000     8          
   561  O     s     16.8593 *    -1.9603 *    -1.9603    0.0000     4          
   562  Cl    s    -12.5458 *     0.0000      11.7620 *  0.0000     4          
   563  Cl    s      7.0576 *     0.0000      15.6827 *  0.0000     4          
   564  O     s     12.9386 *     5.8810 *     9.8017 *  0.0000     8          
   565  Cl    s     -4.7045 *    11.7620 *    11.7620    0.0000     4          
   566  Cl    s     14.8989 *     3.9207 *     7.8414 *  0.0000     8          
   567  Cl    s    -16.4665 *     3.9207 *     3.9207    0.0000     4          
   568  O     s    -10.5855 *    -1.9603 *    13.7224 *  0.0000     8          
   569  O     s    -10.5855 *     9.8017 *     9.8017    0.0000     4          
   570  O     s      9.0179 *     5.8810 *    13.7224 *  0.0000     8          
   571  Cl    s     -0.7838 *     7.8414 *    15.6827 *  0.0000     8          
   572  O     s    -14.5061 *    -1.9603 *     9.8017 *  0.0000     8          
   573  O     s      5.0972 *     9.8017 *    13.7224 *  0.0000     8          
   574  Cl    s    -12.5458 *     3.9207 *    11.7620 *  0.0000     8          
   575  Cl    s      7.0576 *     3.9207 *    15.6827 *  0.0000     8          
   576  O     s      1.1766 *    -1.9603 *    17.6430 *  0.0000     8          
   577  Cl    s      3.1369 *     7.8414 *    15.6827 *  0.0000     8          
   578  Cl    s     -8.6251 *     0.0000      15.6827 *  0.0000     4          
   579  Cl    s     10.9783 *     7.8414 *    11.7620 *  0.0000     8          
   580  O     s     -2.7441 *    -1.9603 *    17.6430 *  0.0000     8          
   581  O     s     16.8593 *    -1.9603 *     5.8810 *  0.0000     8          
   582  Cl    s      7.0576 *    11.7620 *    11.7620    0.0000     4          
   583  O     s     -6.6648 *     9.8017 *    13.7224 *  0.0000     8          
   584  Cl    s     -4.7045 *     7.8414 *    15.6827 *  0.0000     8          
   585  Cl    s    -16.4665 *     0.0000       7.8414 *  0.0000     4          
   586  O     s    -10.5855 *     5.8810 *    13.7224 *  0.0000     8          
   587  Cl    s     -8.6251 *     3.9207 *    15.6827 *  0.0000     8          
   588  O     s    -14.5061 *     5.8810 *     9.8017 *  0.0000     8          
   589  O     s      5.0972 *    -1.9603 *    17.6430 *  0.0000     8          
   590  Cl    s     14.8989 *     7.8414 *     7.8414    0.0000     4          
   591  O     s    -18.4268 *    -1.9603 *    -1.9603    0.0000     4          
   592  O     s      1.1766 *     5.8810 *    17.6430 *  0.0000     8          
   593  Cl    s    -16.4665 *     3.9207 *     7.8414 *  0.0000     8          
   594  Cl    s     -8.6251 *    11.7620 *    11.7620    0.0000     4          
   595  O     s     -2.7441 *     5.8810 *    17.6430 *  0.0000     8          
   596  O     s     16.8593 *     5.8810 *     5.8810    0.0000     4          
   597  Cl    s     18.8196 *     0.0000       0.0000    0.0000     1          
   598  Cl    s    -12.5458 *     7.8414 *    11.7620 *  0.0000     8          
   599  Cl    s      7.0576 *     7.8414 *    15.6827 *  0.0000     8          
   600  O     s     -6.6648 *    -1.9603 *    17.6430 *  0.0000     8          
   601  O     s     12.9386 *    -1.9603 *    13.7224 *  0.0000     8          
   602  O     s     12.9386 *     9.8017 *     9.8017    0.0000     4          
   603  Cl    s     14.8989 *     0.0000      11.7620 *  0.0000     4          
   604  O     s      9.0179 *     9.8017 *    13.7224 *  0.0000     8          
   605  Cl    s     10.9783 *     0.0000      15.6827 *  0.0000     4          
   606  Cl    s     18.8196 *     0.0000       3.9207 *  0.0000     4          
   607  O     s      5.0972 *     5.8810 *    17.6430 *  0.0000     8          
   608  Cl    s     14.8989 *     3.9207 *    11.7620 *  0.0000     8          
   609  O     s    -18.4268 *    -1.9603 *     5.8810 *  0.0000     8          
   610  O     s      1.1766 *    13.7224 *    13.7224    0.0000     4          
   611  Cl    s     -8.6251 *     7.8414 *    15.6827 *  0.0000     8          
   612  Cl    s     10.9783 *     3.9207 *    15.6827 *  0.0000     8          
   613  O     s     -2.7441 *    13.7224 *    13.7224    0.0000     4          
   614  O     s     16.8593 *     9.8017 *    -1.9603 *  0.0000     8          
   615  Cl    s     -0.7838 *    11.7620 *    15.6827 *  0.0000     8          
   616  Cl    s     -0.7838 *     0.0000      19.6034 *  0.0000     4          
   617  Cl    s     18.8196 *     3.9207 *     3.9207    0.0000     4          
   618  O     s     -6.6648 *     5.8810 *    17.6430 *  0.0000     8          
   619  O     s     12.9386 *     5.8810 *    13.7224 *  0.0000     8          
   620  Cl    s    -16.4665 *     7.8414 *     7.8414    0.0000     4          
   621  Cl    s      3.1369 *    11.7620 *    15.6827 *  0.0000     8          
   622  Cl    s      3.1369 *     0.0000      19.6034 *  0.0000     4          
   623  O     s    -10.5855 *     9.8017 *    13.7224 *  0.0000     8          
   624  O     s      9.0179 *    -1.9603 *    17.6430 *  0.0000     8          
   625  Cl    s     10.9783 *    11.7620 *    11.7620    0.0000     4          
--------------------------------------------------------------------------------


  Constraints on symmetry reduced coordinates :

--------------------------------------------------------------------------------
  Constraint no.      Unconstrained     Constrained    Coefficient    
                         Variable         Variable
--------------------------------------------------------------------------------
           1                 3 y             3 z         1.00000
           2                 4 y             4 z         1.00000
           3                 6 y             6 z         1.00000
           4                 8 y             8 z         1.00000
           5                13 y            13 z         1.00000
           6                15 y            15 z         1.00000
           7                16 y            16 z         1.00000
           8                21 y            21 z         1.00000
           9                29 y            29 z         1.00000
          10                30 y            30 z         1.00000
          11                32 y            32 z         1.00000
          12                40 y            40 z         1.00000
          13                41 y            41 z         1.00000
          14                46 y            46 z         1.00000
          15                49 y            49 z         1.00000
          16                50 y            50 z         1.00000
          17                51 y            51 z         1.00000
          18                57 y            57 z         1.00000
          19                59 y            59 z         1.00000
          20                62 y            62 z         1.00000
          21                71 y            71 z         1.00000
          22                78 y            78 z         1.00000
          23                82 y            82 z         1.00000
          24                83 y            83 z         1.00000
          25                89 y            89 z         1.00000
          26                92 y            92 z         1.00000
          27                97 y            97 z         1.00000
          28               106 y           106 z         1.00000
          29               109 y           109 z         1.00000
          30               116 y           116 z         1.00000
          31               118 y           118 z         1.00000
          32               129 y           129 z         1.00000
          33               134 y           134 z         1.00000
          34               138 y           138 z         1.00000
          35               145 y           145 z         1.00000
          36               151 y           151 z         1.00000
          37               154 y           154 z         1.00000
          38               156 y           156 z         1.00000
          39               159 y           159 z         1.00000
          40               162 y           162 z         1.00000
          41               166 y           166 z         1.00000
          42               170 y           170 z         1.00000
          43               185 y           185 z         1.00000
          44               189 y           189 z         1.00000
          45               191 y           191 z         1.00000
          46               200 y           200 z         1.00000
          47               204 y           204 z         1.00000
          48               212 y           212 z         1.00000
          49               213 y           213 z         1.00000
          50               218 y           218 z         1.00000
          51               220 y           220 z         1.00000
          52               231 y           231 z         1.00000
          53               246 y           246 z         1.00000
          54               256 y           256 z         1.00000
          55               262 y           262 z         1.00000
          56               263 y           263 z         1.00000
          57               266 y           266 z         1.00000
          58               267 y           267 z         1.00000
          59               276 y           276 z         1.00000
          60               280 y           280 z         1.00000
          61               282 y           282 z         1.00000
          62               290 y           290 z         1.00000
          63               293 y           293 z         1.00000
          64               296 y           296 z         1.00000
          65               311 y           311 z         1.00000
          66               328 y           328 z         1.00000
          67               344 y           344 z         1.00000
          68               351 y           351 z         1.00000
          69               354 y           354 z         1.00000
          70               358 y           358 z         1.00000
          71               361 y           361 z         1.00000
          72               367 y           367 z         1.00000
          73               378 y           378 z         1.00000
          74               383 y           383 z         1.00000
          75               399 y           399 z         1.00000
          76               401 y           401 z         1.00000
          77               409 y           409 z         1.00000
          78               413 y           413 z         1.00000
          79               415 y           415 z         1.00000
          80               424 y           424 z         1.00000
          81               432 y           432 z         1.00000
          82               434 y           434 z         1.00000
          83               437 y           437 z         1.00000
          84               438 y           438 z         1.00000
          85               442 y           442 z         1.00000
[...]
    545 y          0.000000      0.000000     0.000000    Cartesian    0.00
    545 z         15.682702     15.679221    -0.003481    Cartesian   -0.02
    546 x        -15.682702    -15.677162     0.005540    Cartesian   -0.04
    546 y          0.000000      0.000000     0.000000    Cartesian    0.00
    546 z          0.000000      0.000000     0.000000    Cartesian    0.00
    547 x          3.920675      3.922028     0.001353    Cartesian    0.03
    547 y          3.920675      3.920441    -0.000235    Cartesian   -0.01
    547 z         15.682702     15.680340    -0.002362    Cartesian   -0.02
    548 x          9.801689      9.803014     0.001326    Cartesian    0.01
    548 y         -1.960338     -1.960335     0.000003    Cartesian   -0.00
    548 z         13.722364     13.722981     0.000617    Cartesian    0.00
    549 x          9.801689      9.802886     0.001197    Cartesian    0.01
    549 y          9.801689      9.801466    -0.000222    Cartesian   -0.00
    549 z          9.801689      9.801466    -0.000222    Cartesian   -0.00
    550 x         -7.841351     -7.835938     0.005413    Cartesian   -0.07
    550 y          7.841351      7.837074    -0.004277    Cartesian   -0.05
    550 z         11.762026     11.756649    -0.005377    Cartesian   -0.05
    551 x         11.762026     11.761633    -0.000394    Cartesian   -0.00
    551 y          3.920675      3.919643    -0.001033    Cartesian   -0.03
    551 z         11.762026     11.758601    -0.003425    Cartesian   -0.03
    552 x          0.000000      0.001194     0.001194    Cartesian *******
    552 y         11.762026     11.758709    -0.003318    Cartesian   -0.03
    552 z         11.762026     11.758709    -0.003318    Cartesian   -0.03
    553 x        -13.722364    -13.718436     0.003928    Cartesian   -0.03
    553 y          5.881013      5.879224    -0.001790    Cartesian   -0.03
    553 z          5.881013      5.879224    -0.001790    Cartesian   -0.03
    554 x        -11.762026    -11.755870     0.006156    Cartesian   -0.05
    554 y          7.841351      7.838225    -0.003126    Cartesian   -0.04
    554 z          7.841351      7.838225    -0.003126    Cartesian   -0.04
    555 x         -3.920675     -3.917475     0.003200    Cartesian   -0.08
    555 y          3.920675      3.918960    -0.001716    Cartesian   -0.04
    555 z         15.682702     15.678776    -0.003926    Cartesian   -0.03
    556 x         15.682702     15.680126    -0.002576    Cartesian   -0.02
    556 y          0.000000      0.000000     0.000000    Cartesian    0.00
    556 z          7.841351      7.838407    -0.002944    Cartesian   -0.04
    557 x          1.960338      1.960864     0.000526    Cartesian    0.03
    557 y          9.801689      9.801338    -0.000351    Cartesian   -0.00
    557 z         13.722364     13.721964    -0.000400    Cartesian   -0.00
    558 x        -15.682702    -15.677072     0.005630    Cartesian   -0.04
    558 y          0.000000      0.000000     0.000000    Cartesian    0.00
    558 z          3.920675      3.918952    -0.001724    Cartesian   -0.04
    559 x          3.920675      3.922186     0.001511    Cartesian    0.04
    559 y         11.762026     11.759687    -0.002339    Cartesian   -0.02
    559 z         11.762026     11.759687    -0.002339    Cartesian   -0.02
    560 x         -1.960338     -1.960391    -0.000054    Cartesian    0.00
    560 y          9.801689      9.800962    -0.000727    Cartesian   -0.01
    560 z         13.722364     13.721547    -0.000817    Cartesian   -0.01
    561 x         17.643040     17.644126     0.001086    Cartesian    0.01
    561 y         -1.960338     -1.960324     0.000014    Cartesian   -0.00
    561 z         -1.960338     -1.960324     0.000014    Cartesian   -0.00
    562 x        -11.762026    -11.757076     0.004950    Cartesian   -0.04
    562 y          0.000000      0.000000     0.000000    Cartesian    0.00
    562 z         11.762026     11.758294    -0.003732    Cartesian   -0.03
    563 x          7.841351      7.841069    -0.000282    Cartesian   -0.00
    563 y          0.000000      0.000000     0.000000    Cartesian    0.00
    563 z         15.682702     15.679440    -0.003262    Cartesian   -0.02
    564 x         13.722364     13.723313     0.000949    Cartesian    0.01
    564 y          5.881013      5.880967    -0.000047    Cartesian   -0.00
    564 z          9.801689      9.801343    -0.000346    Cartesian   -0.00
    565 x         -3.920675     -3.918944     0.001731    Cartesian   -0.04
    565 y         11.762026     11.758711    -0.003315    Cartesian   -0.03
    565 z         11.762026     11.758711    -0.003315    Cartesian   -0.03
    566 x         15.682702     15.680660    -0.002042    Cartesian   -0.01
    566 y          3.920675      3.919964    -0.000712    Cartesian   -0.02
    566 z          7.841351      7.838797    -0.002554    Cartesian   -0.03
    567 x        -15.682702    -15.677472     0.005230    Cartesian   -0.03
    567 y          3.920675      3.919656    -0.001019    Cartesian   -0.03
    567 z          3.920675      3.919656    -0.001019    Cartesian   -0.03
    568 x         -9.801689     -9.800270     0.001419    Cartesian   -0.01
    568 y         -1.960338     -1.959721     0.000617    Cartesian   -0.03
    568 z         13.722364     13.720971    -0.001393    Cartesian   -0.01
    569 x         -9.801689     -9.799118     0.002571    Cartesian   -0.03
    569 y          9.801689      9.799511    -0.002178    Cartesian   -0.02
    569 z          9.801689      9.799511    -0.002178    Cartesian   -0.02
    570 x          9.801689      9.802888     0.001200    Cartesian    0.01
    570 y          5.881013      5.881546     0.000533    Cartesian    0.01
    570 z         13.722364     13.723079     0.000714    Cartesian    0.01
    571 x          0.000000      0.001153     0.001153    Cartesian *******
    571 y          7.841351      7.840429    -0.000922    Cartesian   -0.01
    571 z         15.682702     15.680261    -0.002441    Cartesian   -0.02
    572 x        -13.722364    -13.720361     0.002003    Cartesian   -0.01
    572 y         -1.960338     -1.959817     0.000520    Cartesian   -0.03
    572 z          9.801689      9.800863    -0.000825    Cartesian   -0.01
    573 x          5.881013      5.882155     0.001141    Cartesian    0.02
    573 y          9.801689      9.802137     0.000448    Cartesian    0.00
    573 z         13.722364     13.722945     0.000580    Cartesian    0.00
    574 x        -11.762026    -11.757603     0.004424    Cartesian   -0.04
    574 y          3.920675      3.918792    -0.001884    Cartesian   -0.05
    574 z         11.762026     11.758796    -0.003230    Cartesian   -0.03
    575 x          7.841351      7.842072     0.000721    Cartesian    0.01
    575 y          3.920675      3.920628    -0.000048    Cartesian   -0.00
    575 z         15.682702     15.680144    -0.002558    Cartesian   -0.02
    576 x          1.960338      1.960741     0.000403    Cartesian    0.02
    576 y         -1.960338     -1.961219    -0.000881    Cartesian    0.04
    576 z         17.643040     17.643369     0.000329    Cartesian    0.00
    577 x          3.920675      3.921336     0.000661    Cartesian    0.02
    577 y          7.841351      7.840729    -0.000622    Cartesian   -0.01
    577 z         15.682702     15.680659    -0.002043    Cartesian   -0.01
    578 x         -7.841351     -7.839080     0.002271    Cartesian   -0.03
    578 y          0.000000      0.000000     0.000000    Cartesian    0.00
    578 z         15.682702     15.679364    -0.003338    Cartesian   -0.02
    579 x         11.762026     11.762176     0.000150    Cartesian    0.00
    579 y          7.841351      7.839858    -0.001493    Cartesian   -0.02
    579 z         11.762026     11.759538    -0.002489    Cartesian   -0.02
    580 x         -1.960338     -1.960170     0.000168    Cartesian   -0.01
    580 y         -1.960338     -1.960494    -0.000156    Cartesian    0.01
    580 z         17.643040     17.643260     0.000220    Cartesian    0.00
    581 x         17.643040     17.644157     0.001118    Cartesian    0.01
    581 y         -1.960338     -1.960337     0.000001    Cartesian   -0.00
    581 z          5.881013      5.881811     0.000797    Cartesian    0.01
    582 x          7.841351      7.841739     0.000388    Cartesian    0.00
    582 y         11.762026     11.760498    -0.001529    Cartesian   -0.01
    582 z         11.762026     11.760498    -0.001529    Cartesian   -0.01
    583 x         -5.881013     -5.879994     0.001019    Cartesian   -0.02
    583 y          9.801689      9.801013    -0.000675    Cartesian   -0.01
    583 z         13.722364     13.721422    -0.000942    Cartesian   -0.01
    584 x         -3.920675     -3.918625     0.002051    Cartesian   -0.05
    584 y          7.841351      7.840176    -0.001175    Cartesian   -0.01
    584 z         15.682702     15.679644    -0.003058    Cartesian   -0.02
    585 x        -15.682702    -15.678118     0.004584    Cartesian   -0.03
    585 y          0.000000      0.000000     0.000000    Cartesian    0.00
    585 z          7.841351      7.840080    -0.001271    Cartesian   -0.02
    586 x         -9.801689     -9.800802     0.000887    Cartesian   -0.01
    586 y          5.881013      5.879839    -0.001175    Cartesian   -0.02
    586 z         13.722364     13.721097    -0.001267    Cartesian   -0.01
    587 x         -7.841351     -7.839295     0.002056    Cartesian   -0.03
    587 y          3.920675      3.919316    -0.001360    Cartesian   -0.03
    587 z         15.682702     15.679153    -0.003549    Cartesian   -0.02
    588 x        -13.722364    -13.720445     0.001919    Cartesian   -0.01
    588 y          5.881013      5.879937    -0.001077    Cartesian   -0.02
    588 z          9.801689      9.800956    -0.000733    Cartesian   -0.01
    589 x          5.881013      5.881633     0.000619    Cartesian    0.01
    589 y         -1.960338     -1.960692    -0.000354    Cartesian    0.02
    589 z         17.643040     17.642705    -0.000335    Cartesian   -0.00
    590 x         15.682702     15.681046    -0.001656    Cartesian   -0.01
    590 y          7.841351      7.839428    -0.001923    Cartesian   -0.02
    590 z          7.841351      7.839428    -0.001923    Cartesian   -0.02
    591 x        -17.643040    -17.640981     0.002059    Cartesian   -0.01
    591 y         -1.960338     -1.960139     0.000199    Cartesian   -0.01
    591 z         -1.960338     -1.960139     0.000199    Cartesian   -0.01
    592 x          1.960338      1.960594     0.000256    Cartesian    0.01
    592 y          5.881013      5.881255     0.000241    Cartesian    0.00
    592 z         17.643040     17.642632    -0.000407    Cartesian   -0.00
    593 x        -15.682702    -15.678101     0.004601    Cartesian   -0.03
    593 y          3.920675      3.919762    -0.000914    Cartesian   -0.02
    593 z          7.841351      7.839618    -0.001733    Cartesian   -0.02
    594 x         -7.841351     -7.838126     0.003225    Cartesian   -0.04
    594 y         11.762026     11.758977    -0.003049    Cartesian   -0.03
    594 z         11.762026     11.758977    -0.003049    Cartesian   -0.03
    595 x         -1.960338     -1.959910     0.000428    Cartesian   -0.02
    595 y          5.881013      5.880790    -0.000223    Cartesian   -0.00
    595 z         17.643040     17.642261    -0.000778    Cartesian   -0.00
    596 x         17.643040     17.643508     0.000468    Cartesian    0.00
    596 y          5.881013      5.881017     0.000004    Cartesian    0.00
    596 z          5.881013      5.881017     0.000004    Cartesian    0.00
    597 x         19.603377     19.600178    -0.003199    Cartesian   -0.02
    597 y          0.000000      0.000000     0.000000    Cartesian    0.00
    597 z          0.000000      0.000000     0.000000    Cartesian    0.00
    598 x        -11.762026    -11.758211     0.003816    Cartesian   -0.03
    598 y          7.841351      7.839035    -0.002316    Cartesian   -0.03
    598 z         11.762026     11.758314    -0.003713    Cartesian   -0.03
    599 x          7.841351      7.841681     0.000330    Cartesian    0.00
    599 y          7.841351      7.840430    -0.000921    Cartesian   -0.01
    599 z         15.682702     15.680149    -0.002552    Cartesian   -0.02
    600 x         -5.881013     -5.880469     0.000544    Cartesian   -0.01
    600 y         -1.960338     -1.960092     0.000246    Cartesian   -0.01
    600 z         17.643040     17.641862    -0.001177    Cartesian   -0.01
    601 x         13.722364     13.722302    -0.000062    Cartesian   -0.00
    601 y         -1.960338     -1.960200     0.000138    Cartesian   -0.01
    601 z         13.722364     13.721299    -0.001065    Cartesian   -0.01
    602 x         13.722364     13.721661    -0.000703    Cartesian   -0.01
    602 y          9.801689      9.799987    -0.001702    Cartesian   -0.02
    602 z          9.801689      9.799987    -0.001702    Cartesian   -0.02
    603 x         15.682702     15.680830    -0.001872    Cartesian   -0.01
    603 y          0.000000      0.000000     0.000000    Cartesian    0.00
    603 z         11.762026     11.759225    -0.002802    Cartesian   -0.02
    604 x          9.801689      9.801208    -0.000481    Cartesian   -0.00
    604 y          9.801689      9.800630    -0.001058    Cartesian   -0.01
    604 z         13.722364     13.721062    -0.001302    Cartesian   -0.01
    605 x         11.762026     11.761927    -0.000099    Cartesian   -0.00
    605 y          0.000000      0.000000     0.000000    Cartesian    0.00
    605 z         15.682702     15.678851    -0.003851    Cartesian   -0.02
    606 x         19.603377     19.599514    -0.003864    Cartesian   -0.02
    606 y          0.000000      0.000000     0.000000    Cartesian    0.00
    606 z          3.920675      3.919736    -0.000939    Cartesian   -0.02
    607 x          5.881013      5.881394     0.000380    Cartesian    0.01
    607 y          5.881013      5.881252     0.000239    Cartesian    0.00
    607 z         17.643040     17.643013    -0.000027    Cartesian   -0.00
    608 x         15.682702     15.680459    -0.002243    Cartesian   -0.01
    608 y          3.920675      3.919469    -0.001206    Cartesian   -0.03
    608 z         11.762026     11.758663    -0.003363    Cartesian   -0.03
    609 x        -17.643040    -17.640695     0.002345    Cartesian   -0.01
    609 y         -1.960338     -1.960199     0.000139    Cartesian   -0.01
    609 z          5.881013      5.880161    -0.000852    Cartesian   -0.01
    610 x          1.960338      1.960499     0.000161    Cartesian    0.01
    610 y         13.722364     13.721433    -0.000931    Cartesian   -0.01
    610 z         13.722364     13.721433    -0.000931    Cartesian   -0.01
    611 x         -7.841351     -7.838564     0.002787    Cartesian   -0.04
    611 y          7.841351      7.839043    -0.002308    Cartesian   -0.03
    611 z         15.682702     15.678432    -0.004270    Cartesian   -0.03
    612 x         11.762026     11.760736    -0.001291    Cartesian   -0.01
    612 y          3.920675      3.919607    -0.001069    Cartesian   -0.03
    612 z         15.682702     15.678755    -0.003947    Cartesian   -0.03
    613 x         -1.960338     -1.960185     0.000152    Cartesian   -0.01
    613 y         13.722364     13.721007    -0.001357    Cartesian   -0.01
    613 z         13.722364     13.721007    -0.001357    Cartesian   -0.01
    614 x         17.643040     17.642080    -0.000959    Cartesian   -0.01
    614 y          9.801689      9.800661    -0.001027    Cartesian   -0.01
    614 z         -1.960338     -1.960259     0.000078    Cartesian   -0.00
    615 x          0.000000      0.000847     0.000847    Cartesian *******
    615 y         11.762026     11.759133    -0.002894    Cartesian   -0.02
    615 z         15.682702     15.678391    -0.004311    Cartesian   -0.03
    616 x          0.000000      0.001086     0.001086    Cartesian *******
    616 y          0.000000      0.000000     0.000000    Cartesian    0.00
    616 z         19.603377     19.598351    -0.005026    Cartesian   -0.03
    617 x         19.603377     19.598729    -0.004649    Cartesian   -0.02
    617 y          3.920675      3.919690    -0.000986    Cartesian   -0.03
    617 z          3.920675      3.919690    -0.000986    Cartesian   -0.03
    618 x         -5.881013     -5.879705     0.001308    Cartesian   -0.02
    618 y          5.881013      5.879841    -0.001172    Cartesian   -0.02
    618 z         17.643040     17.640485    -0.002555    Cartesian   -0.01
    619 x         13.722364     13.721062    -0.001302    Cartesian   -0.01
    619 y          5.881013      5.879757    -0.001256    Cartesian   -0.02
    619 z         13.722364     13.720537    -0.001827    Cartesian   -0.01
    620 x        -15.682702    -15.676312     0.006390    Cartesian   -0.04
    620 y          7.841351      7.838726    -0.002625    Cartesian   -0.03
    620 z          7.841351      7.838726    -0.002625    Cartesian   -0.03
    621 x          3.920675      3.920341    -0.000335    Cartesian   -0.01
    621 y         11.762026     11.759127    -0.002900    Cartesian   -0.02
    621 z         15.682702     15.678320    -0.004382    Cartesian   -0.03
    622 x          3.920675      3.920644    -0.000032    Cartesian   -0.00
    622 y          0.000000      0.000000     0.000000    Cartesian    0.00
    622 z         19.603377     19.597287    -0.006091    Cartesian   -0.03
    623 x         -9.801689     -9.799429     0.002260    Cartesian   -0.02
    623 y          9.801689      9.799591    -0.002098    Cartesian   -0.02
    623 z         13.722364     13.719805    -0.002559    Cartesian   -0.02
    624 x          9.801689      9.800992    -0.000696    Cartesian   -0.01
    624 y         -1.960338     -1.959707     0.000631    Cartesian   -0.03
    624 z         17.643040     17.640930    -0.002110    Cartesian   -0.01
    625 x         11.762026     11.759377    -0.002650    Cartesian   -0.02
    625 y         11.762026     11.757729    -0.004298    Cartesian   -0.04
    625 z         11.762026     11.757729    -0.004298    Cartesian   -0.04
--------------------------------------------------------------------------------


  Time to end of optimisation  =       88.1703 seconds


  Peak dynamic memory used =    1740.55 MB 


  Timing analysis for GULP :

--------------------------------------------------------------------------------
  Task / Subroutine                                          Time (Seconds)
--------------------------------------------------------------------------------
  Calculation of reciprocal space energy and derivatives          0.0003
  Calculation of reciprocal space energy using symmetry           0.0003
  Calculation of real space energy and derivatives                0.0023
  Calculation of real space energy using symmetry                 0.0031
  Calculation for region 1 energy and derivatives (2-b)          46.9809
  Calculation for region 2a energy                               11.7387
  Calculation for region 2b energy                                0.0023
  Calculation and manipulation of Hessian matrix                 26.4036
  Calculation of matrix inversion                                 2.1351
  Symmetry generation of equivalent positions                     0.0018
--------------------------------------------------------------------------------
  Total CPU time                                                 88.1704
--------------------------------------------------------------------------------


  Dump file written as Li3OCl.grs


  Job Finished at 13:08.26 21st October    2020                               

