********************************************************************************
*                       GENERAL UTILITY LATTICE PROGRAM                        *
*                                 Julian Gale                                  *
*                       Curtin Institute for Computation                       *
*                    School of Molecular and Life Sciences                     *
*                    Curtin University, Western Australia                      *
********************************************************************************
* Version = 5.2.0 * Last modified =  10th September 2020                       *
********************************************************************************
*  optimise     - perform optimisation run                                     *
*  conp         - constant pressure calculation                                *
*  property     - calculate properties for final geometry                      *
*  defect       - perform defect calculation after bulk run                    *
*  compare      - compare initial and final structures                         *
********************************************************************************

  Job Started  at 13:08.26 21st October    2020                               

  Number of CPUs =     1


  Total number of configurations input =      1

********************************************************************************
*  Input for Configuration =   1                                               *
********************************************************************************

  Formula = ClOLi3                                                      

  Number of irreducible atoms/shells =       5


  Total number atoms/shells =       7

  Dimensionality = 3               :  Bulk   


  Symmetry :

  Crystal family                   :  Cubic       
  Crystal class  (Groth - 1921)    :  Cubic Hexakisoctahedral              

  Space group (centrosymmetric)    :  P M 3 M         

  Patterson group                  :  P m -3 m 

  Cartesian lattice vectors (Angstroms) :

        3.918873    0.000000    0.000000
        0.000000    3.918873    0.000000
        0.000000    0.000000    3.918873

  Cell parameters (Angstroms/Degrees):

  a =       3.9189    alpha =  90.0000
  b =       3.9189    beta  =  90.0000
  c =       3.9189    gamma =  90.0000

  Initial cell volume =          60.184349 Angs**3

  Temperature of configuration =   0.00     K 

  Pressure of configuration =         0.000 GPa 

  Fractional coordinates of asymmetric unit :

--------------------------------------------------------------------------------
   No.  Atomic       x           y          z         Charge      Occupancy
        Label      (Frac)      (Frac)     (Frac)        (e)         (Frac)  
--------------------------------------------------------------------------------
      1 Cl    c    0.000000    0.000000    0.000000     1.48500    1.000000    
      2 O     c    0.500000    0.500000    0.500000     0.18300    1.000000    
      3 Li    c    0.500000    0.500000    0.000000     1.00000    1.000000    
      4 Cl    s    0.000000    0.000000    0.000000    -2.48500    1.000000    
      5 O     s    0.500000    0.500000    0.500000    -2.18300    1.000000    
--------------------------------------------------------------------------------


  Constraints : 

--------------------------------------------------------------------------------
  Constraint no.      Unconstrained     Constrained    Coefficient    Offset
                         Variable         Variable
--------------------------------------------------------------------------------
           1              Strain 1        Strain 2       1.00000      0.0000
           2              Strain 1        Strain 3       1.00000      0.0000
--------------------------------------------------------------------------------


********************************************************************************
*  General input information                                                   *
********************************************************************************

  Species output for all configurations : 

--------------------------------------------------------------------------------
  Species    Type    Atomic    Atomic    Charge       Radii (Angs)     Library
                     Number     Mass       (e)     Cova   Ionic  VDW   Symbol
--------------------------------------------------------------------------------
    Li       Core        3       6.94   1.000000   0.680  0.000  1.800          
    O        Core        8      16.00   0.183000   0.730  0.000  1.360          
    O        Shell       8       0.00  -2.183000   0.730  0.000  1.360          
    Cl       Core       17      35.45   1.485000   0.990  0.000  1.650          
    Cl       Shell      17       0.00  -2.485000   0.990  0.000  1.650          
--------------------------------------------------------------------------------


  Lattice summation method               =    Ewald          (3-D)
                                         =    Parry          (2-D)
                                         =    Saunders et al (1-D)
  Accuracy factor for lattice sums       =   12.000


  Analytic derivatives to be used

  Time limit = Infinity

  Maximum range for interatomic potentials =    100000.000000 Angstroms

  General interatomic potentials :

--------------------------------------------------------------------------------
Atom  Types   Potential      Parameter       Value         Units   Cutoffs(Ang)
  1     2                                                            Min /  Max 
--------------------------------------------------------------------------------
O    c O    s Spring (c-s)  Spring k 2       593.72000    eV*Ang^-2 0.000  0.800
                            Spring k 4       0.0000000    eV*Ang^-4 
--------------------------------------------------------------------------------
Cl   c Cl   s Spring (c-s)  Spring k 2       29.380000    eV*Ang^-2 0.000  0.800
                            Spring k 4       0.0000000    eV*Ang^-4 
--------------------------------------------------------------------------------
Li   c Li   c Buckingham    Buckingham A     360.53000    eV        0.000 12.000
                            Buckingham rho  0.16100000    Ang       
                            Buckingham C     0.0000000    eV*Ang^6  
--------------------------------------------------------------------------------
Li   c O    s Buckingham    Buckingham A     292.30000    eV        0.000 12.000
                            Buckingham rho  0.34720000    Ang       
                            Buckingham C     0.0000000    eV*Ang^6  
--------------------------------------------------------------------------------
Li   c Cl   s Buckingham    Buckingham A     421.04000    eV        0.000 12.000
                            Buckingham rho  0.33400000    Ang       
                            Buckingham C     0.0000000    eV*Ang^6  
--------------------------------------------------------------------------------
O    s O    s Buckingham    Buckingham A     22764.300    eV        0.000 12.000
                            Buckingham rho  0.14900000    Ang       
                            Buckingham C     13.190000    eV*Ang^6  
--------------------------------------------------------------------------------
O    s Cl   s Buckingham    Buckingham A     8286.9100    eV        0.000 12.000
                            Buckingham rho  0.25900000    Ang       
                            Buckingham C     62.200000    eV*Ang^6  
--------------------------------------------------------------------------------
Cl   s Cl   s Buckingham    Buckingham A     1227.2000    eV        0.000 12.000
                            Buckingham rho  0.32100000    Ang       
                            Buckingham C     14.530000    eV*Ang^6  
--------------------------------------------------------------------------------

********************************************************************************
*  Output for configuration   1                                                *
********************************************************************************


  Components of energy : 

--------------------------------------------------------------------------------
  Interatomic potentials     =           7.26836263 eV    
  Monopole - monopole (real) =         -11.53475722 eV    
  Monopole - monopole (recip)=         -33.94580548 eV    
  Monopole - monopole (total)=         -45.48056271 eV    
--------------------------------------------------------------------------------
  Total lattice energy       =         -38.21220008 eV    
--------------------------------------------------------------------------------
  Total lattice energy       =           -3686.8932 kJ/(mole unit cells)
--------------------------------------------------------------------------------


  Number of variables =        1

  Maximum number of calculations  =          1000
  Maximum Hessian update interval =            10
  Maximum step size               =   1.000000000
  Maximum parameter tolerance     =   0.000010000
  Maximum function  tolerance     =   0.000010000
  Maximum gradient  tolerance     =   0.001000000
  Maximum gradient  component     =   0.010000000

  Symmetry constrained optimisation

  Symmetry used for second derivatives

  Cell parameters to be optimised using strains

  Newton-Raphson optimiser to be used

  BFGS hessian update to be used

  Lower half triangular hessian to be used

  Start of bulk optimisation :

  Cycle:      0 Energy:       -38.212200  Gnorm:      0.095699  CPU:    0.006
  ** Hessian calculated **
  Cycle:      1 Energy:       -38.212222  Gnorm:      0.000105  CPU:    0.007


  **** Optimisation achieved ****


  Final energy =     -38.21222207 eV
  Final Gnorm  =       0.00000016

  Components of energy : 

--------------------------------------------------------------------------------
  Interatomic potentials     =           7.24743141 eV    
  Monopole - monopole (real) =         -11.52945423 eV    
  Monopole - monopole (recip)=         -33.93019924 eV    
  Monopole - monopole (total)=         -45.45965348 eV    
--------------------------------------------------------------------------------
  Total lattice energy       =         -38.21222207 eV    
--------------------------------------------------------------------------------
  Total lattice energy       =           -3686.8953 kJ/(mole unit cells)
--------------------------------------------------------------------------------

  Final asymmetric unit coordinates :

--------------------------------------------------------------------------------
   No.  Atomic        x           y           z         Radius
        Label       (Frac)      (Frac)      (Frac)       (Angs) 
--------------------------------------------------------------------------------
     1  Cl    c     0.000000    0.000000    0.000000    0.000000
     2  O     c     0.500000    0.500000    0.500000    0.000000
     3  Li    c     0.500000    0.500000    0.000000    0.000000
     4  Cl    s     0.000000    0.000000    0.000000    0.000000
     5  O     s     0.500000    0.500000    0.500000    0.000000
--------------------------------------------------------------------------------

  Final Cartesian lattice vectors (Angstroms) :

        3.920675    0.000000    0.000000
        0.000000    3.920675    0.000000
        0.000000    0.000000    3.920675


  Final cell parameters and derivatives :

--------------------------------------------------------------------------------
       a            3.920675 Angstrom     dE/de1(xx)    -0.000000 eV/strain
       b            3.920675 Angstrom     dE/de2(yy)     0.000000 eV/strain
       c            3.920675 Angstrom     dE/de3(zz)     0.000000 eV/strain
       alpha       90.000000 Degrees      dE/de4(yz)     0.000000 eV/strain
       beta        90.000000 Degrees      dE/de5(xz)     0.000000 eV/strain
       gamma       90.000000 Degrees      dE/de6(xy)     0.000000 eV/strain
--------------------------------------------------------------------------------

  Primitive cell volume =            60.267433 Angs**3

  Density of cell =      1.991276 g/cm**3

  Non-primitive cell volume =            60.267433 Angs**3


  Final internal derivatives :

--------------------------------------------------------------------------------
   No.  Atomic          a             b             c           Radius
        Label          (eV)          (eV)          (eV)        (eV/Angs)
--------------------------------------------------------------------------------
      1 Cl    c       0.000000      0.000000      0.000000      0.000000
      2 O     c       0.000000      0.000000      0.000000      0.000000
      3 Li    c       0.000000      0.000000      0.000000      0.000000
      4 Cl    s       0.000000      0.000000      0.000000      0.000000
      5 O     s       0.000000      0.000000      0.000000      0.000000
--------------------------------------------------------------------------------
  Maximum abs         0.000000      0.000000      0.000000      0.000000
--------------------------------------------------------------------------------

  Comparison of initial and final structures : 

--------------------------------------------------------------------------------
  Parameter   Initial value   Final value   Difference    Units      Percent
--------------------------------------------------------------------------------
    Volume        60.184349     60.267433     0.083084    Angs**3      0.14
    a              3.918873      3.920675     0.001802    Angstroms    0.05
    b              3.918873      3.920675     0.001802    Angstroms    0.05
    c              3.918873      3.920675     0.001802    Angstroms    0.05
    alpha         90.000000     90.000000     0.000000    Degrees      0.00
    beta          90.000000     90.000000     0.000000    Degrees      0.00
    gamma         90.000000     90.000000     0.000000    Degrees      0.00
      1 x          0.000000      0.000000     0.000000    Fractional   0.00
      1 y          0.000000      0.000000     0.000000    Fractional   0.00
      1 z          0.000000      0.000000     0.000000    Fractional   0.00
      2 x          0.500000      0.500000     0.000000    Fractional   0.00
      2 y          0.500000      0.500000     0.000000    Fractional   0.00
      2 z          0.500000      0.500000     0.000000    Fractional   0.00
      3 x          0.500000      0.500000     0.000000    Fractional   0.00
      3 y          0.500000      0.500000     0.000000    Fractional   0.00
      3 z          0.000000      0.000000     0.000000    Fractional   0.00
      4 x          0.000000      0.000000     0.000000    Fractional   0.00
      4 y          0.000000      0.000000     0.000000    Fractional   0.00
      4 z          0.000000      0.000000     0.000000    Fractional   0.00
      5 x          0.500000      0.500000     0.000000    Fractional   0.00
      5 y          0.500000      0.500000     0.000000    Fractional   0.00
      5 z          0.500000      0.500000     0.000000    Fractional   0.00
--------------------------------------------------------------------------------


  Born effective charge tensors : 

-------------------------------------------------------------------------------
  Atom             x           y             z
-------------------------------------------------------------------------------
    1 Cl    x      -0.9489     -0.0000     -0.0000
            y      -0.0000     -0.9489     -0.0000
            z      -0.0000     -0.0000     -0.9489
-------------------------------------------------------------------------------
    2 O     x      -2.4688      0.0000      0.0000
            y       0.0000     -2.4688      0.0000
            z       0.0000      0.0000     -2.4688
-------------------------------------------------------------------------------
    3 Li    x       1.3129      0.0000     -0.0000
            y       0.0000      1.3129      0.0000
            z      -0.0000      0.0000      0.7919
-------------------------------------------------------------------------------




  Elastic Constant Matrix: (Units=GPa)

-------------------------------------------------------------------------------
  Indices      1         2         3         4         5         6    
-------------------------------------------------------------------------------
       1     94.3368   44.9178   44.9178    0.0000   -0.0000    0.0000
       2     44.9178   94.3368   44.9178   -0.0000    0.0000   -0.0000
       3     44.9178   44.9178   94.3368    0.0000   -0.0000    0.0000
       4      0.0000   -0.0000    0.0000   44.9178   -0.0000    0.0000
       5     -0.0000    0.0000   -0.0000   -0.0000   44.9178    0.0000
       6      0.0000   -0.0000    0.0000    0.0000    0.0000   44.9178
-------------------------------------------------------------------------------


  Elastic Compliance Matrix: (Units=1/GPa)

-------------------------------------------------------------------------------
  Indices      1         2         3         4         5         6    
-------------------------------------------------------------------------------
       1    0.015300 -0.004935 -0.004935 -0.000000  0.000000 -0.000000
       2   -0.004935  0.015300 -0.004935  0.000000 -0.000000  0.000000
       3   -0.004935 -0.004935  0.015300 -0.000000  0.000000 -0.000000
       4   -0.000000  0.000000 -0.000000  0.022263  0.000000 -0.000000
       5    0.000000 -0.000000  0.000000  0.000000  0.022263 -0.000000
       6   -0.000000  0.000000 -0.000000 -0.000000 -0.000000  0.022263
-------------------------------------------------------------------------------

  Mechanical properties :

-------------------------------------------------------------------------------
  Convention :                    Reuss         Voigt         Hill
-------------------------------------------------------------------------------
  Bulk  Modulus (GPa)     =      61.39080      61.39080      61.39080
  Shear Modulus (GPa)     =      33.84570      36.83448      35.34009
-------------------------------------------------------------------------------
  Velocity S-wave (km/s)  =       4.12274       4.30092       4.21277
  Velocity P-wave (km/s)  =       7.31386       7.44942       7.38195
-------------------------------------------------------------------------------
  Compressibility (1/GPa) =    0.01628909
-------------------------------------------------------------------------------
  Stress axis :                     x             y             z
-------------------------------------------------------------------------------
  Youngs Moduli (GPa)     =      65.35947      65.35947      65.35947
-------------------------------------------------------------------------------
  Poissons Ratio (x)      =                     0.32256       0.32256
  Poissons Ratio (y)      =       0.32256                     0.32256
  Poissons Ratio (z)      =       0.32256       0.32256
-------------------------------------------------------------------------------


  Piezoelectric Strain Matrix: (Units=C/m**2)

-------------------------------------------------------------------------------
  Indices      1         2         3         4         5         6    
-------------------------------------------------------------------------------
       x    -0.00000   0.00000   0.00000  -0.00000  -0.00000   0.00000
       y    -0.00000   0.00000   0.00000  -0.00000  -0.00000  -0.00000
       z     0.00000   0.00000   0.00000   0.00000  -0.00000  -0.00000
-------------------------------------------------------------------------------


  Piezoelectric Stress Matrix: (Units=10**-11 C/N)

-------------------------------------------------------------------------------
  Indices      1         2         3         4         5         6    
-------------------------------------------------------------------------------
       x    -0.00000   0.00000   0.00000  -0.00000  -0.00000   0.00000
       y    -0.00000   0.00000   0.00000  -0.00000  -0.00000  -0.00000
       z    -0.00000  -0.00000   0.00000   0.00000  -0.00000  -0.00000
-------------------------------------------------------------------------------


  Static dielectric constant tensor : 

-------------------------------------------------------------------------------
              x         y         z
-------------------------------------------------------------------------------
       x    12.11703   0.00000  -0.00000
       y     0.00000  12.11703  -0.00000
       z    -0.00000  -0.00000  12.11703
--------------------------------------------------------------------------------

  High frequency dielectric constant tensor : 

-------------------------------------------------------------------------------
              x         y         z
-------------------------------------------------------------------------------
       x     1.74104   0.00000   0.00000
       y     0.00000   1.74104   0.00000
       z     0.00000   0.00000   1.74104
-------------------------------------------------------------------------------

  Static refractive indices : 

-------------------------------------------------------------------------------
    1 =    3.48095      2 =    3.48095      3 =    3.48095
-------------------------------------------------------------------------------

  High frequency refractive indices : 

-------------------------------------------------------------------------------
    1 =    1.31948      2 =    1.31948      3 =    1.31948
-------------------------------------------------------------------------------


  Time to end of optimisation =       0.0105 seconds

********************************************************************************
*  Defect calculation for configuration   1 :                                  *
********************************************************************************

  Total number of defects =      3

  Total charge on defect  =   1.00

  Defect centre is at   0.9797   0.0000   0.0000  Angs

  Region 1 radius =  20.0000      Number of ions =   3862

  Number of symmetry inequivalent region 1 ions  =    620

  Region 2 radius =  24.0000      Number of ions =   2864

  Number of symmetry inequivalent region 2a ions =    419

  Region 2a mode = 4 : screened electrostatics due to region 1 
                       neglect correction to region 1 forces from 2a
                       region 2a displacements based on defects only

  Region 2a ions will only interact with defects in region 1

  Vacancies:

--------------------------------------------------------------------------------
    Specification type     Symbol/Number         x          y          z
--------------------------------------------------------------------------------
    Cartesian                                0.000000   0.000000   0.000000
    Cartesian                                3.918873   0.000000   0.000000
--------------------------------------------------------------------------------

  Interstitials:

--------------------------------------------------------------------------------
    Specification type     Symbol/Number         x          y          z
--------------------------------------------------------------------------------
    Atom/Cartesian          Cl               0.979718   0.000000   0.000000
--------------------------------------------------------------------------------


  Symmetry reduced region 1 (Relative to defect centre) :

--------------------------------------------------------------------------------
   No.   Atomic       x            y             z       Radius  Multiplicity   
         Label      (Angs)       (Angs)        (Angs)    (Angs)     
--------------------------------------------------------------------------------
     1  Cl    c      0.0000       0.0000       0.0000    0.0000     1    Defect
     2  Li    c      0.9806 *    -1.9603 *     0.0000    0.0000     4          
     3  Li    c     -0.9797 *    -1.9603 *    -1.9603    0.0000     4          
     4  O     c      0.9806 *    -1.9603 *    -1.9603    0.0000     4          
     5  Li    c     -2.9401 *    -1.9603 *     0.0000    0.0000     4          
     6  O     c     -2.9401 *    -1.9603 *    -1.9603    0.0000     4          
     7  Cl    c     -0.9797 *     0.0000       3.9207 *  0.0000     4          
     8  Li    c      2.9410 *    -1.9603 *    -1.9603    0.0000     4          
     9  Li    c      0.9806 *    -1.9603 *     3.9207 *  0.0000     8          
    10  Cl    c     -4.9004 *     0.0000       0.0000    0.0000     1          
    11  Cl    c      2.9410 *     0.0000       3.9207 *  0.0000     4          
    12  Li    c     -2.9401 *    -1.9603 *     3.9207 *  0.0000     8          
    13  Li    c      4.9013 *    -1.9603 *     0.0000    0.0000     4          
    14  Li    c     -4.9004 *    -1.9603 *    -1.9603    0.0000     4          
    15  Cl    c     -0.9797 *     3.9207 *     3.9207    0.0000     4          
    16  O     c      4.9013 *    -1.9603 *    -1.9603    0.0000     4          
    17  Li    c      0.9806 *     5.8810 *     0.0000    0.0000     4          
    18  Cl    c     -4.9004 *     0.0000       3.9207 *  0.0000     4          
    19  Li    c     -0.9797 *     5.8810 *    -1.9603 *  0.0000     8          
    20  O     c      0.9806 *     5.8810 *    -1.9603 *  0.0000     8          
    21  Cl    c      2.9410 *     3.9207 *     3.9207    0.0000     4          
    22  Li    c     -2.9401 *     5.8810 *     0.0000    0.0000     4          
    23  Li    c      4.9013 *    -1.9603 *     3.9207 *  0.0000     8          
    24  O     c     -2.9401 *    -1.9603 *     5.8810 *  0.0000     8          
    25  Li    c      2.9410 *    -1.9603 *     5.8810 *  0.0000     8          
    26  Cl    c      6.8616 *     0.0000       0.0000    0.0000     1          
    27  Li    c     -6.8607 *    -1.9603 *     0.0000    0.0000     4          
    28  Li    c      0.9806 *     5.8810 *     3.9207 *  0.0000     8          
    29  O     c     -6.8607 *    -1.9603 *    -1.9603    0.0000     4          
    30  Cl    c     -4.9004 *     3.9207 *     3.9207    0.0000     4          
    31  Li    c      6.8616 *    -1.9603 *    -1.9603    0.0000     4          
    32  Li    c     -2.9401 *     5.8810 *     3.9207 *  0.0000     8          
    33  Li    c      4.9013 *     5.8810 *     0.0000    0.0000     4          
    34  Li    c     -4.9004 *    -1.9603 *     5.8810 *  0.0000     8          
    35  Cl    c     -0.9797 *     0.0000       7.8414 *  0.0000     4          
    36  O     c      4.9013 *    -1.9603 *     5.8810 *  0.0000     8          
    37  Cl    c      6.8616 *     0.0000       3.9207 *  0.0000     4          
    38  Li    c     -6.8607 *    -1.9603 *     3.9207 *  0.0000     8          
    39  Li    c      0.9806 *    -1.9603 *     7.8414 *  0.0000     8          
    40  Li    c     -0.9797 *     5.8810 *     5.8810    0.0000     4          
    41  O     c      0.9806 *     5.8810 *     5.8810    0.0000     4          
    42  Cl    c      2.9410 *     0.0000       7.8414 *  0.0000     4          
    43  Li    c     -2.9401 *    -1.9603 *     7.8414 *  0.0000     8          
    44  Li    c      4.9013 *     3.9207 *     5.8810 *  0.0000     8          
    45  Cl    c     -8.8211 *     0.0000       0.0000    0.0000     1          
    46  O     c     -2.9401 *     5.8810 *     5.8810    0.0000     4          
    47  Cl    c     -0.9797 *     3.9207 *     7.8414 *  0.0000     8          
    48  Li    c      2.9410 *     5.8810 *     5.8810    0.0000     4          
    49  Cl    c      6.8616 *     3.9207 *     3.9207    0.0000     4          
    50  Li    c     -6.8607 *     5.8810 *     0.0000    0.0000     4          
    51  Li    c      8.8220 *    -1.9603 *     0.0000    0.0000     4          
    52  Li    c     -8.8211 *    -1.9603 *    -1.9603    0.0000     4          
    53  O     c     -6.8607 *    -1.9603 *     5.8810 *  0.0000     8          
    54  Cl    c     -4.9004 *     0.0000       7.8414 *  0.0000     4          
    55  Cl    c      2.9410 *     3.9207 *     7.8414 *  0.0000     8          
    56  Li    c      6.8616 *    -1.9603 *     5.8810 *  0.0000     8          
    57  O     c      8.8220 *    -1.9603 *    -1.9603    0.0000     4          
    58  Li    c      4.9013 *    -1.9603 *     7.8414 *  0.0000     8          
    59  Cl    c     -8.8211 *     0.0000       3.9207 *  0.0000     4          
    60  Li    c     -4.9004 *     5.8810 *     5.8810    0.0000     4          
    61  O     c      4.9013 *     5.8810 *     5.8810    0.0000     4          
    62  Li    c     -6.8607 *     3.9207 *     5.8810 *  0.0000     8          
    63  Li    c      0.9806 *     5.8810 *     7.8414 *  0.0000     8          
    64  Li    c      0.9806 *     9.8017 *     0.0000    0.0000     4          
    65  Li    c      8.8220 *    -1.9603 *     3.9207 *  0.0000     8          
    66  Cl    c     -4.9004 *     3.9207 *     7.8414 *  0.0000     8          
    67  Li    c     -0.9797 *    -1.9603 *     9.8017 *  0.0000     8          
    68  O     c      0.9806 *    -1.9603 *     9.8017 *  0.0000     8          
    69  Li    c     -2.9401 *     5.8810 *     7.8414 *  0.0000     8          
    70  Li    c     -2.9401 *     9.8017 *     0.0000    0.0000     4          
    71  Cl    c     -8.8211 *     3.9207 *     3.9207    0.0000     4          
    72  O     c     -2.9401 *    -1.9603 *     9.8017 *  0.0000     8          
    73  Li    c      2.9410 *    -1.9603 *     9.8017 *  0.0000     8          
    74  Cl    c      6.8616 *     0.0000       7.8414 *  0.0000     4          
    75  Li    c     -6.8607 *    -1.9603 *     7.8414 *  0.0000     8          
    76  Li    c      0.9806 *     9.8017 *     3.9207 *  0.0000     8          
    77  Li    c      8.8220 *     5.8810 *     0.0000    0.0000     4          
    78  Li    c     -8.8211 *    -1.9603 *     5.8810 *  0.0000     8          
    79  O     c     -6.8607 *     5.8810 *     5.8810    0.0000     4          
    80  Li    c      6.8616 *     5.8810 *     5.8810    0.0000     4          
    81  O     c      8.8220 *    -1.9603 *     5.8810 *  0.0000     8          
    82  Cl    c     10.7823 *     0.0000       0.0000    0.0000     1          
    83  Li    c    -10.7814 *    -1.9603 *     0.0000    0.0000     4          
    84  Li    c     -2.9401 *     3.9207 *     9.8017 *  0.0000     8          
    85  Li    c      4.9013 *     5.8810 *     7.8414 *  0.0000     8          
    86  Li    c      4.9013 *     9.8017 *     0.0000    0.0000     4          
    87  O     c    -10.7814 *    -1.9603 *    -1.9603    0.0000     4          
    88  Li    c     -4.9004 *    -1.9603 *     9.8017 *  0.0000     8          
    89  Cl    c     -0.9797 *     7.8414 *     7.8414    0.0000     4          
    90  O     c      4.9013 *    -1.9603 *     9.8017 *  0.0000     8          
    91  Cl    c      6.8616 *     3.9207 *     7.8414 *  0.0000     8          
    92  Li    c     10.7823 *    -1.9603 *    -1.9603    0.0000     4          
    93  Li    c      8.8220 *     5.8810 *     3.9207 *  0.0000     8          
    94  Li    c     -0.9797 *     5.8810 *     9.8017 *  0.0000     8          
    95  O     c      0.9806 *     5.8810 *     9.8017 *  0.0000     8          
    96  Cl    c      2.9410 *     7.8414 *     7.8414    0.0000     4          
    97  Cl    c     10.7823 *     0.0000       3.9207 *  0.0000     4          
    98  Li    c    -10.7814 *    -1.9603 *     3.9207 *  0.0000     8          
    99  Li    c      4.9013 *     9.8017 *     3.9207 *  0.0000     8          
   100  Cl    c     -8.8211 *     0.0000       7.8414 *  0.0000     4          
   101  O     c     -2.9401 *     5.8810 *     9.8017 *  0.0000     8          
   102  Cl    c     -0.9797 *     0.0000      11.7620 *  0.0000     4          
   103  Li    c      2.9410 *     5.8810 *     9.8017 *  0.0000     8          
   104  Li    c     -6.8607 *     5.8810 *     7.8414 *  0.0000     8          
   105  Li    c     -6.8607 *     9.8017 *     0.0000    0.0000     4          
   106  Li    c      0.9806 *    -1.9603 *    11.7620 *  0.0000     8          
   107  Li    c      8.8220 *    -1.9603 *     7.8414 *  0.0000     8          
   108  Li    c     -8.8211 *     5.8810 *     5.8810    0.0000     4          
   109  O     c     -6.8607 *    -1.9603 *     9.8017 *  0.0000     8          
   110  Cl    c     -4.9004 *     7.8414 *     7.8414    0.0000     4          
   111  Cl    c      2.9410 *     0.0000      11.7620 *  0.0000     4          
   112  Li    c      6.8616 *     9.8017 *    -1.9603 *  0.0000     8          
   113  O     c      8.8220 *     5.8810 *     5.8810    0.0000     4          
   114  Cl    c     10.7823 *     3.9207 *     3.9207    0.0000     4          
   115  Li    c    -10.7814 *     5.8810 *     0.0000    0.0000     4          
   116  Li    c     -2.9401 *    -1.9603 *    11.7620 *  0.0000     8          
   117  O     c    -10.7814 *     5.8810 *    -1.9603 *  0.0000     8          
   118  Cl    c     -8.8211 *     7.8414 *     3.9207 *  0.0000     8          
   119  Li    c     -4.9004 *     5.8810 *     9.8017 *  0.0000     8          
   120  Cl    c     -0.9797 *     3.9207 *    11.7620 *  0.0000     8          
   121  O     c      4.9013 *     5.8810 *     9.8017 *  0.0000     8          
   122  Li    c     10.7823 *    -1.9603 *     5.8810 *  0.0000     8          
   123  Li    c     -6.8607 *     9.8017 *     3.9207 *  0.0000     8          
   124  Li    c      0.9806 *     9.8017 *     7.8414 *  0.0000     8          
   125  Cl    c    -12.7417 *     0.0000       0.0000    0.0000     1          
   126  Cl    c     -4.9004 *     0.0000      11.7620 *  0.0000     4          
   127  Cl    c      2.9410 *     3.9207 *    11.7620 *  0.0000     8          
   128  Li    c    -10.7814 *     5.8810 *     3.9207 *  0.0000     8          
   129  Li    c     -2.9401 *     9.8017 *     7.8414 *  0.0000     8          
   130  Li    c      4.9013 *    -1.9603 *    11.7620 *  0.0000     8          
   131  Li    c     12.7426 *    -1.9603 *     0.0000    0.0000     4          
   132  Li    c    -12.7417 *    -1.9603 *    -1.9603    0.0000     4          
   133  Cl    c      6.8616 *     7.8414 *     7.8414    0.0000     4          
   134  O     c     12.7426 *    -1.9603 *    -1.9603    0.0000     4          
   135  Li    c      0.9806 *     5.8810 *    11.7620 *  0.0000     8          
   136  Li    c      8.8220 *     5.8810 *     7.8414 *  0.0000     8          
   137  Li    c      8.8220 *     9.8017 *     0.0000    0.0000     4          
   138  Cl    c    -12.7417 *     0.0000       3.9207 *  0.0000     4          
   139  Li    c     -8.8211 *    -1.9603 *     9.8017 *  0.0000     8          
   140  O     c     -6.8607 *     5.8810 *     9.8017 *  0.0000     8          
   141  Cl    c     -4.9004 *    11.7620 *     3.9207 *  0.0000     8          
   142  Li    c      6.8616 *     9.8017 *     5.8810 *  0.0000     8          
   143  O     c      8.8220 *    -1.9603 *     9.8017 *  0.0000     8          
   144  Cl    c     10.7823 *     0.0000       7.8414 *  0.0000     4          
   145  Li    c    -10.7814 *    -1.9603 *     7.8414 *  0.0000     8          
   146  Li    c     -2.9401 *     5.8810 *    11.7620 *  0.0000     8          
   147  Li    c      4.9013 *     9.8017 *     7.8414 *  0.0000     8          
   148  Li    c     12.7426 *    -1.9603 *     3.9207 *  0.0000     8          
   149  O     c    -10.7814 *     5.8810 *     5.8810    0.0000     4          
   150  Cl    c      6.8616 *     0.0000      11.7620 *  0.0000     4          
   151  Li    c     10.7823 *     5.8810 *     5.8810    0.0000     4          
   152  Li    c     -6.8607 *    -1.9603 *    11.7620 *  0.0000     8          
   153  Li    c      0.9806 *    13.7224 *     0.0000    0.0000     4          
   154  Li    c      8.8220 *     9.8017 *     3.9207 *  0.0000     8          
   155  Cl    c    -12.7417 *     3.9207 *     3.9207    0.0000     4          
   156  Li    c     -0.9797 *    -1.9603 *    13.7224 *  0.0000     8          
   157  Li    c     -0.9797 *     9.8017 *     9.8017    0.0000     4          
   158  O     c      0.9806 *    -1.9603 *    13.7224 *  0.0000     8          
   159  O     c      0.9806 *     9.8017 *     9.8017    0.0000     4          
   160  Cl    c     10.7823 *     3.9207 *     7.8414 *  0.0000     8          
   161  Li    c     -2.9401 *    13.7224 *     0.0000    0.0000     4          
   162  Li    c      4.9013 *     5.8810 *    11.7620 *  0.0000     8          
   163  Li    c     12.7426 *     5.8810 *     0.0000    0.0000     4          
   164  Li    c    -12.7417 *    -1.9603 *     5.8810 *  0.0000     8          
   165  Cl    c     -8.8211 *     7.8414 *     7.8414    0.0000     4          
   166  O     c     -2.9401 *    -1.9603 *    13.7224 *  0.0000     8          
   167  O     c     -2.9401 *     9.8017 *     9.8017    0.0000     4          
   168  Cl    c     -0.9797 *     7.8414 *    11.7620 *  0.0000     8          
   169  Li    c      2.9410 *    -1.9603 *    13.7224 *  0.0000     8          
   170  Li    c      2.9410 *     9.8017 *     9.8017    0.0000     4          
   171  Cl    c      6.8616 *     3.9207 *    11.7620 *  0.0000     8          
   172  O     c     12.7426 *    -1.9603 *     5.8810 *  0.0000     8          
   173  Li    c     -6.8607 *     9.8017 *     7.8414 *  0.0000     8          
   174  Li    c      0.9806 *    13.7224 *     3.9207 *  0.0000     8          
   175  Li    c     -8.8211 *     5.8810 *     9.8017 *  0.0000     8          
   176  Cl    c      2.9410 *     7.8414 *    11.7620 *  0.0000     8          
   177  O     c      8.8220 *     5.8810 *     9.8017 *  0.0000     8          
   178  Li    c    -10.7814 *     5.8810 *     7.8414 *  0.0000     8          
   179  Li    c    -10.7814 *     9.8017 *     0.0000    0.0000     4          
   180  Li    c     -2.9401 *    13.7224 *     3.9207 *  0.0000     8          
   181  Li    c      4.9013 *    13.7224 *     0.0000    0.0000     4          
   182  Li    c     12.7426 *     5.8810 *     3.9207 *  0.0000     8          
   183  O     c    -10.7814 *     9.8017 *    -1.9603 *  0.0000     8          
   184  Cl    c     -8.8211 *     0.0000      11.7620 *  0.0000     4          
   185  Li    c     -4.9004 *    13.7224 *    -1.9603 *  0.0000     8          
   186  Li    c     -4.9004 *     9.8017 *     9.8017    0.0000     4          
   187  O     c      4.9013 *    -1.9603 *    13.7224 *  0.0000     8          
   188  O     c      4.9013 *     9.8017 *     9.8017    0.0000     4          
   189  Li    c     10.7823 *    -1.9603 *     9.8017 *  0.0000     8          
   190  Cl    c     14.7030 *     0.0000       0.0000    0.0000     1          
   191  Li    c    -14.7021 *    -1.9603 *     0.0000    0.0000     4          
   192  Li    c     -6.8607 *     5.8810 *    11.7620 *  0.0000     8          
   193  Li    c      8.8220 *    11.7620 *    -1.9603 *  0.0000     8          
   194  O     c    -14.7021 *    -1.9603 *    -1.9603    0.0000     4          
   195  Cl    c    -12.7417 *     0.0000       7.8414 *  0.0000     4          
   196  Cl    c     -4.9004 *     7.8414 *    11.7620 *  0.0000     8          
   197  Li    c     -0.9797 *     5.8810 *    13.7224 *  0.0000     8          
   198  O     c      0.9806 *     5.8810 *    13.7224 *  0.0000     8          
   199  Li    c     14.7030 *    -1.9603 *    -1.9603    0.0000     4          
   200  Li    c    -10.7814 *     9.8017 *     3.9207 *  0.0000     8          
   201  Li    c      4.9013 *    13.7224 *     3.9207 *  0.0000     8          
   202  Li    c     12.7426 *    -1.9603 *     7.8414 *  0.0000     8          
   203  Li    c    -12.7417 *     5.8810 *     5.8810    0.0000     4          
   204  Cl    c     -8.8211 *     3.9207 *    11.7620 *  0.0000     8          
   205  O     c     -2.9401 *     5.8810 *    13.7224 *  0.0000     8          
   206  Li    c      2.9410 *     5.8810 *    13.7224 *  0.0000     8          
   207  O     c     12.7426 *     5.8810 *     5.8810    0.0000     4          
   208  Cl    c     14.7030 *     0.0000       3.9207 *  0.0000     4          
   209  Li    c    -14.7021 *    -1.9603 *     3.9207 *  0.0000     8          
   210  Li    c     -6.8607 *    13.7224 *     0.0000    0.0000     4          
   211  Li    c      0.9806 *     9.8017 *    11.7620 *  0.0000     8          
   212  Li    c      8.8220 *     9.8017 *     7.8414 *  0.0000     8          
   213  Cl    c    -12.7417 *     3.9207 *     7.8414 *  0.0000     8          
   214  O     c     -6.8607 *    -1.9603 *    13.7224 *  0.0000     8          
   215  O     c     -6.8607 *     9.8017 *     9.8017    0.0000     4          
   216  Li    c      6.8616 *    13.7224 *    -1.9603 *  0.0000     8          
   217  Li    c      6.8616 *     9.8017 *     9.8017    0.0000     4          
   218  Cl    c     10.7823 *     7.8414 *     7.8414    0.0000     4          
   219  Li    c     -2.9401 *     9.8017 *    11.7620 *  0.0000     8          
   220  O     c    -10.7814 *     5.8810 *     9.8017 *  0.0000     8          
   221  Li    c     -4.9004 *    13.7224 *     5.8810 *  0.0000     8          
   222  Cl    c     -0.9797 *     0.0000      15.6827 *  0.0000     4          
   223  O     c      4.9013 *     5.8810 *    13.7224 *  0.0000     8          
   224  Cl    c      6.8616 *     7.8414 *    11.7620 *  0.0000     8          
   225  Li    c     10.7823 *     5.8810 *     9.8017 *  0.0000     8          
   226  Cl    c     14.7030 *     3.9207 *     3.9207    0.0000     4          
   227  Li    c    -14.7021 *     5.8810 *     0.0000    0.0000     4          
   228  Li    c     -6.8607 *    13.7224 *     3.9207 *  0.0000     8          
   229  Li    c      0.9806 *    -1.9603 *    15.6827 *  0.0000     8          
   230  Li    c      0.9806 *    13.7224 *     7.8414 *  0.0000     8          
   231  Li    c      8.8220 *    11.7620 *     5.8810 *  0.0000     8          
   232  O     c    -14.7021 *    -1.9603 *     5.8810 *  0.0000     8          
   233  Cl    c      2.9410 *     0.0000      15.6827 *  0.0000     4          
   234  Cl    c     10.7823 *     0.0000      11.7620 *  0.0000     4          
   235  Li    c     14.7030 *    -1.9603 *     5.8810 *  0.0000     8          
   236  Li    c    -10.7814 *    -1.9603 *    11.7620 *  0.0000     8          
   237  Li    c     -2.9401 *    -1.9603 *    15.6827 *  0.0000     8          
   238  Li    c     -2.9401 *     7.8414 *    13.7224 *  0.0000     8          
   239  Li    c      4.9013 *     9.8017 *    11.7620 *  0.0000     8          
   240  Li    c     12.7426 *     7.8414 *     5.8810 *  0.0000     8          
   241  Li    c     12.7426 *     9.8017 *     0.0000    0.0000     4          
   242  Li    c    -12.7417 *    -1.9603 *     9.8017 *  0.0000     8          
   243  Cl    c     -0.9797 *     3.9207 *    15.6827 *  0.0000     8          
   244  O     c     12.7426 *    -1.9603 *     9.8017 *  0.0000     8          
   245  Li    c    -14.7021 *     5.8810 *     3.9207 *  0.0000     8          
   246  Li    c      8.8220 *    13.7224 *     0.0000    0.0000     4          
   247  Li    c     -8.8211 *    -1.9603 *    13.7224 *  0.0000     8          
   248  Li    c     -8.8211 *     9.8017 *     9.8017    0.0000     4          
   249  O     c     -6.8607 *     5.8810 *    13.7224 *  0.0000     8          
   250  Cl    c     -4.9004 *     0.0000      15.6827 *  0.0000     4          
   251  Cl    c      2.9410 *     3.9207 *    15.6827 *  0.0000     8          
   252  Li    c      6.8616 *    13.7224 *     5.8810 *  0.0000     8          
   253  O     c      8.8220 *    -1.9603 *    13.7224 *  0.0000     8          
   254  O     c      8.8220 *     9.8017 *     9.8017    0.0000     4          
   255  Cl    c     10.7823 *     3.9207 *    11.7620 *  0.0000     8          
   256  Li    c    -10.7814 *     9.8017 *     7.8414 *  0.0000     8          
   257  Li    c      4.9013 *    -1.9603 *    15.6827 *  0.0000     8          
   258  Li    c      4.9013 *     7.8414 *    13.7224 *  0.0000     8          
   259  Li    c     12.7426 *     9.8017 *     3.9207 *  0.0000     8          
   260  Cl    c    -16.6624 *     0.0000       0.0000    0.0000     1          
   261  Cl    c     -8.8211 *     7.8414 *    11.7620 *  0.0000     8          
   262  Cl    c     -0.9797 *    11.7620 *    11.7620    0.0000     4          
   263  Cl    c     14.7030 *     0.0000       7.8414 *  0.0000     4          
   264  Li    c    -14.7021 *    -1.9603 *     7.8414 *  0.0000     8          
   265  Li    c     -6.8607 *     9.8017 *    11.7620 *  0.0000     8          
   266  Li    c      0.9806 *     5.8810 *    15.6827 *  0.0000     8          
   267  Li    c      8.8220 *    13.7224 *     3.9207 *  0.0000     8          
   268  Li    c     16.6633 *    -1.9603 *     0.0000    0.0000     4          
   269  Li    c    -16.6624 *    -1.9603 *    -1.9603    0.0000     4          
   270  O     c    -14.7021 *     5.8810 *     5.8810    0.0000     4          
   271  Cl    c    -12.7417 *     7.8414 *     7.8414    0.0000     4          
   272  Cl    c     -4.9004 *     3.9207 *    15.6827 *  0.0000     8          
   273  Li    c     -0.9797 *     9.8017 *    13.7224 *  0.0000     8          
   274  O     c      0.9806 *     9.8017 *    13.7224 *  0.0000     8          
   275  Cl    c      2.9410 *    11.7620 *    11.7620    0.0000     4          
   276  Li    c     14.7030 *     5.8810 *     5.8810    0.0000     4          
   277  O     c     16.6633 *    -1.9603 *    -1.9603    0.0000     4          
   278  Li    c    -10.7814 *     5.8810 *    11.7620 *  0.0000     8          
   279  Li    c     -2.9401 *     5.8810 *    15.6827 *  0.0000     8          
   280  Cl    c    -16.6624 *     0.0000       3.9207 *  0.0000     4          
   281  Li    c    -12.7417 *     5.8810 *     9.8017 *  0.0000     8          
   282  O     c     -2.9401 *     9.8017 *    13.7224 *  0.0000     8          
   283  Li    c      2.9410 *     9.8017 *    13.7224 *  0.0000     8          
   284  Cl    c      6.8616 *     0.0000      15.6827 *  0.0000     4          
   285  O     c     12.7426 *     5.8810 *     9.8017 *  0.0000     8          
   286  Cl    c     14.7030 *     3.9207 *     7.8414 *  0.0000     8          
   287  Li    c     -6.8607 *    -1.9603 *    15.6827 *  0.0000     8          
   288  Li    c     -6.8607 *    13.7224 *     7.8414 *  0.0000     8          
   289  Li    c     16.6633 *    -1.9603 *     3.9207 *  0.0000     8          
   290  Cl    c    -12.7417 *     0.0000      11.7620 *  0.0000     4          
   291  Li    c     -8.8211 *     5.8810 *    13.7224 *  0.0000     8          
   292  Cl    c     -4.9004 *    11.7620 *    11.7620    0.0000     4          
   293  O     c      8.8220 *     5.8810 *    13.7224 *  0.0000     8          
   294  Li    c    -10.7814 *    13.7224 *     0.0000    0.0000     4          
   295  Li    c      4.9013 *     5.8810 *    15.6827 *  0.0000     8          
   296  Li    c     12.7426 *    -1.9603 *    11.7620 *  0.0000     8          
   297  Cl    c    -16.6624 *     3.9207 *     3.9207    0.0000     4          
   298  O     c    -10.7814 *    -1.9603 *    13.7224 *  0.0000     8          
   299  O     c    -10.7814 *     9.8017 *     9.8017    0.0000     4          
   300  Li    c     -4.9004 *    13.7224 *     9.8017 *  0.0000     8          
   301  Cl    c     -0.9797 *     7.8414 *    15.6827 *  0.0000     8          
   302  O     c      4.9013 *     9.8017 *    13.7224 *  0.0000     8          
   303  Cl    c      6.8616 *     3.9207 *    15.6827 *  0.0000     8          
   304  Li    c     10.7823 *    -1.9603 *    13.7224 *  0.0000     8          
   305  Li    c     10.7823 *     9.8017 *     9.8017    0.0000     4          
   306  Li    c    -14.7021 *     5.8810 *     7.8414 *  0.0000     8          
   307  Li    c    -14.7021 *     9.8017 *     0.0000    0.0000     4          
   308  Li    c      0.9806 *    17.6430 *     0.0000    0.0000     4          
   309  Li    c      8.8220 *    11.7620 *     9.8017 *  0.0000     8          
   310  Li    c     16.6633 *     5.8810 *     0.0000    0.0000     4          
   311  Li    c    -16.6624 *     5.8810 *    -1.9603 *  0.0000     8          
   312  O     c    -14.7021 *     9.8017 *    -1.9603 *  0.0000     8          
   313  Cl    c    -12.7417 *     3.9207 *    11.7620 *  0.0000     8          
   314  Li    c     -0.9797 *    17.6430 *    -1.9603 *  0.0000     8          
   315  O     c      0.9806 *    -1.9603 *    17.6430 *  0.0000     8          
   316  Cl    c      2.9410 *     7.8414 *    15.6827 *  0.0000     8          
   317  Cl    c     10.7823 *     7.8414 *    11.7620 *  0.0000     8          
   318  Li    c     14.7030 *     9.8017 *    -1.9603 *  0.0000     8          
   319  O     c     16.6633 *     5.8810 *    -1.9603 *  0.0000     8          
   320  Li    c    -10.7814 *    13.7224 *     3.9207 *  0.0000     8          
   321  Li    c     -2.9401 *    17.6430 *     0.0000    0.0000     4          
   322  Li    c     12.7426 *     9.8017 *     7.8414 *  0.0000     8          
   323  Cl    c     -8.8211 *     0.0000      15.6827 *  0.0000     4          
   324  O     c     -2.9401 *    17.6430 *    -1.9603 *  0.0000     8          
   325  Li    c      2.9410 *    17.6430 *    -1.9603 *  0.0000     8          
   326  Cl    c      6.8616 *    11.7620 *    11.7620    0.0000     4          
   327  Li    c    -14.7021 *     9.8017 *     3.9207 *  0.0000     8          
   328  Li    c     -6.8607 *     5.8810 *    15.6827 *  0.0000     8          
   329  Li    c      0.9806 *    13.7224 *    11.7620 *  0.0000     8          
   330  Li    c      0.9806 *     3.9207 *    17.6430 *  0.0000     8          
   331  Li    c      8.8220 *    -1.9603 *    15.6827 *  0.0000     8          
   332  Li    c      8.8220 *    13.7224 *     7.8414 *  0.0000     8          
   333  Li    c     16.6633 *     5.8810 *     3.9207 *  0.0000     8          
   334  O     c     -6.8607 *     9.8017 *    13.7224 *  0.0000     8          
   335  Cl    c     -4.9004 *     7.8414 *    15.6827 *  0.0000     8          
   336  Li    c      6.8616 *     9.8017 *    13.7224 *  0.0000     8          
   337  Li    c     -2.9401 *    13.7224 *    11.7620 *  0.0000     8          
   338  Li    c     -2.9401 *    17.6430 *     3.9207 *  0.0000     8          
   339  Li    c      4.9013 *    17.6430 *     0.0000    0.0000     4          
   340  Li    c     12.7426 *     5.8810 *    11.7620 *  0.0000     8          
   341  Cl    c    -16.6624 *     0.0000       7.8414 *  0.0000     4          
   342  O     c    -10.7814 *     5.8810 *    13.7224 *  0.0000     8          
   343  Cl    c     -8.8211 *     3.9207 *    15.6827 *  0.0000     8          
   344  Li    c     -4.9004 *    -1.9603 *    17.6430 *  0.0000     8          
   345  O     c      4.9013 *    17.6430 *    -1.9603 *  0.0000     8          
   346  Li    c     10.7823 *     5.8810 *    13.7224 *  0.0000     8          
   347  Cl    c     14.7030 *     7.8414 *     7.8414    0.0000     4          
   348  Li    c      0.9806 *     9.8017 *    15.6827 *  0.0000     8          
   349  Li    c     16.6633 *    -1.9603 *     7.8414 *  0.0000     8          
   350  Li    c    -16.6624 *     5.8810 *     5.8810    0.0000     4          
   351  O     c    -14.7021 *     9.8017 *     5.8810 *  0.0000     8          
   352  Li    c     -0.9797 *    17.6430 *     5.8810 *  0.0000     8          
   353  O     c      0.9806 *     5.8810 *    17.6430 *  0.0000     8          
   354  Li    c     14.7030 *     9.8017 *     5.8810 *  0.0000     8          
   355  O     c     16.6633 *     5.8810 *     5.8810    0.0000     4          
   356  Cl    c     18.6237 *     0.0000       0.0000    0.0000     1          
   357  Li    c    -18.6228 *    -1.9603 *     0.0000    0.0000     4          
   358  Li    c    -10.7814 *     9.8017 *    11.7620 *  0.0000     8          
   359  Li    c     -2.9401 *     9.8017 *    15.6827 *  0.0000     8          
   360  Li    c      4.9013 *    13.7224 *    11.7620 *  0.0000     8          
   361  Li    c      4.9013 *    17.6430 *     3.9207 *  0.0000     8          
   362  Li    c     12.7426 *    13.7224 *     0.0000    0.0000     4          
   363  O     c    -18.6228 *    -1.9603 *    -1.9603    0.0000     4          
   364  Cl    c    -16.6624 *     3.9207 *     7.8414 *  0.0000     8          
   365  Li    c    -12.7417 *    -1.9603 *    13.7224 *  0.0000     8          
   366  Li    c    -12.7417 *     9.8017 *     9.8017    0.0000     4          
   367  Cl    c     -8.8211 *    11.7620 *    11.7620    0.0000     4          
   368  O     c     -2.9401 *     5.8810 *    17.6430 *  0.0000     8          
   369  Li    c      2.9410 *     5.8810 *    17.6430 *  0.0000     8          
   370  Cl    c      6.8616 *     7.8414 *    15.6827 *  0.0000     8          
   371  O     c     12.7426 *    -1.9603 *    13.7224 *  0.0000     8          
   372  O     c     12.7426 *     9.8017 *     9.8017    0.0000     4          
   373  Cl    c     14.7030 *     0.0000      11.7620 *  0.0000     4          
   374  Li    c     18.6237 *    -1.9603 *    -1.9603    0.0000     4          
   375  Li    c    -14.7021 *    -1.9603 *    11.7620 *  0.0000     8          
   376  Li    c     -6.8607 *    17.6430 *     0.0000    0.0000     4          
   377  Li    c      8.8220 *     5.8810 *    15.6827 *  0.0000     8          
   378  Cl    c    -12.7417 *     7.8414 *    11.7620 *  0.0000     8          
   379  Li    c     -8.8211 *     9.8017 *    13.7224 *  0.0000     8          
   380  O     c     -6.8607 *    17.6430 *    -1.9603 *  0.0000     8          
   381  Li    c      6.8616 *    -1.9603 *    17.6430 *  0.0000     8          
   382  O     c      8.8220 *     9.8017 *    13.7224 *  0.0000     8          
   383  Cl    c     10.7823 *     0.0000      15.6827 *  0.0000     4          
   384  Cl    c     18.6237 *     0.0000       3.9207 *  0.0000     4          
   385  Li    c    -18.6228 *    -1.9603 *     3.9207 *  0.0000     8          
   386  Li    c    -10.7814 *    15.6827 *    -1.9603 *  0.0000     8          
   387  Li    c    -10.7814 *    13.7224 *     7.8414 *  0.0000     8          
   388  Li    c      4.9013 *     9.8017 *    15.6827 *  0.0000     8          
   389  Li    c     12.7426 *    13.7224 *     3.9207 *  0.0000     8          
   390  Li    c     -4.9004 *     5.8810 *    17.6430 *  0.0000     8          
   391  O     c      4.9013 *     5.8810 *    17.6430 *  0.0000     8          
   392  Cl    c     14.7030 *     3.9207 *    11.7620 *  0.0000     8          
   393  Li    c    -14.7021 *     9.8017 *     7.8414 *  0.0000     8          
   394  Li    c     -6.8607 *    13.7224 *    11.7620 *  0.0000     8          
   395  Li    c     -6.8607 *    17.6430 *     3.9207 *  0.0000     8          
   396  Li    c      0.9806 *     7.8414 *    17.6430 *  0.0000     8          
   397  Li    c     16.6633 *     5.8810 *     7.8414 *  0.0000     8          
   398  Li    c     16.6633 *     9.8017 *     0.0000    0.0000     4          
   399  Li    c    -16.6624 *    -1.9603 *     9.8017 *  0.0000     8          
   400  Li    c     -0.9797 *    13.7224 *    13.7224    0.0000     4          
   401  O     c      0.9806 *    13.7224 *    13.7224    0.0000     4          
   402  Cl    c     10.7823 *     3.9207 *    15.6827 *  0.0000     8          
   403  O     c     16.6633 *    -1.9603 *     9.8017 *  0.0000     8          
   404  Cl    c     18.6237 *     3.9207 *     3.9207    0.0000     4          
   405  Li    c    -18.6228 *     5.8810 *     0.0000    0.0000     4          
   406  Li    c     -2.9401 *    17.6430 *     7.8414 *  0.0000     8          
   407  O     c    -18.6228 *     5.8810 *    -1.9603 *  0.0000     8          
   408  Li    c    -12.7417 *     5.8810 *    13.7224 *  0.0000     8          
   409  Cl    c     -8.8211 *     7.8414 *    15.6827 *  0.0000     8          
   410  O     c     -2.9401 *    13.7224 *    13.7224    0.0000     4          
   411  Cl    c     -0.9797 *    11.7620 *    15.6827 *  0.0000     8          
   412  Cl    c     -0.9797 *     0.0000      19.6034 *  0.0000     4          
   413  Li    c      2.9410 *    13.7224 *    13.7224    0.0000     4          
   414  O     c     12.7426 *     5.8810 *    13.7224 *  0.0000     8          
   415  Li    c     18.6237 *     5.8810 *    -1.9603 *  0.0000     8          
   416  Li    c    -14.7021 *     5.8810 *    11.7620 *  0.0000     8          
   417  Li    c     -6.8607 *     9.8017 *    15.6827 *  0.0000     8          
   418  Li    c      0.9806 *    -1.9603 *    19.6034 *  0.0000     8          
   419  Li    c      8.8220 *    17.6430 *     0.0000    0.0000     4          
   420  Li    c     16.6633 *     3.9207 *     9.8017 *  0.0000     8          
   421  Li    c     -8.8211 *    17.6430 *    -1.9603 *  0.0000     8          
   422  O     c     -6.8607 *    17.6430 *     5.8810 *  0.0000     8          
   423  Cl    c      2.9410 *    11.7620 *    15.6827 *  0.0000     8          
   424  Cl    c      2.9410 *     0.0000      19.6034 *  0.0000     4          
   425  Li    c      6.8616 *     5.8810 *    17.6430 *  0.0000     8          
   426  O     c      8.8220 *    17.6430 *    -1.9603 *  0.0000     8          
   427  Cl    c     10.7823 *    11.7620 *    11.7620    0.0000     4          
   428  Li    c    -18.6228 *     5.8810 *     3.9207 *  0.0000     8          
   429  Li    c    -10.7814 *     5.8810 *    15.6827 *  0.0000     8          
   430  Li    c     -2.9401 *    19.6034 *    -1.9603 *  0.0000     8          
   431  Li    c      4.9013 *    17.6430 *     7.8414 *  0.0000     8          
   432  Li    c     12.7426 *     9.8017 *    11.7620 *  0.0000     8          
   433  Cl    s      0.0000       0.0000       0.0000    0.0000     1    Defect
   434  O     s      0.9806 *    -1.9603 *    -1.9603    0.0000     4          
   435  O     s     -2.9401 *    -1.9603 *    -1.9603    0.0000     4          
   436  Cl    s     -0.9797 *     0.0000       3.9207 *  0.0000     4          
   437  Cl    s     -4.9004 *     0.0000       0.0000    0.0000     1          
   438  Cl    s      2.9410 *     0.0000       3.9207 *  0.0000     4          
   439  Cl    s     -0.9797 *     3.9207 *     3.9207    0.0000     4          
   440  O     s      4.9013 *    -1.9603 *    -1.9603    0.0000     4          
   441  Cl    s     -4.9004 *     0.0000       3.9207 *  0.0000     4          
   442  O     s      0.9806 *     5.8810 *    -1.9603 *  0.0000     8          
   443  Cl    s      2.9410 *     3.9207 *     3.9207    0.0000     4          
   444  O     s     -2.9401 *    -1.9603 *     5.8810 *  0.0000     8          
   445  Cl    s      6.8616 *     0.0000       0.0000    0.0000     1          
   446  O     s     -6.8607 *    -1.9603 *    -1.9603    0.0000     4          
   447  Cl    s     -4.9004 *     3.9207 *     3.9207    0.0000     4          
   448  Cl    s     -0.9797 *     0.0000       7.8414 *  0.0000     4          
   449  O     s      4.9013 *    -1.9603 *     5.8810 *  0.0000     8          
   450  Cl    s      6.8616 *     0.0000       3.9207 *  0.0000     4          
   451  O     s      0.9806 *     5.8810 *     5.8810    0.0000     4          
   452  Cl    s      2.9410 *     0.0000       7.8414 *  0.0000     4          
   453  Cl    s     -8.8211 *     0.0000       0.0000    0.0000     1          
   454  O     s     -2.9401 *     5.8810 *     5.8810    0.0000     4          
   455  Cl    s     -0.9797 *     3.9207 *     7.8414 *  0.0000     8          
   456  Cl    s      6.8616 *     3.9207 *     3.9207    0.0000     4          
   457  O     s     -6.8607 *    -1.9603 *     5.8810 *  0.0000     8          
   458  Cl    s     -4.9004 *     0.0000       7.8414 *  0.0000     4          
   459  Cl    s      2.9410 *     3.9207 *     7.8414 *  0.0000     8          
   460  O     s      8.8220 *    -1.9603 *    -1.9603    0.0000     4          
   461  Cl    s     -8.8211 *     0.0000       3.9207 *  0.0000     4          
   462  O     s      4.9013 *     5.8810 *     5.8810    0.0000     4          
   463  Cl    s     -4.9004 *     3.9207 *     7.8414 *  0.0000     8          
   464  O     s      0.9806 *    -1.9603 *     9.8017 *  0.0000     8          
   465  Cl    s     -8.8211 *     3.9207 *     3.9207    0.0000     4          
   466  O     s     -2.9401 *    -1.9603 *     9.8017 *  0.0000     8          
   467  Cl    s      6.8616 *     0.0000       7.8414 *  0.0000     4          
   468  O     s     -6.8607 *     5.8810 *     5.8810    0.0000     4          
   469  O     s      8.8220 *    -1.9603 *     5.8810 *  0.0000     8          
   470  Cl    s     10.7823 *     0.0000       0.0000    0.0000     1          
   471  O     s    -10.7814 *    -1.9603 *    -1.9603    0.0000     4          
   472  Cl    s     -0.9797 *     7.8414 *     7.8414    0.0000     4          
   473  O     s      4.9013 *    -1.9603 *     9.8017 *  0.0000     8          
   474  Cl    s      6.8616 *     3.9207 *     7.8414 *  0.0000     8          
   475  O     s      0.9806 *     5.8810 *     9.8017 *  0.0000     8          
   476  Cl    s      2.9410 *     7.8414 *     7.8414    0.0000     4          
   477  Cl    s     10.7823 *     0.0000       3.9207 *  0.0000     4          
   478  Cl    s     -8.8211 *     0.0000       7.8414 *  0.0000     4          
   479  O     s     -2.9401 *     5.8810 *     9.8017 *  0.0000     8          
   480  Cl    s     -0.9797 *     0.0000      11.7620 *  0.0000     4          
   481  O     s     -6.8607 *    -1.9603 *     9.8017 *  0.0000     8          
   482  Cl    s     -4.9004 *     7.8414 *     7.8414    0.0000     4          
   483  Cl    s      2.9410 *     0.0000      11.7620 *  0.0000     4          
   484  O     s      8.8220 *     5.8810 *     5.8810    0.0000     4          
   485  Cl    s     10.7823 *     3.9207 *     3.9207    0.0000     4          
   486  O     s    -10.7814 *     5.8810 *    -1.9603 *  0.0000     8          
   487  Cl    s     -8.8211 *     7.8414 *     3.9207 *  0.0000     8          
   488  Cl    s     -0.9797 *     3.9207 *    11.7620 *  0.0000     8          
   489  O     s      4.9013 *     5.8810 *     9.8017 *  0.0000     8          
   490  Cl    s    -12.7417 *     0.0000       0.0000    0.0000     1          
   491  Cl    s     -4.9004 *     0.0000      11.7620 *  0.0000     4          
   492  Cl    s      2.9410 *     3.9207 *    11.7620 *  0.0000     8          
   493  Cl    s      6.8616 *     7.8414 *     7.8414    0.0000     4          
   494  O     s     12.7426 *    -1.9603 *    -1.9603    0.0000     4          
   495  Cl    s    -12.7417 *     0.0000       3.9207 *  0.0000     4          
   496  O     s     -6.8607 *     5.8810 *     9.8017 *  0.0000     8          
   497  Cl    s     -4.9004 *    11.7620 *     3.9207 *  0.0000     8          
   498  O     s      8.8220 *    -1.9603 *     9.8017 *  0.0000     8          
   499  Cl    s     10.7823 *     0.0000       7.8414 *  0.0000     4          
   500  O     s    -10.7814 *     5.8810 *     5.8810    0.0000     4          
   501  Cl    s      6.8616 *     0.0000      11.7620 *  0.0000     4          
   502  Cl    s    -12.7417 *     3.9207 *     3.9207    0.0000     4          
   503  O     s      0.9806 *    -1.9603 *    13.7224 *  0.0000     8          
   504  O     s      0.9806 *     9.8017 *     9.8017    0.0000     4          
   505  Cl    s     10.7823 *     3.9207 *     7.8414 *  0.0000     8          
   506  Cl    s     -8.8211 *     7.8414 *     7.8414    0.0000     4          
   507  O     s     -2.9401 *    -1.9603 *    13.7224 *  0.0000     8          
   508  O     s     -2.9401 *     9.8017 *     9.8017    0.0000     4          
   509  Cl    s     -0.9797 *     7.8414 *    11.7620 *  0.0000     8          
   510  Cl    s      6.8616 *     3.9207 *    11.7620 *  0.0000     8          
   511  O     s     12.7426 *    -1.9603 *     5.8810 *  0.0000     8          
   512  Cl    s      2.9410 *     7.8414 *    11.7620 *  0.0000     8          
   513  O     s      8.8220 *     5.8810 *     9.8017 *  0.0000     8          
   514  O     s    -10.7814 *     9.8017 *    -1.9603 *  0.0000     8          
   515  Cl    s     -8.8211 *     0.0000      11.7620 *  0.0000     4          
   516  O     s      4.9013 *    -1.9603 *    13.7224 *  0.0000     8          
   517  O     s      4.9013 *     9.8017 *     9.8017    0.0000     4          
   518  Cl    s     14.7030 *     0.0000       0.0000    0.0000     1          
   519  O     s    -14.7021 *    -1.9603 *    -1.9603    0.0000     4          
   520  Cl    s    -12.7417 *     0.0000       7.8414 *  0.0000     4          
   521  Cl    s     -4.9004 *     7.8414 *    11.7620 *  0.0000     8          
   522  O     s      0.9806 *     5.8810 *    13.7224 *  0.0000     8          
   523  Cl    s     -8.8211 *     3.9207 *    11.7620 *  0.0000     8          
   524  O     s     -2.9401 *     5.8810 *    13.7224 *  0.0000     8          
   525  O     s     12.7426 *     5.8810 *     5.8810    0.0000     4          
   526  Cl    s     14.7030 *     0.0000       3.9207 *  0.0000     4          
   527  Cl    s    -12.7417 *     3.9207 *     7.8414 *  0.0000     8          
   528  O     s     -6.8607 *    -1.9603 *    13.7224 *  0.0000     8          
   529  O     s     -6.8607 *     9.8017 *     9.8017    0.0000     4          
   530  Cl    s     10.7823 *     7.8414 *     7.8414    0.0000     4          
   531  O     s    -10.7814 *     5.8810 *     9.8017 *  0.0000     8          
   532  Cl    s     -0.9797 *     0.0000      15.6827 *  0.0000     4          
   533  O     s      4.9013 *     5.8810 *    13.7224 *  0.0000     8          
   534  Cl    s      6.8616 *     7.8414 *    11.7620 *  0.0000     8          
   535  Cl    s     14.7030 *     3.9207 *     3.9207    0.0000     4          
   536  O     s    -14.7021 *    -1.9603 *     5.8810 *  0.0000     8          
   537  Cl    s      2.9410 *     0.0000      15.6827 *  0.0000     4          
   538  Cl    s     10.7823 *     0.0000      11.7620 *  0.0000     4          
   539  Cl    s     -0.9797 *     3.9207 *    15.6827 *  0.0000     8          
   540  O     s     12.7426 *    -1.9603 *     9.8017 *  0.0000     8          
   541  O     s     -6.8607 *     5.8810 *    13.7224 *  0.0000     8          
   542  Cl    s     -4.9004 *     0.0000      15.6827 *  0.0000     4          
   543  Cl    s      2.9410 *     3.9207 *    15.6827 *  0.0000     8          
   544  O     s      8.8220 *    -1.9603 *    13.7224 *  0.0000     8          
   545  O     s      8.8220 *     9.8017 *     9.8017    0.0000     4          
   546  Cl    s     10.7823 *     3.9207 *    11.7620 *  0.0000     8          
   547  Cl    s    -16.6624 *     0.0000       0.0000    0.0000     1          
   548  Cl    s     -8.8211 *     7.8414 *    11.7620 *  0.0000     8          
   549  Cl    s     -0.9797 *    11.7620 *    11.7620    0.0000     4          
   550  Cl    s     14.7030 *     0.0000       7.8414 *  0.0000     4          
   551  O     s    -14.7021 *     5.8810 *     5.8810    0.0000     4          
   552  Cl    s    -12.7417 *     7.8414 *     7.8414    0.0000     4          
   553  Cl    s     -4.9004 *     3.9207 *    15.6827 *  0.0000     8          
   554  O     s      0.9806 *     9.8017 *    13.7224 *  0.0000     8          
   555  Cl    s      2.9410 *    11.7620 *    11.7620    0.0000     4          
   556  O     s     16.6633 *    -1.9603 *    -1.9603    0.0000     4          
   557  Cl    s    -16.6624 *     0.0000       3.9207 *  0.0000     4          
   558  O     s     -2.9401 *     9.8017 *    13.7224 *  0.0000     8          
   559  Cl    s      6.8616 *     0.0000      15.6827 *  0.0000     4          
   560  O     s     12.7426 *     5.8810 *     9.8017 *  0.0000     8          
   561  Cl    s     14.7030 *     3.9207 *     7.8414 *  0.0000     8          
   562  Cl    s    -12.7417 *     0.0000      11.7620 *  0.0000     4          
   563  Cl    s     -4.9004 *    11.7620 *    11.7620    0.0000     4          
   564  O     s      8.8220 *     5.8810 *    13.7224 *  0.0000     8          
   565  Cl    s    -16.6624 *     3.9207 *     3.9207    0.0000     4          
   566  O     s    -10.7814 *    -1.9603 *    13.7224 *  0.0000     8          
   567  O     s    -10.7814 *     9.8017 *     9.8017    0.0000     4          
   568  Cl    s     -0.9797 *     7.8414 *    15.6827 *  0.0000     8          
   569  O     s      4.9013 *     9.8017 *    13.7224 *  0.0000     8          
   570  Cl    s      6.8616 *     3.9207 *    15.6827 *  0.0000     8          
   571  O     s    -14.7021 *     9.8017 *    -1.9603 *  0.0000     8          
   572  Cl    s    -12.7417 *     3.9207 *    11.7620 *  0.0000     8          
   573  O     s      0.9806 *    -1.9603 *    17.6430 *  0.0000     8          
   574  Cl    s      2.9410 *     7.8414 *    15.6827 *  0.0000     8          
   575  Cl    s     10.7823 *     7.8414 *    11.7620 *  0.0000     8          
   576  O     s     16.6633 *     5.8810 *    -1.9603 *  0.0000     8          
   577  Cl    s     -8.8211 *     0.0000      15.6827 *  0.0000     4          
   578  O     s     -2.9401 *    17.6430 *    -1.9603 *  0.0000     8          
   579  Cl    s      6.8616 *    11.7620 *    11.7620    0.0000     4          
   580  O     s     -6.8607 *     9.8017 *    13.7224 *  0.0000     8          
   581  Cl    s     -4.9004 *     7.8414 *    15.6827 *  0.0000     8          
   582  Cl    s    -16.6624 *     0.0000       7.8414 *  0.0000     4          
   583  O     s    -10.7814 *     5.8810 *    13.7224 *  0.0000     8          
   584  Cl    s     -8.8211 *     3.9207 *    15.6827 *  0.0000     8          
   585  O     s      4.9013 *    17.6430 *    -1.9603 *  0.0000     8          
   586  Cl    s     14.7030 *     7.8414 *     7.8414    0.0000     4          
   587  O     s    -14.7021 *     9.8017 *     5.8810 *  0.0000     8          
   588  O     s      0.9806 *     5.8810 *    17.6430 *  0.0000     8          
   589  O     s     16.6633 *     5.8810 *     5.8810    0.0000     4          
   590  Cl    s     18.6237 *     0.0000       0.0000    0.0000     1          
   591  O     s    -18.6228 *    -1.9603 *    -1.9603    0.0000     4          
   592  Cl    s    -16.6624 *     3.9207 *     7.8414 *  0.0000     8          
   593  Cl    s     -8.8211 *    11.7620 *    11.7620    0.0000     4          
   594  O     s     -2.9401 *     5.8810 *    17.6430 *  0.0000     8          
   595  Cl    s      6.8616 *     7.8414 *    15.6827 *  0.0000     8          
   596  O     s     12.7426 *    -1.9603 *    13.7224 *  0.0000     8          
   597  O     s     12.7426 *     9.8017 *     9.8017    0.0000     4          
   598  Cl    s     14.7030 *     0.0000      11.7620 *  0.0000     4          
   599  Cl    s    -12.7417 *     7.8414 *    11.7620 *  0.0000     8          
   600  O     s     -6.8607 *    17.6430 *    -1.9603 *  0.0000     8          
   601  O     s      8.8220 *     9.8017 *    13.7224 *  0.0000     8          
   602  Cl    s     10.7823 *     0.0000      15.6827 *  0.0000     4          
   603  Cl    s     18.6237 *     0.0000       3.9207 *  0.0000     4          
   604  O     s      4.9013 *     5.8810 *    17.6430 *  0.0000     8          
   605  Cl    s     14.7030 *     3.9207 *    11.7620 *  0.0000     8          
   606  O     s      0.9806 *    13.7224 *    13.7224    0.0000     4          
   607  Cl    s     10.7823 *     3.9207 *    15.6827 *  0.0000     8          
   608  O     s     16.6633 *    -1.9603 *     9.8017 *  0.0000     8          
   609  Cl    s     18.6237 *     3.9207 *     3.9207    0.0000     4          
   610  O     s    -18.6228 *     5.8810 *    -1.9603 *  0.0000     8          
   611  Cl    s     -8.8211 *     7.8414 *    15.6827 *  0.0000     8          
   612  O     s     -2.9401 *    13.7224 *    13.7224    0.0000     4          
   613  Cl    s     -0.9797 *    11.7620 *    15.6827 *  0.0000     8          
   614  Cl    s     -0.9797 *     0.0000      19.6034 *  0.0000     4          
   615  O     s     12.7426 *     5.8810 *    13.7224 *  0.0000     8          
   616  O     s     -6.8607 *    17.6430 *     5.8810 *  0.0000     8          
   617  Cl    s      2.9410 *    11.7620 *    15.6827 *  0.0000     8          
   618  Cl    s      2.9410 *     0.0000      19.6034 *  0.0000     4          
   619  O     s      8.8220 *    17.6430 *    -1.9603 *  0.0000     8          
   620  Cl    s     10.7823 *    11.7620 *    11.7620    0.0000     4          
--------------------------------------------------------------------------------


  Constraints on symmetry reduced coordinates :

--------------------------------------------------------------------------------
  Constraint no.      Unconstrained     Constrained    Coefficient    
                         Variable         Variable
--------------------------------------------------------------------------------
           1                 3 y             3 z         1.00000
           2                 4 y             4 z         1.00000
           3                 6 y             6 z         1.00000
           4                 8 y             8 z         1.00000
           5                14 y            14 z         1.00000
           6                15 y            15 z         1.00000
           7                16 y            16 z         1.00000
           8                21 y            21 z         1.00000
           9                29 y            29 z         1.00000
          10                30 y            30 z         1.00000
          11                31 y            31 z         1.00000
          12                40 y            40 z         1.00000
          13                41 y            41 z         1.00000
          14                46 y            46 z         1.00000
          15                48 y            48 z         1.00000
          16                49 y            49 z         1.00000
          17                52 y            52 z         1.00000
          18                57 y            57 z         1.00000
          19                60 y            60 z         1.00000
          20                61 y            61 z         1.00000
          21                71 y            71 z         1.00000
          22                79 y            79 z         1.00000
          23                80 y            80 z         1.00000
          24                87 y            87 z         1.00000
          25                89 y            89 z         1.00000
          26                92 y            92 z         1.00000
          27                96 y            96 z         1.00000
          28               108 y           108 z         1.00000
          29               110 y           110 z         1.00000
          30               113 y           113 z         1.00000
          31               114 y           114 z         1.00000
          32               132 y           132 z         1.00000
          33               133 y           133 z         1.00000
          34               134 y           134 z         1.00000
          35               149 y           149 z         1.00000
          36               151 y           151 z         1.00000
          37               155 y           155 z         1.00000
          38               157 y           157 z         1.00000
          39               159 y           159 z         1.00000
          40               165 y           165 z         1.00000
          41               167 y           167 z         1.00000
          42               170 y           170 z         1.00000
          43               186 y           186 z         1.00000
          44               188 y           188 z         1.00000
          45               194 y           194 z         1.00000
          46               199 y           199 z         1.00000
          47               203 y           203 z         1.00000
          48               207 y           207 z         1.00000
          49               215 y           215 z         1.00000
          50               217 y           217 z         1.00000
          51               218 y           218 z         1.00000
          52               226 y           226 z         1.00000
          53               248 y           248 z         1.00000
          54               254 y           254 z         1.00000
          55               262 y           262 z         1.00000
          56               269 y           269 z         1.00000
          57               270 y           270 z         1.00000
          58               271 y           271 z         1.00000
          59               275 y           275 z         1.00000
          60               276 y           276 z         1.00000
          61               277 y           277 z         1.00000
          62               292 y           292 z         1.00000
          63               297 y           297 z         1.00000
          64               299 y           299 z         1.00000
          65               305 y           305 z         1.00000
          66               326 y           326 z         1.00000
          67               347 y           347 z         1.00000
          68               350 y           350 z         1.00000
          69               355 y           355 z         1.00000
          70               363 y           363 z         1.00000
          71               366 y           366 z         1.00000
          72               367 y           367 z         1.00000
          73               372 y           372 z         1.00000
          74               374 y           374 z         1.00000
          75               400 y           400 z         1.00000
          76               401 y           401 z         1.00000
          77               404 y           404 z         1.00000
          78               410 y           410 z         1.00000
          79               413 y           413 z         1.00000
          80               427 y           427 z         1.00000
          81               434 y           434 z         1.00000
          82               435 y           435 z         1.00000
          83               439 y           439 z         1.00000
          84               440 y           440 z         1.00000
          85               443 y           443 z         1.00000
          86               446 y           446 z         1.00000
          87               447 y           447 z         1.00000
          88               451 y           451 z         1.00000
          89               454 y           454 z         1.00000
          90               456 y           456 z         1.00000
          91               460 y           460 z         1.00000
[...]
    540 y         -1.960338     -1.960476    -0.000139    Cartesian    0.01
    540 z          9.801689      9.801620    -0.000068    Cartesian   -0.00
    541 x         -5.881013     -5.878951     0.002062    Cartesian   -0.04
    541 y          5.881013      5.879477    -0.001536    Cartesian   -0.03
    541 z         13.722364     13.720181    -0.002183    Cartesian   -0.02
    542 x         -3.920675     -3.917596     0.003079    Cartesian   -0.08
    542 y          0.000000      0.000000     0.000000    Cartesian    0.00
    542 z         15.682702     15.679203    -0.003499    Cartesian   -0.02
    543 x          3.920675      3.922110     0.001435    Cartesian    0.04
    543 y          3.920675      3.920548    -0.000128    Cartesian   -0.00
    543 z         15.682702     15.680592    -0.002110    Cartesian   -0.01
    544 x          9.801689      9.803405     0.001717    Cartesian    0.02
    544 y         -1.960338     -1.960395    -0.000057    Cartesian    0.00
    544 z         13.722364     13.723394     0.001030    Cartesian    0.01
    545 x          9.801689      9.804088     0.002400    Cartesian    0.02
    545 y          9.801689      9.802515     0.000827    Cartesian    0.01
    545 z          9.801689      9.802515     0.000827    Cartesian    0.01
    546 x         11.762026     11.762147     0.000121    Cartesian    0.00
    546 y          3.920675      3.919751    -0.000925    Cartesian   -0.02
    546 z         11.762026     11.759130    -0.002897    Cartesian   -0.02
    547 x        -15.682702    -15.676683     0.006019    Cartesian   -0.04
    547 y          0.000000      0.000000     0.000000    Cartesian    0.00
    547 z          0.000000      0.000000     0.000000    Cartesian    0.00
    548 x         -7.841351     -7.837202     0.004149    Cartesian   -0.05
    548 y          7.841351      7.838153    -0.003198    Cartesian   -0.04
    548 z         11.762026     11.757646    -0.004380    Cartesian   -0.04
    549 x          0.000000      0.001316     0.001316    Cartesian *******
    549 y         11.762026     11.758854    -0.003172    Cartesian   -0.03
    549 z         11.762026     11.758854    -0.003172    Cartesian   -0.03
    550 x         15.682702     15.680192    -0.002510    Cartesian   -0.02
    550 y          0.000000      0.000000     0.000000    Cartesian    0.00
    550 z          7.841351      7.838451    -0.002900    Cartesian   -0.04
    551 x        -13.722364    -13.718763     0.003601    Cartesian   -0.03
    551 y          5.881013      5.879887    -0.001126    Cartesian   -0.02
    551 z          5.881013      5.879887    -0.001126    Cartesian   -0.02
    552 x        -11.762026    -11.756116     0.005911    Cartesian   -0.05
    552 y          7.841351      7.838058    -0.003293    Cartesian   -0.04
    552 z          7.841351      7.838058    -0.003293    Cartesian   -0.04
    553 x         -3.920675     -3.917669     0.003007    Cartesian   -0.08
    553 y          3.920675      3.919021    -0.001654    Cartesian   -0.04
    553 z         15.682702     15.678764    -0.003938    Cartesian   -0.03
    554 x          1.960338      1.960973     0.000635    Cartesian    0.03
    554 y          9.801689      9.801578    -0.000111    Cartesian   -0.00
    554 z         13.722364     13.722353    -0.000011    Cartesian   -0.00
    555 x          3.920675      3.922272     0.001597    Cartesian    0.04
    555 y         11.762026     11.760155    -0.001871    Cartesian   -0.02
    555 z         11.762026     11.760155    -0.001871    Cartesian   -0.02
    556 x         17.643040     17.644053     0.001013    Cartesian    0.01
    556 y         -1.960338     -1.960313     0.000025    Cartesian   -0.00
    556 z         -1.960338     -1.960313     0.000025    Cartesian   -0.00
    557 x        -15.682702    -15.676649     0.006053    Cartesian   -0.04
    557 y          0.000000      0.000000     0.000000    Cartesian    0.00
    557 z          3.920675      3.918821    -0.001854    Cartesian   -0.05
    558 x         -1.960338     -1.960379    -0.000041    Cartesian    0.00
    558 y          9.801689      9.801075    -0.000614    Cartesian   -0.01
    558 z         13.722364     13.721756    -0.000609    Cartesian   -0.00
    559 x          7.841351      7.841237    -0.000114    Cartesian   -0.00
    559 y          0.000000      0.000000     0.000000    Cartesian    0.00
    559 z         15.682702     15.679732    -0.002970    Cartesian   -0.02
    560 x         13.722364     13.723667     0.001303    Cartesian    0.01
    560 y          5.881013      5.881288     0.000275    Cartesian    0.00
    560 z          9.801689      9.801802     0.000113    Cartesian    0.00
    561 x         15.682702     15.680748    -0.001954    Cartesian   -0.01
    561 y          3.920675      3.920029    -0.000647    Cartesian   -0.02
    561 z          7.841351      7.838911    -0.002440    Cartesian   -0.03
    562 x        -11.762026    -11.757301     0.004725    Cartesian   -0.04
    562 y          0.000000      0.000000     0.000000    Cartesian    0.00
    562 z         11.762026     11.758474    -0.003552    Cartesian   -0.03
    563 x         -3.920675     -3.919323     0.001352    Cartesian   -0.03
    563 y         11.762026     11.759163    -0.002864    Cartesian   -0.02
    563 z         11.762026     11.759163    -0.002864    Cartesian   -0.02
    564 x          9.801689      9.803223     0.001534    Cartesian    0.02
    564 y          5.881013      5.881681     0.000668    Cartesian    0.01
    564 z         13.722364     13.723461     0.001097    Cartesian    0.01
    565 x        -15.682702    -15.676914     0.005788    Cartesian   -0.04
    565 y          3.920675      3.919691    -0.000985    Cartesian   -0.03
    565 z          3.920675      3.919691    -0.000985    Cartesian   -0.03
    566 x         -9.801689     -9.800269     0.001420    Cartesian   -0.01
    566 y         -1.960338     -1.959881     0.000457    Cartesian   -0.02
    566 z         13.722364     13.720912    -0.001452    Cartesian   -0.01
    567 x         -9.801689     -9.799523     0.002165    Cartesian   -0.02
    567 y          9.801689      9.799914    -0.001774    Cartesian   -0.02
    567 z          9.801689      9.799914    -0.001774    Cartesian   -0.02
    568 x          0.000000      0.001055     0.001055    Cartesian *******
    568 y          7.841351      7.840476    -0.000875    Cartesian   -0.01
    568 z         15.682702     15.680385    -0.002317    Cartesian   -0.01
    569 x          5.881013      5.882366     0.001353    Cartesian    0.02
    569 y          9.801689      9.802419     0.000730    Cartesian    0.01
    569 z         13.722364     13.723312     0.000948    Cartesian    0.01
    570 x          7.841351      7.842216     0.000865    Cartesian    0.01
    570 y          3.920675      3.920676     0.000001    Cartesian    0.00
    570 z         15.682702     15.680438    -0.002264    Cartesian   -0.01
    571 x        -13.722364    -13.720198     0.002166    Cartesian   -0.02
    571 y          9.801689      9.800766    -0.000923    Cartesian   -0.01
    571 z         -1.960338     -1.959930     0.000408    Cartesian   -0.02
    572 x        -11.762026    -11.757682     0.004345    Cartesian   -0.04
    572 y          3.920675      3.918905    -0.001771    Cartesian   -0.05
    572 z         11.762026     11.758523    -0.003504    Cartesian   -0.03
    573 x          1.960338      1.960766     0.000428    Cartesian    0.02
    573 y         -1.960338     -1.961235    -0.000897    Cartesian    0.05
    573 z         17.643040     17.643467     0.000428    Cartesian    0.00
    574 x          3.920675      3.921378     0.000703    Cartesian    0.02
    574 y          7.841351      7.840834    -0.000517    Cartesian   -0.01
    574 z         15.682702     15.680879    -0.001823    Cartesian   -0.01
    575 x         11.762026     11.762535     0.000509    Cartesian    0.00
    575 y          7.841351      7.839869    -0.001482    Cartesian   -0.02
    575 z         11.762026     11.760036    -0.001990    Cartesian   -0.02
    576 x         17.643040     17.644150     0.001110    Cartesian    0.01
    576 y          5.881013      5.881801     0.000788    Cartesian    0.01
    576 z         -1.960338     -1.960344    -0.000007    Cartesian    0.00
    577 x         -7.841351     -7.839191     0.002160    Cartesian   -0.03
    577 y          0.000000      0.000000     0.000000    Cartesian    0.00
    577 z         15.682702     15.679202    -0.003500    Cartesian   -0.02
    578 x         -1.960338     -1.960206     0.000132    Cartesian   -0.01
    578 y         17.643040     17.643290     0.000251    Cartesian    0.00
    578 z         -1.960338     -1.960514    -0.000177    Cartesian    0.01
    579 x          7.841351      7.842038     0.000687    Cartesian    0.01
    579 y         11.762026     11.760930    -0.001096    Cartesian   -0.01
    579 z         11.762026     11.760930    -0.001096    Cartesian   -0.01
    580 x         -5.881013     -5.880522     0.000491    Cartesian   -0.01
    580 y          9.801689      9.801437    -0.000252    Cartesian   -0.00
    580 z         13.722364     13.721757    -0.000607    Cartesian   -0.00
    581 x         -3.920675     -3.918848     0.001828    Cartesian   -0.05
    581 y          7.841351      7.840295    -0.001056    Cartesian   -0.01
    581 z         15.682702     15.679638    -0.003064    Cartesian   -0.02
    582 x        -15.682702    -15.677810     0.004892    Cartesian   -0.03
    582 y          0.000000      0.000000     0.000000    Cartesian    0.00
    582 z          7.841351      7.839979    -0.001372    Cartesian   -0.02
    583 x         -9.801689     -9.800998     0.000691    Cartesian   -0.01
    583 y          5.881013      5.880080    -0.000933    Cartesian   -0.02
    583 z         13.722364     13.721302    -0.001062    Cartesian   -0.01
    584 x         -7.841351     -7.839379     0.001972    Cartesian   -0.03
    584 y          3.920675      3.919341    -0.001334    Cartesian   -0.03
    584 z         15.682702     15.679052    -0.003650    Cartesian   -0.02
    585 x          5.881013      5.881688     0.000675    Cartesian    0.01
    585 y         17.643040     17.642835    -0.000204    Cartesian   -0.00
    585 z         -1.960338     -1.960702    -0.000364    Cartesian    0.02
    586 x         15.682702     15.681214    -0.001488    Cartesian   -0.01
    586 y          7.841351      7.839721    -0.001630    Cartesian   -0.02
    586 z          7.841351      7.839721    -0.001630    Cartesian   -0.02
    587 x        -13.722364    -13.720465     0.001899    Cartesian   -0.01
    587 y          9.801689      9.800519    -0.001169    Cartesian   -0.01
    587 z          5.881013      5.880263    -0.000750    Cartesian   -0.01
    588 x          1.960338      1.960595     0.000257    Cartesian    0.01
    588 y          5.881013      5.881300     0.000287    Cartesian    0.00
    588 z         17.643040     17.642727    -0.000313    Cartesian   -0.00
    589 x         17.643040     17.643517     0.000478    Cartesian    0.00
    589 y          5.881013      5.881050     0.000036    Cartesian    0.00
    589 z          5.881013      5.881050     0.000036    Cartesian    0.00
    590 x         19.603377     19.600152    -0.003226    Cartesian   -0.02
    590 y          0.000000      0.000000     0.000000    Cartesian    0.00
    590 z          0.000000      0.000000     0.000000    Cartesian    0.00
    591 x        -17.643040    -17.640756     0.002283    Cartesian   -0.01
    591 y         -1.960338     -1.960142     0.000196    Cartesian   -0.01
    591 z         -1.960338     -1.960142     0.000196    Cartesian   -0.01
    592 x        -15.682702    -15.677584     0.005118    Cartesian   -0.03
    592 y          3.920675      3.919711    -0.000964    Cartesian   -0.02
    592 z          7.841351      7.839404    -0.001947    Cartesian   -0.02
    593 x         -7.841351     -7.839012     0.002339    Cartesian   -0.03
    593 y         11.762026     11.758802    -0.003225    Cartesian   -0.03
    593 z         11.762026     11.758802    -0.003225    Cartesian   -0.03
    594 x         -1.960338     -1.959972     0.000365    Cartesian   -0.02
    594 y          5.881013      5.880821    -0.000192    Cartesian   -0.00
    594 z         17.643040     17.642297    -0.000743    Cartesian   -0.00
    595 x          7.841351      7.841814     0.000463    Cartesian    0.01
    595 y          7.841351      7.840593    -0.000758    Cartesian   -0.01
    595 z         15.682702     15.680381    -0.002321    Cartesian   -0.01
    596 x         13.722364     13.722454     0.000090    Cartesian    0.00
    596 y         -1.960338     -1.960223     0.000115    Cartesian   -0.01
    596 z         13.722364     13.721441    -0.000923    Cartesian   -0.01
    597 x         13.722364     13.723380     0.001015    Cartesian    0.01
    597 y          9.801689      9.801548    -0.000141    Cartesian   -0.00
    597 z          9.801689      9.801548    -0.000141    Cartesian   -0.00
    598 x         15.682702     15.680935    -0.001767    Cartesian   -0.01
    598 y          0.000000      0.000000     0.000000    Cartesian    0.00
    598 z         11.762026     11.759326    -0.002700    Cartesian   -0.02
    599 x        -11.762026    -11.757707     0.004319    Cartesian   -0.04
    599 y          7.841351      7.839076    -0.002275    Cartesian   -0.03
    599 z         11.762026     11.758377    -0.003650    Cartesian   -0.03
    600 x         -5.881013     -5.880506     0.000508    Cartesian   -0.01
    600 y         17.643040     17.641848    -0.001192    Cartesian   -0.01
    600 z         -1.960338     -1.960094     0.000243    Cartesian   -0.01
    601 x          9.801689      9.801402    -0.000286    Cartesian   -0.00
    601 y          9.801689      9.800811    -0.000878    Cartesian   -0.01
    601 z         13.722364     13.721252    -0.001113    Cartesian   -0.01
    602 x         11.762026     11.762044     0.000018    Cartesian    0.00
    602 y          0.000000      0.000000     0.000000    Cartesian    0.00
    602 z         15.682702     15.679051    -0.003651    Cartesian   -0.02
    603 x         19.603377     19.599500    -0.003878    Cartesian   -0.02
    603 y          0.000000      0.000000     0.000000    Cartesian    0.00
    603 z          3.920675      3.919721    -0.000955    Cartesian   -0.02
    604 x          5.881013      5.881449     0.000436    Cartesian    0.01
    604 y          5.881013      5.881299     0.000286    Cartesian    0.00
    604 z         17.643040     17.643131     0.000091    Cartesian    0.00
    605 x         15.682702     15.680592    -0.002110    Cartesian   -0.01
    605 y          3.920675      3.919507    -0.001168    Cartesian   -0.03
    605 z         11.762026     11.758840    -0.003187    Cartesian   -0.03
    606 x          1.960338      1.960530     0.000192    Cartesian    0.01
    606 y         13.722364     13.721544    -0.000820    Cartesian   -0.01
    606 z         13.722364     13.721544    -0.000820    Cartesian   -0.01
    607 x         11.762026     11.760895    -0.001132    Cartesian   -0.01
    607 y          3.920675      3.919654    -0.001021    Cartesian   -0.03
    607 z         15.682702     15.678946    -0.003756    Cartesian   -0.02
    608 x         17.643040     17.642120    -0.000919    Cartesian   -0.01
    608 y         -1.960338     -1.960257     0.000081    Cartesian   -0.00
    608 z          9.801689      9.800665    -0.001024    Cartesian   -0.01
    609 x         19.603377     19.598721    -0.004656    Cartesian   -0.02
    609 y          3.920675      3.919691    -0.000985    Cartesian   -0.03
    609 z          3.920675      3.919691    -0.000985    Cartesian   -0.03
    610 x        -17.643040    -17.640538     0.002502    Cartesian   -0.01
    610 y          5.881013      5.880116    -0.000897    Cartesian   -0.02
    610 z         -1.960338     -1.960189     0.000149    Cartesian   -0.01
    611 x         -7.841351     -7.838768     0.002583    Cartesian   -0.03
    611 y          7.841351      7.839151    -0.002200    Cartesian   -0.03
    611 z         15.682702     15.677963    -0.004739    Cartesian   -0.03
    612 x         -1.960338     -1.959493     0.000845    Cartesian   -0.04
    612 y         13.722364     13.720439    -0.001925    Cartesian   -0.01
    612 z         13.722364     13.720439    -0.001925    Cartesian   -0.01
    613 x          0.000000      0.000912     0.000912    Cartesian *******
    613 y         11.762026     11.759080    -0.002946    Cartesian   -0.03
    613 z         15.682702     15.678488    -0.004214    Cartesian   -0.03
    614 x          0.000000      0.001026     0.001026    Cartesian *******
    614 y          0.000000      0.000000     0.000000    Cartesian    0.00
    614 z         19.603377     19.598325    -0.005053    Cartesian   -0.03
    615 x         13.722364     13.721276    -0.001089    Cartesian   -0.01
    615 y          5.881013      5.879858    -0.001155    Cartesian   -0.02
    615 z         13.722364     13.720730    -0.001635    Cartesian   -0.01
    616 x         -5.881013     -5.879779     0.001234    Cartesian   -0.02
    616 y         17.643040     17.640411    -0.002628    Cartesian   -0.01
    616 z          5.881013      5.879880    -0.001133    Cartesian   -0.02
    617 x          3.920675      3.920335    -0.000340    Cartesian   -0.01
    617 y         11.762026     11.759248    -0.002778    Cartesian   -0.02
    617 z         15.682702     15.678480    -0.004222    Cartesian   -0.03
    618 x          3.920675      3.920604    -0.000072    Cartesian   -0.00
    618 y          0.000000      0.000000     0.000000    Cartesian    0.00
    618 z         19.603377     19.597313    -0.006064    Cartesian   -0.03
    619 x          9.801689      9.801044    -0.000645    Cartesian   -0.01
    619 y         17.643040     17.641016    -0.002024    Cartesian   -0.01
    619 z         -1.960338     -1.959711     0.000627    Cartesian   -0.03
    620 x         11.762026     11.760519    -0.001508    Cartesian   -0.01
    620 y         11.762026     11.758642    -0.003384    Cartesian   -0.03
    620 z         11.762026     11.758642    -0.003384    Cartesian   -0.03
--------------------------------------------------------------------------------


  Time to end of optimisation  =       84.5679 seconds


  Peak dynamic memory used =    1718.30 MB 


  Timing analysis for GULP :

--------------------------------------------------------------------------------
  Task / Subroutine                                          Time (Seconds)
--------------------------------------------------------------------------------
  Calculation of reciprocal space energy and derivatives          0.0002
  Calculation of reciprocal space energy using symmetry           0.0003
  Calculation of real space energy and derivatives                0.0016
  Calculation of real space energy using symmetry                 0.0034
  Calculation for region 1 energy and derivatives (2-b)          44.5824
  Calculation for region 2a energy                               11.5209
  Calculation for region 2b energy                                0.0021
  Calculation and manipulation of Hessian matrix                 25.3740
  Calculation of matrix inversion                                 2.2454
  Symmetry generation of equivalent positions                     0.0017
--------------------------------------------------------------------------------
  Total CPU time                                                 84.5679
--------------------------------------------------------------------------------


  Dump file written as Li3OCl.grs


  Job Finished at 13:09.51 21st October    2020                               

