********************************************************************************
*                       GENERAL UTILITY LATTICE PROGRAM                        *
*                                 Julian Gale                                  *
*                       Curtin Institute for Computation                       *
*                    School of Molecular and Life Sciences                     *
*                    Curtin University, Western Australia                      *
********************************************************************************
* Version = 5.2.0 * Last modified =  10th September 2020                       *
********************************************************************************
*  optimise     - perform optimisation run                                     *
*  conp         - constant pressure calculation                                *
*  property     - calculate properties for final geometry                      *
*  defect       - perform defect calculation after bulk run                    *
*  compare      - compare initial and final structures                         *
********************************************************************************

  Job Started  at 13:09.51 21st October    2020                               

  Number of CPUs =     1


  Total number of configurations input =      1

********************************************************************************
*  Input for Configuration =   1                                               *
********************************************************************************

  Formula = ClOLi3                                                      

  Number of irreducible atoms/shells =       5


  Total number atoms/shells =       7

  Dimensionality = 3               :  Bulk   


  Symmetry :

  Crystal family                   :  Cubic       
  Crystal class  (Groth - 1921)    :  Cubic Hexakisoctahedral              

  Space group (centrosymmetric)    :  P M 3 M         

  Patterson group                  :  P m -3 m 

  Cartesian lattice vectors (Angstroms) :

        3.918873    0.000000    0.000000
        0.000000    3.918873    0.000000
        0.000000    0.000000    3.918873

  Cell parameters (Angstroms/Degrees):

  a =       3.9189    alpha =  90.0000
  b =       3.9189    beta  =  90.0000
  c =       3.9189    gamma =  90.0000

  Initial cell volume =          60.184349 Angs**3

  Temperature of configuration =   0.00     K 

  Pressure of configuration =         0.000 GPa 

  Fractional coordinates of asymmetric unit :

--------------------------------------------------------------------------------
   No.  Atomic       x           y          z         Charge      Occupancy
        Label      (Frac)      (Frac)     (Frac)        (e)         (Frac)  
--------------------------------------------------------------------------------
      1 Cl    c    0.000000    0.000000    0.000000     1.48500    1.000000    
      2 O     c    0.500000    0.500000    0.500000     0.18300    1.000000    
      3 Li    c    0.500000    0.500000    0.000000     1.00000    1.000000    
      4 Cl    s    0.000000    0.000000    0.000000    -2.48500    1.000000    
      5 O     s    0.500000    0.500000    0.500000    -2.18300    1.000000    
--------------------------------------------------------------------------------


  Constraints : 

--------------------------------------------------------------------------------
  Constraint no.      Unconstrained     Constrained    Coefficient    Offset
                         Variable         Variable
--------------------------------------------------------------------------------
           1              Strain 1        Strain 2       1.00000      0.0000
           2              Strain 1        Strain 3       1.00000      0.0000
--------------------------------------------------------------------------------


********************************************************************************
*  General input information                                                   *
********************************************************************************

  Species output for all configurations : 

--------------------------------------------------------------------------------
  Species    Type    Atomic    Atomic    Charge       Radii (Angs)     Library
                     Number     Mass       (e)     Cova   Ionic  VDW   Symbol
--------------------------------------------------------------------------------
    Li       Core        3       6.94   1.000000   0.680  0.000  1.800          
    O        Core        8      16.00   0.183000   0.730  0.000  1.360          
    O        Shell       8       0.00  -2.183000   0.730  0.000  1.360          
    Cl       Core       17      35.45   1.485000   0.990  0.000  1.650          
    Cl       Shell      17       0.00  -2.485000   0.990  0.000  1.650          
--------------------------------------------------------------------------------


  Lattice summation method               =    Ewald          (3-D)
                                         =    Parry          (2-D)
                                         =    Saunders et al (1-D)
  Accuracy factor for lattice sums       =   12.000


  Analytic derivatives to be used

  Time limit = Infinity

  Maximum range for interatomic potentials =    100000.000000 Angstroms

  General interatomic potentials :

--------------------------------------------------------------------------------
Atom  Types   Potential      Parameter       Value         Units   Cutoffs(Ang)
  1     2                                                            Min /  Max 
--------------------------------------------------------------------------------
O    c O    s Spring (c-s)  Spring k 2       593.72000    eV*Ang^-2 0.000  0.800
                            Spring k 4       0.0000000    eV*Ang^-4 
--------------------------------------------------------------------------------
Cl   c Cl   s Spring (c-s)  Spring k 2       29.380000    eV*Ang^-2 0.000  0.800
                            Spring k 4       0.0000000    eV*Ang^-4 
--------------------------------------------------------------------------------
Li   c Li   c Buckingham    Buckingham A     360.53000    eV        0.000 12.000
                            Buckingham rho  0.16100000    Ang       
                            Buckingham C     0.0000000    eV*Ang^6  
--------------------------------------------------------------------------------
Li   c O    s Buckingham    Buckingham A     292.30000    eV        0.000 12.000
                            Buckingham rho  0.34720000    Ang       
                            Buckingham C     0.0000000    eV*Ang^6  
--------------------------------------------------------------------------------
Li   c Cl   s Buckingham    Buckingham A     421.04000    eV        0.000 12.000
                            Buckingham rho  0.33400000    Ang       
                            Buckingham C     0.0000000    eV*Ang^6  
--------------------------------------------------------------------------------
O    s O    s Buckingham    Buckingham A     22764.300    eV        0.000 12.000
                            Buckingham rho  0.14900000    Ang       
                            Buckingham C     13.190000    eV*Ang^6  
--------------------------------------------------------------------------------
O    s Cl   s Buckingham    Buckingham A     8286.9100    eV        0.000 12.000
                            Buckingham rho  0.25900000    Ang       
                            Buckingham C     62.200000    eV*Ang^6  
--------------------------------------------------------------------------------
Cl   s Cl   s Buckingham    Buckingham A     1227.2000    eV        0.000 12.000
                            Buckingham rho  0.32100000    Ang       
                            Buckingham C     14.530000    eV*Ang^6  
--------------------------------------------------------------------------------

********************************************************************************
*  Output for configuration   1                                                *
********************************************************************************


  Components of energy : 

--------------------------------------------------------------------------------
  Interatomic potentials     =           7.26836263 eV    
  Monopole - monopole (real) =         -11.53475722 eV    
  Monopole - monopole (recip)=         -33.94580548 eV    
  Monopole - monopole (total)=         -45.48056271 eV    
--------------------------------------------------------------------------------
  Total lattice energy       =         -38.21220008 eV    
--------------------------------------------------------------------------------
  Total lattice energy       =           -3686.8932 kJ/(mole unit cells)
--------------------------------------------------------------------------------


  Number of variables =        1

  Maximum number of calculations  =          1000
  Maximum Hessian update interval =            10
  Maximum step size               =   1.000000000
  Maximum parameter tolerance     =   0.000010000
  Maximum function  tolerance     =   0.000010000
  Maximum gradient  tolerance     =   0.001000000
  Maximum gradient  component     =   0.010000000

  Symmetry constrained optimisation

  Symmetry used for second derivatives

  Cell parameters to be optimised using strains

  Newton-Raphson optimiser to be used

  BFGS hessian update to be used

  Lower half triangular hessian to be used

  Start of bulk optimisation :

  Cycle:      0 Energy:       -38.212200  Gnorm:      0.095699  CPU:    0.005
  ** Hessian calculated **
  Cycle:      1 Energy:       -38.212222  Gnorm:      0.000105  CPU:    0.007


  **** Optimisation achieved ****


  Final energy =     -38.21222207 eV
  Final Gnorm  =       0.00000016

  Components of energy : 

--------------------------------------------------------------------------------
  Interatomic potentials     =           7.24743141 eV    
  Monopole - monopole (real) =         -11.52945423 eV    
  Monopole - monopole (recip)=         -33.93019924 eV    
  Monopole - monopole (total)=         -45.45965348 eV    
--------------------------------------------------------------------------------
  Total lattice energy       =         -38.21222207 eV    
--------------------------------------------------------------------------------
  Total lattice energy       =           -3686.8953 kJ/(mole unit cells)
--------------------------------------------------------------------------------

  Final asymmetric unit coordinates :

--------------------------------------------------------------------------------
   No.  Atomic        x           y           z         Radius
        Label       (Frac)      (Frac)      (Frac)       (Angs) 
--------------------------------------------------------------------------------
     1  Cl    c     0.000000    0.000000    0.000000    0.000000
     2  O     c     0.500000    0.500000    0.500000    0.000000
     3  Li    c     0.500000    0.500000    0.000000    0.000000
     4  Cl    s     0.000000    0.000000    0.000000    0.000000
     5  O     s     0.500000    0.500000    0.500000    0.000000
--------------------------------------------------------------------------------

  Final Cartesian lattice vectors (Angstroms) :

        3.920675    0.000000    0.000000
        0.000000    3.920675    0.000000
        0.000000    0.000000    3.920675


  Final cell parameters and derivatives :

--------------------------------------------------------------------------------
       a            3.920675 Angstrom     dE/de1(xx)    -0.000000 eV/strain
       b            3.920675 Angstrom     dE/de2(yy)     0.000000 eV/strain
       c            3.920675 Angstrom     dE/de3(zz)     0.000000 eV/strain
       alpha       90.000000 Degrees      dE/de4(yz)     0.000000 eV/strain
       beta        90.000000 Degrees      dE/de5(xz)     0.000000 eV/strain
       gamma       90.000000 Degrees      dE/de6(xy)     0.000000 eV/strain
--------------------------------------------------------------------------------

  Primitive cell volume =            60.267433 Angs**3

  Density of cell =      1.991276 g/cm**3

  Non-primitive cell volume =            60.267433 Angs**3


  Final internal derivatives :

--------------------------------------------------------------------------------
   No.  Atomic          a             b             c           Radius
        Label          (eV)          (eV)          (eV)        (eV/Angs)
--------------------------------------------------------------------------------
      1 Cl    c       0.000000      0.000000      0.000000      0.000000
      2 O     c       0.000000      0.000000      0.000000      0.000000
      3 Li    c       0.000000      0.000000      0.000000      0.000000
      4 Cl    s       0.000000      0.000000      0.000000      0.000000
      5 O     s       0.000000      0.000000      0.000000      0.000000
--------------------------------------------------------------------------------
  Maximum abs         0.000000      0.000000      0.000000      0.000000
--------------------------------------------------------------------------------

  Comparison of initial and final structures : 

--------------------------------------------------------------------------------
  Parameter   Initial value   Final value   Difference    Units      Percent
--------------------------------------------------------------------------------
    Volume        60.184349     60.267433     0.083084    Angs**3      0.14
    a              3.918873      3.920675     0.001802    Angstroms    0.05
    b              3.918873      3.920675     0.001802    Angstroms    0.05
    c              3.918873      3.920675     0.001802    Angstroms    0.05
    alpha         90.000000     90.000000     0.000000    Degrees      0.00
    beta          90.000000     90.000000     0.000000    Degrees      0.00
    gamma         90.000000     90.000000     0.000000    Degrees      0.00
      1 x          0.000000      0.000000     0.000000    Fractional   0.00
      1 y          0.000000      0.000000     0.000000    Fractional   0.00
      1 z          0.000000      0.000000     0.000000    Fractional   0.00
      2 x          0.500000      0.500000     0.000000    Fractional   0.00
      2 y          0.500000      0.500000     0.000000    Fractional   0.00
      2 z          0.500000      0.500000     0.000000    Fractional   0.00
      3 x          0.500000      0.500000     0.000000    Fractional   0.00
      3 y          0.500000      0.500000     0.000000    Fractional   0.00
      3 z          0.000000      0.000000     0.000000    Fractional   0.00
      4 x          0.000000      0.000000     0.000000    Fractional   0.00
      4 y          0.000000      0.000000     0.000000    Fractional   0.00
      4 z          0.000000      0.000000     0.000000    Fractional   0.00
      5 x          0.500000      0.500000     0.000000    Fractional   0.00
      5 y          0.500000      0.500000     0.000000    Fractional   0.00
      5 z          0.500000      0.500000     0.000000    Fractional   0.00
--------------------------------------------------------------------------------


  Born effective charge tensors : 

-------------------------------------------------------------------------------
  Atom             x           y             z
-------------------------------------------------------------------------------
    1 Cl    x      -0.9489     -0.0000     -0.0000
            y      -0.0000     -0.9489     -0.0000
            z      -0.0000     -0.0000     -0.9489
-------------------------------------------------------------------------------
    2 O     x      -2.4688      0.0000      0.0000
            y       0.0000     -2.4688      0.0000
            z       0.0000      0.0000     -2.4688
-------------------------------------------------------------------------------
    3 Li    x       1.3129      0.0000     -0.0000
            y       0.0000      1.3129      0.0000
            z      -0.0000      0.0000      0.7919
-------------------------------------------------------------------------------




  Elastic Constant Matrix: (Units=GPa)

-------------------------------------------------------------------------------
  Indices      1         2         3         4         5         6    
-------------------------------------------------------------------------------
       1     94.3368   44.9178   44.9178    0.0000   -0.0000    0.0000
       2     44.9178   94.3368   44.9178   -0.0000    0.0000   -0.0000
       3     44.9178   44.9178   94.3368    0.0000   -0.0000    0.0000
       4      0.0000   -0.0000    0.0000   44.9178   -0.0000    0.0000
       5     -0.0000    0.0000   -0.0000   -0.0000   44.9178    0.0000
       6      0.0000   -0.0000    0.0000    0.0000    0.0000   44.9178
-------------------------------------------------------------------------------


  Elastic Compliance Matrix: (Units=1/GPa)

-------------------------------------------------------------------------------
  Indices      1         2         3         4         5         6    
-------------------------------------------------------------------------------
       1    0.015300 -0.004935 -0.004935 -0.000000  0.000000 -0.000000
       2   -0.004935  0.015300 -0.004935  0.000000 -0.000000  0.000000
       3   -0.004935 -0.004935  0.015300 -0.000000  0.000000 -0.000000
       4   -0.000000  0.000000 -0.000000  0.022263  0.000000 -0.000000
       5    0.000000 -0.000000  0.000000  0.000000  0.022263 -0.000000
       6   -0.000000  0.000000 -0.000000 -0.000000 -0.000000  0.022263
-------------------------------------------------------------------------------

  Mechanical properties :

-------------------------------------------------------------------------------
  Convention :                    Reuss         Voigt         Hill
-------------------------------------------------------------------------------
  Bulk  Modulus (GPa)     =      61.39080      61.39080      61.39080
  Shear Modulus (GPa)     =      33.84570      36.83448      35.34009
-------------------------------------------------------------------------------
  Velocity S-wave (km/s)  =       4.12274       4.30092       4.21277
  Velocity P-wave (km/s)  =       7.31386       7.44942       7.38195
-------------------------------------------------------------------------------
  Compressibility (1/GPa) =    0.01628909
-------------------------------------------------------------------------------
  Stress axis :                     x             y             z
-------------------------------------------------------------------------------
  Youngs Moduli (GPa)     =      65.35947      65.35947      65.35947
-------------------------------------------------------------------------------
  Poissons Ratio (x)      =                     0.32256       0.32256
  Poissons Ratio (y)      =       0.32256                     0.32256
  Poissons Ratio (z)      =       0.32256       0.32256
-------------------------------------------------------------------------------


  Piezoelectric Strain Matrix: (Units=C/m**2)

-------------------------------------------------------------------------------
  Indices      1         2         3         4         5         6    
-------------------------------------------------------------------------------
       x    -0.00000   0.00000   0.00000  -0.00000  -0.00000   0.00000
       y    -0.00000   0.00000   0.00000  -0.00000  -0.00000  -0.00000
       z     0.00000   0.00000   0.00000   0.00000  -0.00000  -0.00000
-------------------------------------------------------------------------------


  Piezoelectric Stress Matrix: (Units=10**-11 C/N)

-------------------------------------------------------------------------------
  Indices      1         2         3         4         5         6    
-------------------------------------------------------------------------------
       x    -0.00000   0.00000   0.00000  -0.00000  -0.00000   0.00000
       y    -0.00000   0.00000   0.00000  -0.00000  -0.00000  -0.00000
       z    -0.00000  -0.00000   0.00000   0.00000  -0.00000  -0.00000
-------------------------------------------------------------------------------


  Static dielectric constant tensor : 

-------------------------------------------------------------------------------
              x         y         z
-------------------------------------------------------------------------------
       x    12.11703   0.00000  -0.00000
       y     0.00000  12.11703  -0.00000
       z    -0.00000  -0.00000  12.11703
--------------------------------------------------------------------------------

  High frequency dielectric constant tensor : 

-------------------------------------------------------------------------------
              x         y         z
-------------------------------------------------------------------------------
       x     1.74104   0.00000   0.00000
       y     0.00000   1.74104   0.00000
       z     0.00000   0.00000   1.74104
-------------------------------------------------------------------------------

  Static refractive indices : 

-------------------------------------------------------------------------------
    1 =    3.48095      2 =    3.48095      3 =    3.48095
-------------------------------------------------------------------------------

  High frequency refractive indices : 

-------------------------------------------------------------------------------
    1 =    1.31948      2 =    1.31948      3 =    1.31948
-------------------------------------------------------------------------------


  Time to end of optimisation =       0.0105 seconds

********************************************************************************
*  Defect calculation for configuration   1 :                                  *
********************************************************************************

  Total number of defects =      3

  Total charge on defect  =   1.00

  Defect centre is at   1.1757   0.0000   0.0000  Angs

  Region 1 radius =  20.0000      Number of ions =   3862

  Number of symmetry inequivalent region 1 ions  =    621

  Region 2 radius =  24.0000      Number of ions =   2876

  Number of symmetry inequivalent region 2a ions =    420

  Region 2a mode = 4 : screened electrostatics due to region 1 
                       neglect correction to region 1 forces from 2a
                       region 2a displacements based on defects only

  Region 2a ions will only interact with defects in region 1

  Vacancies:

--------------------------------------------------------------------------------
    Specification type     Symbol/Number         x          y          z
--------------------------------------------------------------------------------
    Cartesian                                0.000000   0.000000   0.000000
    Cartesian                                3.918873   0.000000   0.000000
--------------------------------------------------------------------------------

  Interstitials:

--------------------------------------------------------------------------------
    Specification type     Symbol/Number         x          y          z
--------------------------------------------------------------------------------
    Atom/Cartesian          Cl               1.175662   0.000000   0.000000
--------------------------------------------------------------------------------


  Symmetry reduced region 1 (Relative to defect centre) :

--------------------------------------------------------------------------------
   No.   Atomic       x            y             z       Radius  Multiplicity   
         Label      (Angs)       (Angs)        (Angs)    (Angs)     
--------------------------------------------------------------------------------
     1  Cl    c      0.0000       0.0000       0.0000    0.0000     1    Defect
     2  Li    c      0.7847 *    -1.9603 *     0.0000    0.0000     4          
     3  O     c      0.7847 *    -1.9603 *    -1.9603    0.0000     4          
     4  Li    c     -1.1757 *    -1.9603 *    -1.9603    0.0000     4          
     5  Li    c     -3.1360 *    -1.9603 *     0.0000    0.0000     4          
     6  Li    c      2.7450 *    -1.9603 *    -1.9603    0.0000     4          
     7  Cl    c     -1.1757 *     0.0000       3.9207 *  0.0000     4          
     8  O     c     -3.1360 *    -1.9603 *    -1.9603    0.0000     4          
     9  Li    c      0.7847 *    -1.9603 *     3.9207 *  0.0000     8          
    10  Cl    c      2.7450 *     0.0000       3.9207 *  0.0000     4          
    11  Cl    c     -5.0963 *     0.0000       0.0000    0.0000     1          
    12  Li    c      4.7054 *    -1.9603 *     0.0000    0.0000     4          
    13  Li    c     -3.1360 *    -1.9603 *     3.9207 *  0.0000     8          
    14  O     c      4.7054 *    -1.9603 *    -1.9603    0.0000     4          
    15  Cl    c     -1.1757 *     3.9207 *     3.9207    0.0000     4          
    16  Li    c     -5.0963 *    -1.9603 *    -1.9603    0.0000     4          
    17  Li    c      0.7847 *     5.8810 *     0.0000    0.0000     4          
    18  Cl    c      2.7450 *     3.9207 *     3.9207    0.0000     4          
    19  O     c      0.7847 *    -1.9603 *     5.8810 *  0.0000     8          
    20  Li    c     -1.1757 *    -1.9603 *     5.8810 *  0.0000     8          
    21  Cl    c     -5.0963 *     0.0000       3.9207 *  0.0000     4          
    22  Li    c      4.7054 *    -1.9603 *     3.9207 *  0.0000     8          
    23  Li    c     -3.1360 *     5.8810 *     0.0000    0.0000     4          
    24  Cl    c      6.6657 *     0.0000       0.0000    0.0000     1          
    25  Li    c      2.7450 *    -1.9603 *     5.8810 *  0.0000     8          
    26  O     c     -3.1360 *     5.8810 *    -1.9603 *  0.0000     8          
    27  Li    c      0.7847 *     5.8810 *     3.9207 *  0.0000     8          
    28  Li    c      6.6657 *    -1.9603 *    -1.9603    0.0000     4          
    29  Li    c     -7.0567 *    -1.9603 *     0.0000    0.0000     4          
    30  Cl    c     -5.0963 *     3.9207 *     3.9207    0.0000     4          
    31  Li    c      4.7054 *     5.8810 *     0.0000    0.0000     4          
    32  O     c     -7.0567 *    -1.9603 *    -1.9603    0.0000     4          
    33  Li    c     -3.1360 *     5.8810 *     3.9207 *  0.0000     8          
    34  Cl    c      6.6657 *     0.0000       3.9207 *  0.0000     4          
    35  O     c      4.7054 *    -1.9603 *     5.8810 *  0.0000     8          
    36  Cl    c     -1.1757 *     0.0000       7.8414 *  0.0000     4          
    37  Li    c     -5.0963 *    -1.9603 *     5.8810 *  0.0000     8          
    38  Li    c      0.7847 *    -1.9603 *     7.8414 *  0.0000     8          
    39  Li    c     -7.0567 *    -1.9603 *     3.9207 *  0.0000     8          
    40  Cl    c      2.7450 *     0.0000       7.8414 *  0.0000     4          
    41  O     c      0.7847 *     5.8810 *     5.8810    0.0000     4          
    42  Li    c     -1.1757 *     5.8810 *     5.8810    0.0000     4          
    43  Li    c      4.7054 *     3.9207 *     5.8810 *  0.0000     8          
    44  Li    c     -3.1360 *    -1.9603 *     7.8414 *  0.0000     8          
    45  Cl    c      6.6657 *     3.9207 *     3.9207    0.0000     4          
    46  Li    c      2.7450 *     5.8810 *     5.8810    0.0000     4          
    47  Cl    c     -1.1757 *     3.9207 *     7.8414 *  0.0000     8          
    48  Li    c      8.6260 *    -1.9603 *     0.0000    0.0000     4          
    49  O     c     -3.1360 *     5.8810 *     5.8810    0.0000     4          
    50  Cl    c     -9.0170 *     0.0000       0.0000    0.0000     1          
    51  O     c      8.6260 *    -1.9603 *    -1.9603    0.0000     4          
    52  Li    c      6.6657 *    -1.9603 *     5.8810 *  0.0000     8          
    53  Li    c     -7.0567 *     5.8810 *     0.0000    0.0000     4          
    54  Cl    c      2.7450 *     3.9207 *     7.8414 *  0.0000     8          
    55  Cl    c     -5.0963 *     0.0000       7.8414 *  0.0000     4          
    56  Li    c      4.7054 *    -1.9603 *     7.8414 *  0.0000     8          
    57  O     c     -7.0567 *    -1.9603 *     5.8810 *  0.0000     8          
    58  Li    c     -9.0170 *    -1.9603 *    -1.9603    0.0000     4          
    59  O     c      4.7054 *     5.8810 *     5.8810    0.0000     4          
    60  Li    c      8.6260 *    -1.9603 *     3.9207 *  0.0000     8          
    61  Li    c     -5.0963 *     5.8810 *     5.8810    0.0000     4          
    62  Cl    c     -9.0170 *     0.0000       3.9207 *  0.0000     4          
    63  Li    c      0.7847 *     5.8810 *     7.8414 *  0.0000     8          
    64  Li    c      0.7847 *     9.8017 *     0.0000    0.0000     4          
    65  Li    c     -7.0567 *     5.8810 *     3.9207 *  0.0000     8          
    66  O     c      0.7847 *    -1.9603 *     9.8017 *  0.0000     8          
    67  Li    c     -1.1757 *    -1.9603 *     9.8017 *  0.0000     8          
    68  Cl    c     -5.0963 *     3.9207 *     7.8414 *  0.0000     8          
    69  Li    c     -3.1360 *     5.8810 *     7.8414 *  0.0000     8          
    70  Li    c     -3.1360 *     9.8017 *     0.0000    0.0000     4          
    71  Cl    c      6.6657 *     0.0000       7.8414 *  0.0000     4          
    72  Li    c      2.7450 *    -1.9603 *     9.8017 *  0.0000     8          
    73  Li    c      8.6260 *     5.8810 *     0.0000    0.0000     4          
    74  O     c     -3.1360 *    -1.9603 *     9.8017 *  0.0000     8          
    75  Cl    c     -9.0170 *     3.9207 *     3.9207    0.0000     4          
    76  Li    c      0.7847 *     9.8017 *     3.9207 *  0.0000     8          
    77  Cl    c     10.5864 *     0.0000       0.0000    0.0000     1          
    78  O     c      8.6260 *    -1.9603 *     5.8810 *  0.0000     8          
    79  Li    c      6.6657 *     5.8810 *     5.8810    0.0000     4          
    80  Li    c     -7.0567 *    -1.9603 *     7.8414 *  0.0000     8          
    81  Li    c      4.7054 *     5.8810 *     7.8414 *  0.0000     8          
    82  Li    c      4.7054 *     9.8017 *     0.0000    0.0000     4          
    83  O     c     -7.0567 *     5.8810 *     5.8810    0.0000     4          
    84  Li    c     -9.0170 *    -1.9603 *     5.8810 *  0.0000     8          
    85  Li    c     10.5864 *    -1.9603 *    -1.9603    0.0000     4          
    86  Li    c     -3.1360 *     9.8017 *     3.9207 *  0.0000     8          
    87  Cl    c      6.6657 *     3.9207 *     7.8414 *  0.0000     8          
    88  O     c      4.7054 *    -1.9603 *     9.8017 *  0.0000     8          
    89  Li    c    -10.9774 *    -1.9603 *     0.0000    0.0000     4          
    90  Cl    c     -1.1757 *     7.8414 *     7.8414    0.0000     4          
    91  Li    c      8.6260 *     5.8810 *     3.9207 *  0.0000     8          
    92  Li    c     -5.0963 *    -1.9603 *     9.8017 *  0.0000     8          
    93  Cl    c     10.5864 *     0.0000       3.9207 *  0.0000     4          
    94  O     c    -10.9774 *    -1.9603 *    -1.9603    0.0000     4          
    95  Cl    c      2.7450 *     7.8414 *     7.8414    0.0000     4          
    96  O     c      0.7847 *     5.8810 *     9.8017 *  0.0000     8          
    97  Li    c     -1.1757 *     9.8017 *     5.8810 *  0.0000     8          
    98  Li    c      4.7054 *     9.8017 *     3.9207 *  0.0000     8          
    99  Li    c      2.7450 *     5.8810 *     9.8017 *  0.0000     8          
   100  Li    c    -10.9774 *     3.9207 *    -1.9603 *  0.0000     8          
   101  Cl    c     -1.1757 *     0.0000      11.7620 *  0.0000     4          
   102  Li    c      8.6260 *    -1.9603 *     7.8414 *  0.0000     8          
   103  O     c     -3.1360 *     5.8810 *     9.8017 *  0.0000     8          
   104  Cl    c     -9.0170 *     0.0000       7.8414 *  0.0000     4          
   105  Li    c      0.7847 *    -1.9603 *    11.7620 *  0.0000     8          
   106  Cl    c     10.5864 *     3.9207 *     3.9207    0.0000     4          
   107  O     c      8.6260 *     5.8810 *     5.8810    0.0000     4          
   108  Li    c      6.6657 *     9.8017 *    -1.9603 *  0.0000     8          
   109  Li    c     -7.0567 *     5.8810 *     7.8414 *  0.0000     8          
   110  Li    c     -7.0567 *     9.8017 *     0.0000    0.0000     4          
   111  Cl    c      2.7450 *     0.0000      11.7620 *  0.0000     4          
   112  Cl    c     -5.0963 *     7.8414 *     7.8414    0.0000     4          
   113  O     c     -7.0567 *    -1.9603 *     9.8017 *  0.0000     8          
   114  Li    c     -9.0170 *     5.8810 *     5.8810    0.0000     4          
   115  Li    c     10.5864 *    -1.9603 *     5.8810 *  0.0000     8          
   116  Li    c     -3.1360 *    -1.9603 *    11.7620 *  0.0000     8          
   117  O     c      4.7054 *     5.8810 *     9.8017 *  0.0000     8          
   118  Li    c    -10.9774 *     5.8810 *     0.0000    0.0000     4          
   119  Cl    c     -1.1757 *     3.9207 *    11.7620 *  0.0000     8          
   120  Li    c     -5.0963 *     5.8810 *     9.8017 *  0.0000     8          
   121  Cl    c     -9.0170 *     7.8414 *     3.9207 *  0.0000     8          
   122  Li    c      0.7847 *     9.8017 *     7.8414 *  0.0000     8          
   123  O     c    -10.9774 *    -1.9603 *     5.8810 *  0.0000     8          
   124  Li    c     -7.0567 *     9.8017 *     3.9207 *  0.0000     8          
   125  Cl    c      2.7450 *     3.9207 *    11.7620 *  0.0000     8          
   126  Li    c     12.5467 *    -1.9603 *     0.0000    0.0000     4          
   127  Cl    c     -5.0963 *     0.0000      11.7620 *  0.0000     4          
   128  Li    c      4.7054 *    -1.9603 *    11.7620 *  0.0000     8          
   129  O     c     12.5467 *    -1.9603 *    -1.9603    0.0000     4          
   130  Cl    c    -12.9377 *     0.0000       0.0000    0.0000     1          
   131  Li    c     -3.1360 *     9.8017 *     7.8414 *  0.0000     8          
   132  Cl    c      6.6657 *     7.8414 *     7.8414    0.0000     4          
   133  Li    c    -10.9774 *     5.8810 *     3.9207 *  0.0000     8          
   134  Li    c      8.6260 *     5.8810 *     7.8414 *  0.0000     8          
   135  Li    c      8.6260 *     9.8017 *     0.0000    0.0000     4          
   136  Li    c      0.7847 *     5.8810 *    11.7620 *  0.0000     8          
   137  Cl    c     10.5864 *     0.0000       7.8414 *  0.0000     4          
   138  O     c      8.6260 *    -1.9603 *     9.8017 *  0.0000     8          
   139  Li    c    -12.9377 *    -1.9603 *    -1.9603    0.0000     4          
   140  Li    c      6.6657 *     9.8017 *     5.8810 *  0.0000     8          
   141  Li    c     12.5467 *    -1.9603 *     3.9207 *  0.0000     8          
   142  Cl    c     -5.0963 *     3.9207 *    11.7620 *  0.0000     8          
   143  Li    c      4.7054 *     9.8017 *     7.8414 *  0.0000     8          
   144  O     c     -7.0567 *     5.8810 *     9.8017 *  0.0000     8          
   145  Li    c     -9.0170 *    -1.9603 *     9.8017 *  0.0000     8          
   146  Li    c     10.5864 *     5.8810 *     5.8810    0.0000     4          
   147  Cl    c    -12.9377 *     0.0000       3.9207 *  0.0000     4          
   148  Li    c     -3.1360 *     5.8810 *    11.7620 *  0.0000     8          
   149  Cl    c      6.6657 *     0.0000      11.7620 *  0.0000     4          
   150  Li    c    -10.9774 *     7.8414 *    -1.9603 *  0.0000     8          
   151  Li    c      8.6260 *     9.8017 *     3.9207 *  0.0000     8          
   152  Li    c      0.7847 *    13.7224 *     0.0000    0.0000     4          
   153  Cl    c     10.5864 *     3.9207 *     7.8414 *  0.0000     8          
   154  O     c    -10.9774 *     5.8810 *     5.8810    0.0000     4          
   155  Li    c     -7.0567 *    11.7620 *    -1.9603 *  0.0000     8          
   156  Li    c     12.5467 *     5.8810 *     0.0000    0.0000     4          
   157  O     c      0.7847 *    -1.9603 *    13.7224 *  0.0000     8          
   158  O     c      0.7847 *     9.8017 *     9.8017    0.0000     4          
   159  Li    c     -1.1757 *    -1.9603 *    13.7224 *  0.0000     8          
   160  Li    c     -1.1757 *     9.8017 *     9.8017    0.0000     4          
   161  Li    c      4.7054 *     5.8810 *    11.7620 *  0.0000     8          
   162  O     c     12.5467 *    -1.9603 *     5.8810 *  0.0000     8          
   163  Cl    c    -12.9377 *     3.9207 *     3.9207    0.0000     4          
   164  Li    c     -3.1360 *    13.7224 *     0.0000    0.0000     4          
   165  Cl    c      6.6657 *     3.9207 *    11.7620 *  0.0000     8          
   166  Li    c      2.7450 *    -1.9603 *    13.7224 *  0.0000     8          
   167  Li    c      2.7450 *     9.8017 *     9.8017    0.0000     4          
   168  Cl    c     -1.1757 *     7.8414 *    11.7620 *  0.0000     8          
   169  O     c     -3.1360 *    -1.9603 *    13.7224 *  0.0000     8          
   170  O     c     -3.1360 *     9.8017 *     9.8017    0.0000     4          
   171  Cl    c     -9.0170 *     7.8414 *     7.8414    0.0000     4          
   172  Li    c      0.7847 *    13.7224 *     3.9207 *  0.0000     8          
   173  O     c      8.6260 *     5.8810 *     9.8017 *  0.0000     8          
   174  Li    c    -12.9377 *    -1.9603 *     5.8810 *  0.0000     8          
   175  Li    c     -7.0567 *     9.8017 *     7.8414 *  0.0000     8          
   176  Cl    c      2.7450 *     7.8414 *    11.7620 *  0.0000     8          
   177  Li    c     12.5467 *     5.8810 *     3.9207 *  0.0000     8          
   178  Li    c      4.7054 *    13.7224 *     0.0000    0.0000     4          
   179  Cl    c     14.5070 *     0.0000       0.0000    0.0000     1          
   180  Li    c     -9.0170 *     5.8810 *     9.8017 *  0.0000     8          
   181  Li    c     10.5864 *    -1.9603 *     9.8017 *  0.0000     8          
   182  Li    c     -3.1360 *    13.7224 *     3.9207 *  0.0000     8          
   183  O     c      4.7054 *    -1.9603 *    13.7224 *  0.0000     8          
   184  O     c      4.7054 *     9.8017 *     9.8017    0.0000     4          
   185  Li    c    -10.9774 *     5.8810 *     7.8414 *  0.0000     8          
   186  Li    c    -10.9774 *     9.8017 *     0.0000    0.0000     4          
   187  Li    c      8.6260 *    11.7620 *    -1.9603 *  0.0000     8          
   188  Li    c     -5.0963 *    13.7224 *    -1.9603 *  0.0000     8          
   189  Li    c     -5.0963 *     9.8017 *     9.8017    0.0000     4          
   190  Li    c     14.5070 *    -1.9603 *    -1.9603    0.0000     4          
   191  Cl    c     -9.0170 *     0.0000      11.7620 *  0.0000     4          
   192  O     c    -10.9774 *    -1.9603 *     9.8017 *  0.0000     8          
   193  Li    c     -7.0567 *    11.7620 *     5.8810 *  0.0000     8          
   194  Li    c     12.5467 *    -1.9603 *     7.8414 *  0.0000     8          
   195  O     c      0.7847 *     5.8810 *    13.7224 *  0.0000     8          
   196  Li    c     -1.1757 *     5.8810 *    13.7224 *  0.0000     8          
   197  Li    c    -14.8980 *    -1.9603 *     0.0000    0.0000     4          
   198  Cl    c     -5.0963 *     7.8414 *    11.7620 *  0.0000     8          
   199  Li    c      4.7054 *    13.7224 *     3.9207 *  0.0000     8          
   200  Cl    c     14.5070 *     0.0000       3.9207 *  0.0000     4          
   201  O     c     12.5467 *     5.8810 *     5.8810    0.0000     4          
   202  Cl    c    -12.9377 *     0.0000       7.8414 *  0.0000     4          
   203  O     c    -14.8980 *    -1.9603 *    -1.9603    0.0000     4          
   204  Li    c      2.7450 *     5.8810 *    13.7224 *  0.0000     8          
   205  Li    c    -10.9774 *     9.8017 *     3.9207 *  0.0000     8          
   206  Li    c      8.6260 *     9.8017 *     7.8414 *  0.0000     8          
   207  O     c     -3.1360 *     5.8810 *    13.7224 *  0.0000     8          
   208  Cl    c     -9.0170 *     3.9207 *    11.7620 *  0.0000     8          
   209  Li    c      0.7847 *     9.8017 *    11.7620 *  0.0000     8          
   210  Cl    c     10.5864 *     7.8414 *     7.8414    0.0000     4          
   211  Li    c    -12.9377 *     5.8810 *     5.8810    0.0000     4          
   212  Li    c      6.6657 *    13.7224 *    -1.9603 *  0.0000     8          
   213  Li    c      6.6657 *     9.8017 *     9.8017    0.0000     4          
   214  Li    c     -7.0567 *    13.7224 *     0.0000    0.0000     4          
   215  Li    c    -14.8980 *    -1.9603 *     3.9207 *  0.0000     8          
   216  Cl    c     14.5070 *     3.9207 *     3.9207    0.0000     4          
   217  O     c     -7.0567 *    -1.9603 *    13.7224 *  0.0000     8          
   218  O     c     -7.0567 *     9.8017 *     9.8017    0.0000     4          
   219  Li    c     10.5864 *     5.8810 *     9.8017 *  0.0000     8          
   220  Cl    c    -12.9377 *     3.9207 *     7.8414 *  0.0000     8          
   221  Li    c     -3.1360 *     9.8017 *    11.7620 *  0.0000     8          
   222  Cl    c      6.6657 *     7.8414 *    11.7620 *  0.0000     8          
   223  O     c      4.7054 *     5.8810 *    13.7224 *  0.0000     8          
   224  Cl    c     -1.1757 *     0.0000      15.6827 *  0.0000     4          
   225  Li    c      8.6260 *    11.7620 *     5.8810 *  0.0000     8          
   226  Li    c     -5.0963 *     5.8810 *    13.7224 *  0.0000     8          
   227  Li    c     14.5070 *    -1.9603 *     5.8810 *  0.0000     8          
   228  Li    c      0.7847 *    -1.9603 *    15.6827 *  0.0000     8          
   229  Li    c      0.7847 *    13.7224 *     7.8414 *  0.0000     8          
   230  Cl    c     10.5864 *     0.0000      11.7620 *  0.0000     4          
   231  O     c    -10.9774 *     5.8810 *     9.8017 *  0.0000     8          
   232  Li    c     -7.0567 *    13.7224 *     3.9207 *  0.0000     8          
   233  Cl    c      2.7450 *     0.0000      15.6827 *  0.0000     4          
   234  Li    c     12.5467 *     5.8810 *     7.8414 *  0.0000     8          
   235  Li    c     12.5467 *     9.8017 *     0.0000    0.0000     4          
   236  Li    c    -14.8980 *     5.8810 *     0.0000    0.0000     4          
   237  Li    c      4.7054 *     9.8017 *    11.7620 *  0.0000     8          
   238  O     c     12.5467 *    -1.9603 *     9.8017 *  0.0000     8          
   239  Li    c     -3.1360 *    -1.9603 *    15.6827 *  0.0000     8          
   240  Li    c     -3.1360 *    13.7224 *     7.8414 *  0.0000     8          
   241  O     c    -14.8980 *     5.8810 *    -1.9603 *  0.0000     8          
   242  Li    c    -10.9774 *    11.7620 *    -1.9603 *  0.0000     8          
   243  Cl    c     -1.1757 *     3.9207 *    15.6827 *  0.0000     8          
   244  Li    c      8.6260 *    13.7224 *     0.0000    0.0000     4          
   245  Cl    c     10.5864 *     3.9207 *    11.7620 *  0.0000     8          
   246  O     c      8.6260 *    -1.9603 *    13.7224 *  0.0000     8          
   247  O     c      8.6260 *     9.8017 *     9.8017    0.0000     4          
   248  Li    c    -12.9377 *     9.8017 *    -1.9603 *  0.0000     8          
   249  Li    c      6.6657 *     5.8810 *    13.7224 *  0.0000     8          
   250  Cl    c      2.7450 *     3.9207 *    15.6827 *  0.0000     8          
   251  Li    c     12.5467 *     3.9207 *     9.8017 *  0.0000     8          
   252  Li    c    -14.8980 *     5.8810 *     3.9207 *  0.0000     8          
   253  Cl    c     -5.0963 *     0.0000      15.6827 *  0.0000     4          
   254  Li    c      4.7054 *    -1.9603 *    15.6827 *  0.0000     8          
   255  Li    c      4.7054 *    13.7224 *     7.8414 *  0.0000     8          
   256  Cl    c     14.5070 *     0.0000       7.8414 *  0.0000     4          
   257  O     c     -7.0567 *     5.8810 *    13.7224 *  0.0000     8          
   258  Li    c     -9.0170 *    -1.9603 *    13.7224 *  0.0000     8          
   259  Li    c     -9.0170 *     9.8017 *     9.8017    0.0000     4          
   260  Li    c     16.4674 *    -1.9603 *     0.0000    0.0000     4          
   261  Li    c    -10.9774 *     7.8414 *     9.8017 *  0.0000     8          
   262  Cl    c     -1.1757 *    11.7620 *    11.7620    0.0000     4          
   263  Li    c      8.6260 *     3.9207 *    13.7224 *  0.0000     8          
   264  O     c     16.4674 *    -1.9603 *    -1.9603    0.0000     4          
   265  Li    c     14.5070 *     5.8810 *     5.8810    0.0000     4          
   266  Cl    c     -9.0170 *     7.8414 *    11.7620 *  0.0000     8          
   267  Li    c      0.7847 *     5.8810 *    15.6827 *  0.0000     8          
   268  Cl    c    -16.8584 *     0.0000       0.0000    0.0000     1          
   269  Li    c     -7.0567 *     9.8017 *    11.7620 *  0.0000     8          
   270  Cl    c      2.7450 *    11.7620 *    11.7620    0.0000     4          
   271  O     c      0.7847 *     9.8017 *    13.7224 *  0.0000     8          
   272  Li    c     -1.1757 *     9.8017 *    13.7224 *  0.0000     8          
   273  Li    c    -14.8980 *    -1.9603 *     7.8414 *  0.0000     8          
   274  Cl    c     -5.0963 *     3.9207 *    15.6827 *  0.0000     8          
   275  Cl    c     14.5070 *     3.9207 *     7.8414 *  0.0000     8          
   276  O     c     12.5467 *     5.8810 *     9.8017 *  0.0000     8          
   277  Cl    c    -12.9377 *     7.8414 *     7.8414    0.0000     4          
   278  Li    c     -3.1360 *     5.8810 *    15.6827 *  0.0000     8          
   279  Cl    c      6.6657 *     0.0000      15.6827 *  0.0000     4          
   280  Li    c     16.4674 *    -1.9603 *     3.9207 *  0.0000     8          
   281  O     c    -14.8980 *     5.8810 *     5.8810    0.0000     4          
   282  Li    c    -16.8584 *    -1.9603 *    -1.9603    0.0000     4          
   283  Li    c      2.7450 *     9.8017 *    13.7224 *  0.0000     8          
   284  Li    c    -10.9774 *    11.7620 *     5.8810 *  0.0000     8          
   285  O     c     -3.1360 *     9.8017 *    13.7224 *  0.0000     8          
   286  O     c      8.6260 *     5.8810 *    13.7224 *  0.0000     8          
   287  Li    c    -12.9377 *     9.8017 *     5.8810 *  0.0000     8          
   288  Cl    c    -16.8584 *     0.0000       3.9207 *  0.0000     4          
   289  Li    c     -7.0567 *    -1.9603 *    15.6827 *  0.0000     8          
   290  Li    c     -7.0567 *     7.8414 *    13.7224 *  0.0000     8          
   291  Li    c     12.5467 *    11.7620 *    -1.9603 *  0.0000     8          
   292  Cl    c     -5.0963 *    11.7620 *    11.7620    0.0000     4          
   293  Li    c      4.7054 *     5.8810 *    15.6827 *  0.0000     8          
   294  Li    c     -9.0170 *     5.8810 *    13.7224 *  0.0000     8          
   295  Li    c     10.5864 *    -1.9603 *    13.7224 *  0.0000     8          
   296  Li    c     10.5864 *     9.8017 *     9.8017    0.0000     4          
   297  Cl    c    -12.9377 *     0.0000      11.7620 *  0.0000     4          
   298  Cl    c      6.6657 *     3.9207 *    15.6827 *  0.0000     8          
   299  Li    c     16.4674 *     5.8810 *     0.0000    0.0000     4          
   300  O     c      4.7054 *     9.8017 *    13.7224 *  0.0000     8          
   301  Li    c    -10.9774 *    13.7224 *     0.0000    0.0000     4          
   302  Cl    c     -1.1757 *     7.8414 *    15.6827 *  0.0000     8          
   303  Li    c      8.6260 *     9.8017 *    11.7620 *  0.0000     8          
   304  O     c     16.4674 *    -1.9603 *     5.8810 *  0.0000     8          
   305  Li    c     -5.0963 *     9.8017 *    13.7224 *  0.0000     8          
   306  Li    c     14.5070 *    -1.9603 *     9.8017 *  0.0000     8          
   307  Li    c      0.7847 *    17.6430 *     0.0000    0.0000     4          
   308  Cl    c     10.5864 *     7.8414 *    11.7620 *  0.0000     8          
   309  O     c    -10.9774 *    -1.9603 *    13.7224 *  0.0000     8          
   310  O     c    -10.9774 *     9.8017 *     9.8017    0.0000     4          
   311  Cl    c    -16.8584 *     3.9207 *     3.9207    0.0000     4          
   312  Cl    c      2.7450 *     7.8414 *    15.6827 *  0.0000     8          
   313  Li    c     12.5467 *     7.8414 *     9.8017 *  0.0000     8          
   314  O     c      0.7847 *    -1.9603 *    17.6430 *  0.0000     8          
   315  Li    c     -1.1757 *    17.6430 *    -1.9603 *  0.0000     8          
   316  Li    c    -14.8980 *     5.8810 *     7.8414 *  0.0000     8          
   317  Li    c    -14.8980 *     9.8017 *     0.0000    0.0000     4          
   318  Cl    c    -12.9377 *     3.9207 *    11.7620 *  0.0000     8          
   319  Li    c     -3.1360 *    17.6430 *     0.0000    0.0000     4          
   320  Cl    c      6.6657 *    11.7620 *    11.7620    0.0000     4          
   321  Li    c     16.4674 *     3.9207 *     5.8810 *  0.0000     8          
   322  O     c    -14.8980 *    -1.9603 *     9.8017 *  0.0000     8          
   323  Li    c    -16.8584 *    -1.9603 *     5.8810 *  0.0000     8          
   324  Li    c      2.7450 *    17.6430 *    -1.9603 *  0.0000     8          
   325  Li    c    -10.9774 *     3.9207 *    13.7224 *  0.0000     8          
   326  Li    c      8.6260 *    -1.9603 *    15.6827 *  0.0000     8          
   327  Li    c      8.6260 *     7.8414 *    13.7224 *  0.0000     8          
   328  O     c     -3.1360 *    -1.9603 *    17.6430 *  0.0000     8          
   329  Cl    c     -9.0170 *     0.0000      15.6827 *  0.0000     4          
   330  Li    c      0.7847 *     3.9207 *    17.6430 *  0.0000     8          
   331  Li    c      0.7847 *    13.7224 *    11.7620 *  0.0000     8          
   332  Li    c      6.6657 *     9.8017 *    13.7224 *  0.0000     8          
   333  Li    c     -7.0567 *     5.8810 *    15.6827 *  0.0000     8          
   334  Li    c     12.5467 *    11.7620 *     5.8810 *  0.0000     8          
   335  Li    c    -14.8980 *     3.9207 *     9.8017 *  0.0000     8          
   336  Cl    c     -5.0963 *     7.8414 *    15.6827 *  0.0000     8          
   337  Li    c      4.7054 *    17.6430 *     0.0000    0.0000     4          
   338  Cl    c     14.5070 *     7.8414 *     7.8414    0.0000     4          
   339  O     c     -7.0567 *     9.8017 *    13.7224 *  0.0000     8          
   340  Li    c     10.5864 *     5.8810 *    13.7224 *  0.0000     8          
   341  Li    c     -3.1360 *    13.7224 *    11.7620 *  0.0000     8          
   342  Li    c     -3.1360 *    17.6430 *     3.9207 *  0.0000     8          
   343  Li    c     16.4674 *    -1.9603 *     7.8414 *  0.0000     8          
   344  O     c      4.7054 *    17.6430 *    -1.9603 *  0.0000     8          
   345  Cl    c     18.4277 *     0.0000       0.0000    0.0000     1          
   346  O     c     16.4674 *     5.8810 *     5.8810    0.0000     4          
   347  Li    c     -5.0963 *    -1.9603 *    17.6430 *  0.0000     8          
   348  Li    c     14.5070 *     5.8810 *     9.8017 *  0.0000     8          
   349  Cl    c     -9.0170 *     3.9207 *    15.6827 *  0.0000     8          
   350  Li    c      0.7847 *     9.8017 *    15.6827 *  0.0000     8          
   351  O     c    -10.9774 *     5.8810 *    13.7224 *  0.0000     8          
   352  Cl    c    -16.8584 *     0.0000       7.8414 *  0.0000     4          
   353  Li    c     12.5467 *    13.7224 *     0.0000    0.0000     4          
   354  O     c      0.7847 *     5.8810 *    17.6430 *  0.0000     8          
   355  Li    c     -1.1757 *     5.8810 *    17.6430 *  0.0000     8          
   356  Li    c     18.4277 *    -1.9603 *    -1.9603    0.0000     4          
   357  Li    c      4.7054 *    13.7224 *    11.7620 *  0.0000     8          
   358  Li    c      4.7054 *    17.6430 *     3.9207 *  0.0000     8          
   359  Cl    c     14.5070 *     0.0000      11.7620 *  0.0000     4          
   360  O     c     12.5467 *    -1.9603 *    13.7224 *  0.0000     8          
   361  O     c     12.5467 *     9.8017 *     9.8017    0.0000     4          
   362  Li    c     -3.1360 *     9.8017 *    15.6827 *  0.0000     8          
   363  Cl    c      6.6657 *     7.8414 *    15.6827 *  0.0000     8          
   364  O     c    -14.8980 *     5.8810 *     9.8017 *  0.0000     8          
   365  Li    c    -16.8584 *     5.8810 *     5.8810    0.0000     4          
   366  Li    c      2.7450 *    17.6430 *     5.8810 *  0.0000     8          
   367  Li    c    -10.9774 *     9.8017 *    11.7620 *  0.0000     8          
   368  Li    c      8.6260 *     5.8810 *    15.6827 *  0.0000     8          
   369  Cl    c     18.4277 *     0.0000       3.9207 *  0.0000     4          
   370  O     c     -3.1360 *    17.6430 *     5.8810 *  0.0000     8          
   371  Li    c    -18.8187 *    -1.9603 *     0.0000    0.0000     4          
   372  Cl    c     -9.0170 *    11.7620 *    11.7620    0.0000     4          
   373  Cl    c     10.5864 *     0.0000      15.6827 *  0.0000     4          
   374  O     c      8.6260 *     9.8017 *    13.7224 *  0.0000     8          
   375  Li    c    -12.9377 *    13.7224 *    -1.9603 *  0.0000     8          
   376  Li    c    -12.9377 *     9.8017 *     9.8017    0.0000     4          
   377  Li    c      6.6657 *    -1.9603 *    17.6430 *  0.0000     8          
   378  Cl    c    -16.8584 *     3.9207 *     7.8414 *  0.0000     8          
   379  Li    c     -7.0567 *    17.6430 *     0.0000    0.0000     4          
   380  Li    c     12.5467 *     3.9207 *    13.7224 *  0.0000     8          
   381  O     c    -18.8187 *    -1.9603 *    -1.9603    0.0000     4          
   382  Li    c    -14.8980 *    -1.9603 *    11.7620 *  0.0000     8          
   383  Li    c      4.7054 *     9.8017 *    15.6827 *  0.0000     8          
   384  Cl    c     14.5070 *     3.9207 *    11.7620 *  0.0000     8          
   385  O     c     -7.0567 *    -1.9603 *    17.6430 *  0.0000     8          
   386  Li    c     -9.0170 *     9.8017 *    13.7224 *  0.0000     8          
   387  Cl    c    -12.9377 *     7.8414 *    11.7620 *  0.0000     8          
   388  Li    c     16.4674 *     9.8017 *     0.0000    0.0000     4          
   389  Li    c     16.4674 *     7.8414 *     5.8810 *  0.0000     8          
   390  O     c      4.7054 *    17.6430 *     5.8810 *  0.0000     8          
   391  Li    c    -10.9774 *    -1.9603 *    15.6827 *  0.0000     8          
   392  Li    c    -10.9774 *     7.8414 *    13.7224 *  0.0000     8          
   393  Cl    c     18.4277 *     3.9207 *     3.9207    0.0000     4          
   394  O     c     16.4674 *     9.8017 *    -1.9603 *  0.0000     8          
   395  Li    c     -5.0963 *     5.8810 *    17.6430 *  0.0000     8          
   396  Li    c    -18.8187 *    -1.9603 *     3.9207 *  0.0000     8          
   397  Li    c      0.7847 *     7.8414 *    17.6430 *  0.0000     8          
   398  Cl    c     10.5864 *     3.9207 *    15.6827 *  0.0000     8          
   399  Li    c     -7.0567 *    13.7224 *    11.7620 *  0.0000     8          
   400  Li    c     -7.0567 *    17.6430 *     3.9207 *  0.0000     8          
   401  O     c      0.7847 *    13.7224 *    13.7224    0.0000     4          
   402  Li    c     -1.1757 *    13.7224 *    13.7224    0.0000     4          
   403  Li    c     18.4277 *    -1.9603 *     5.8810 *  0.0000     8          
   404  Li    c    -14.8980 *     7.8414 *     9.8017 *  0.0000     8          
   405  O     c     12.5467 *     5.8810 *    13.7224 *  0.0000     8          
   406  Li    c     -3.1360 *    17.6430 *     7.8414 *  0.0000     8          
   407  Li    c     16.4674 *     9.8017 *     3.9207 *  0.0000     8          
   408  Li    c    -16.8584 *     9.8017 *    -1.9603 *  0.0000     8          
   409  Li    c      2.7450 *    13.7224 *    13.7224    0.0000     4          
   410  Cl    c     -1.1757 *    11.7620 *    15.6827 *  0.0000     8          
   411  Cl    c     -1.1757 *     0.0000      19.6034 *  0.0000     4          
   412  Li    c      8.6260 *    17.6430 *     0.0000    0.0000     4          
   413  O     c     -3.1360 *    13.7224 *    13.7224    0.0000     4          
   414  Li    c    -18.8187 *     5.8810 *     0.0000    0.0000     4          
   415  Cl    c     -9.0170 *     7.8414 *    15.6827 *  0.0000     8          
   416  Li    c      0.7847 *    -1.9603 *    19.6034 *  0.0000     8          
   417  Cl    c     10.5864 *    11.7620 *    11.7620    0.0000     4          
   418  O     c      8.6260 *    -1.9603 *    17.6430 *  0.0000     8          
   419  Li    c    -12.9377 *    13.7224 *     5.8810 *  0.0000     8          
   420  Li    c      6.6657 *     5.8810 *    17.6430 *  0.0000     8          
   421  Li    c     -7.0567 *     9.8017 *    15.6827 *  0.0000     8          
   422  Cl    c      2.7450 *    11.7620 *    15.6827 *  0.0000     8          
   423  Cl    c      2.7450 *     0.0000      19.6034 *  0.0000     4          
   424  Li    c     12.5467 *     9.8017 *    11.7620 *  0.0000     8          
   425  O     c    -18.8187 *    -1.9603 *     5.8810 *  0.0000     8          
   426  Li    c    -14.8980 *     5.8810 *    11.7620 *  0.0000     8          
   427  Li    c      4.7054 *    17.6430 *     7.8414 *  0.0000     8          
   428  O     c     -7.0567 *     5.8810 *    17.6430 *  0.0000     8          
   429  Li    c     -9.0170 *    -1.9603 *    17.6430 *  0.0000     8          
   430  Li    c     10.5864 *     9.8017 *    13.7224 *  0.0000     8          
   431  Li    c     -3.1360 *    -1.9603 *    19.6034 *  0.0000     8          
   432  O     c      4.7054 *    13.7224 *    13.7224    0.0000     4          
   433  Cl    s      0.0000       0.0000       0.0000    0.0000     1    Defect
   434  O     s      0.7847 *    -1.9603 *    -1.9603    0.0000     4          
   435  Cl    s     -1.1757 *     0.0000       3.9207 *  0.0000     4          
   436  O     s     -3.1360 *    -1.9603 *    -1.9603    0.0000     4          
   437  Cl    s      2.7450 *     0.0000       3.9207 *  0.0000     4          
   438  Cl    s     -5.0963 *     0.0000       0.0000    0.0000     1          
   439  O     s      4.7054 *    -1.9603 *    -1.9603    0.0000     4          
   440  Cl    s     -1.1757 *     3.9207 *     3.9207    0.0000     4          
   441  Cl    s      2.7450 *     3.9207 *     3.9207    0.0000     4          
   442  O     s      0.7847 *    -1.9603 *     5.8810 *  0.0000     8          
   443  Cl    s     -5.0963 *     0.0000       3.9207 *  0.0000     4          
   444  Cl    s      6.6657 *     0.0000       0.0000    0.0000     1          
   445  O     s     -3.1360 *     5.8810 *    -1.9603 *  0.0000     8          
   446  Cl    s     -5.0963 *     3.9207 *     3.9207    0.0000     4          
   447  O     s     -7.0567 *    -1.9603 *    -1.9603    0.0000     4          
   448  Cl    s      6.6657 *     0.0000       3.9207 *  0.0000     4          
   449  O     s      4.7054 *    -1.9603 *     5.8810 *  0.0000     8          
   450  Cl    s     -1.1757 *     0.0000       7.8414 *  0.0000     4          
   451  Cl    s      2.7450 *     0.0000       7.8414 *  0.0000     4          
   452  O     s      0.7847 *     5.8810 *     5.8810    0.0000     4          
   453  Cl    s      6.6657 *     3.9207 *     3.9207    0.0000     4          
   454  Cl    s     -1.1757 *     3.9207 *     7.8414 *  0.0000     8          
   455  O     s     -3.1360 *     5.8810 *     5.8810    0.0000     4          
   456  Cl    s     -9.0170 *     0.0000       0.0000    0.0000     1          
   457  O     s      8.6260 *    -1.9603 *    -1.9603    0.0000     4          
   458  Cl    s      2.7450 *     3.9207 *     7.8414 *  0.0000     8          
   459  Cl    s     -5.0963 *     0.0000       7.8414 *  0.0000     4          
   460  O     s     -7.0567 *    -1.9603 *     5.8810 *  0.0000     8          
   461  O     s      4.7054 *     5.8810 *     5.8810    0.0000     4          
   462  Cl    s     -9.0170 *     0.0000       3.9207 *  0.0000     4          
   463  O     s      0.7847 *    -1.9603 *     9.8017 *  0.0000     8          
   464  Cl    s     -5.0963 *     3.9207 *     7.8414 *  0.0000     8          
   465  Cl    s      6.6657 *     0.0000       7.8414 *  0.0000     4          
   466  O     s     -3.1360 *    -1.9603 *     9.8017 *  0.0000     8          
   467  Cl    s     -9.0170 *     3.9207 *     3.9207    0.0000     4          
   468  Cl    s     10.5864 *     0.0000       0.0000    0.0000     1          
   469  O     s      8.6260 *    -1.9603 *     5.8810 *  0.0000     8          
   470  O     s     -7.0567 *     5.8810 *     5.8810    0.0000     4          
   471  Cl    s      6.6657 *     3.9207 *     7.8414 *  0.0000     8          
   472  O     s      4.7054 *    -1.9603 *     9.8017 *  0.0000     8          
   473  Cl    s     -1.1757 *     7.8414 *     7.8414    0.0000     4          
   474  Cl    s     10.5864 *     0.0000       3.9207 *  0.0000     4          
   475  O     s    -10.9774 *    -1.9603 *    -1.9603    0.0000     4          
   476  Cl    s      2.7450 *     7.8414 *     7.8414    0.0000     4          
   477  O     s      0.7847 *     5.8810 *     9.8017 *  0.0000     8          
   478  Cl    s     -1.1757 *     0.0000      11.7620 *  0.0000     4          
   479  O     s     -3.1360 *     5.8810 *     9.8017 *  0.0000     8          
   480  Cl    s     -9.0170 *     0.0000       7.8414 *  0.0000     4          
   481  Cl    s     10.5864 *     3.9207 *     3.9207    0.0000     4          
   482  O     s      8.6260 *     5.8810 *     5.8810    0.0000     4          
   483  Cl    s      2.7450 *     0.0000      11.7620 *  0.0000     4          
   484  Cl    s     -5.0963 *     7.8414 *     7.8414    0.0000     4          
   485  O     s     -7.0567 *    -1.9603 *     9.8017 *  0.0000     8          
   486  O     s      4.7054 *     5.8810 *     9.8017 *  0.0000     8          
   487  Cl    s     -1.1757 *     3.9207 *    11.7620 *  0.0000     8          
   488  Cl    s     -9.0170 *     7.8414 *     3.9207 *  0.0000     8          
   489  O     s    -10.9774 *    -1.9603 *     5.8810 *  0.0000     8          
   490  Cl    s      2.7450 *     3.9207 *    11.7620 *  0.0000     8          
   491  Cl    s     -5.0963 *     0.0000      11.7620 *  0.0000     4          
   492  O     s     12.5467 *    -1.9603 *    -1.9603    0.0000     4          
   493  Cl    s    -12.9377 *     0.0000       0.0000    0.0000     1          
   494  Cl    s      6.6657 *     7.8414 *     7.8414    0.0000     4          
   495  Cl    s     10.5864 *     0.0000       7.8414 *  0.0000     4          
   496  O     s      8.6260 *    -1.9603 *     9.8017 *  0.0000     8          
   497  Cl    s     -5.0963 *     3.9207 *    11.7620 *  0.0000     8          
   498  O     s     -7.0567 *     5.8810 *     9.8017 *  0.0000     8          
   499  Cl    s    -12.9377 *     0.0000       3.9207 *  0.0000     4          
   500  Cl    s      6.6657 *     0.0000      11.7620 *  0.0000     4          
   501  Cl    s     10.5864 *     3.9207 *     7.8414 *  0.0000     8          
   502  O     s    -10.9774 *     5.8810 *     5.8810    0.0000     4          
   503  O     s      0.7847 *    -1.9603 *    13.7224 *  0.0000     8          
   504  O     s      0.7847 *     9.8017 *     9.8017    0.0000     4          
   505  O     s     12.5467 *    -1.9603 *     5.8810 *  0.0000     8          
   506  Cl    s    -12.9377 *     3.9207 *     3.9207    0.0000     4          
   507  Cl    s      6.6657 *     3.9207 *    11.7620 *  0.0000     8          
   508  Cl    s     -1.1757 *     7.8414 *    11.7620 *  0.0000     8          
   509  O     s     -3.1360 *    -1.9603 *    13.7224 *  0.0000     8          
   510  O     s     -3.1360 *     9.8017 *     9.8017    0.0000     4          
   511  Cl    s     -9.0170 *     7.8414 *     7.8414    0.0000     4          
   512  O     s      8.6260 *     5.8810 *     9.8017 *  0.0000     8          
   513  Cl    s      2.7450 *     7.8414 *    11.7620 *  0.0000     8          
   514  Cl    s     14.5070 *     0.0000       0.0000    0.0000     1          
   515  O     s      4.7054 *    -1.9603 *    13.7224 *  0.0000     8          
   516  O     s      4.7054 *     9.8017 *     9.8017    0.0000     4          
   517  Cl    s     -9.0170 *     0.0000      11.7620 *  0.0000     4          
   518  O     s    -10.9774 *    -1.9603 *     9.8017 *  0.0000     8          
   519  O     s      0.7847 *     5.8810 *    13.7224 *  0.0000     8          
   520  Cl    s     -5.0963 *     7.8414 *    11.7620 *  0.0000     8          
   521  Cl    s     14.5070 *     0.0000       3.9207 *  0.0000     4          
   522  O     s     12.5467 *     5.8810 *     5.8810    0.0000     4          
   523  Cl    s    -12.9377 *     0.0000       7.8414 *  0.0000     4          
   524  O     s    -14.8980 *    -1.9603 *    -1.9603    0.0000     4          
   525  O     s     -3.1360 *     5.8810 *    13.7224 *  0.0000     8          
   526  Cl    s     -9.0170 *     3.9207 *    11.7620 *  0.0000     8          
   527  Cl    s     10.5864 *     7.8414 *     7.8414    0.0000     4          
   528  Cl    s     14.5070 *     3.9207 *     3.9207    0.0000     4          
   529  O     s     -7.0567 *    -1.9603 *    13.7224 *  0.0000     8          
   530  O     s     -7.0567 *     9.8017 *     9.8017    0.0000     4          
   531  Cl    s    -12.9377 *     3.9207 *     7.8414 *  0.0000     8          
   532  Cl    s      6.6657 *     7.8414 *    11.7620 *  0.0000     8          
   533  O     s      4.7054 *     5.8810 *    13.7224 *  0.0000     8          
   534  Cl    s     -1.1757 *     0.0000      15.6827 *  0.0000     4          
   535  Cl    s     10.5864 *     0.0000      11.7620 *  0.0000     4          
   536  O     s    -10.9774 *     5.8810 *     9.8017 *  0.0000     8          
   537  Cl    s      2.7450 *     0.0000      15.6827 *  0.0000     4          
   538  O     s     12.5467 *    -1.9603 *     9.8017 *  0.0000     8          
   539  O     s    -14.8980 *     5.8810 *    -1.9603 *  0.0000     8          
   540  Cl    s     -1.1757 *     3.9207 *    15.6827 *  0.0000     8          
   541  Cl    s     10.5864 *     3.9207 *    11.7620 *  0.0000     8          
   542  O     s      8.6260 *    -1.9603 *    13.7224 *  0.0000     8          
   543  O     s      8.6260 *     9.8017 *     9.8017    0.0000     4          
   544  Cl    s      2.7450 *     3.9207 *    15.6827 *  0.0000     8          
   545  Cl    s     -5.0963 *     0.0000      15.6827 *  0.0000     4          
   546  Cl    s     14.5070 *     0.0000       7.8414 *  0.0000     4          
   547  O     s     -7.0567 *     5.8810 *    13.7224 *  0.0000     8          
   548  Cl    s     -1.1757 *    11.7620 *    11.7620    0.0000     4          
   549  O     s     16.4674 *    -1.9603 *    -1.9603    0.0000     4          
   550  Cl    s     -9.0170 *     7.8414 *    11.7620 *  0.0000     8          
   551  Cl    s    -16.8584 *     0.0000       0.0000    0.0000     1          
   552  Cl    s      2.7450 *    11.7620 *    11.7620    0.0000     4          
   553  O     s      0.7847 *     9.8017 *    13.7224 *  0.0000     8          
   554  Cl    s     -5.0963 *     3.9207 *    15.6827 *  0.0000     8          
   555  Cl    s     14.5070 *     3.9207 *     7.8414 *  0.0000     8          
   556  O     s     12.5467 *     5.8810 *     9.8017 *  0.0000     8          
   557  Cl    s    -12.9377 *     7.8414 *     7.8414    0.0000     4          
   558  Cl    s      6.6657 *     0.0000      15.6827 *  0.0000     4          
   559  O     s    -14.8980 *     5.8810 *     5.8810    0.0000     4          
   560  O     s     -3.1360 *     9.8017 *    13.7224 *  0.0000     8          
   561  O     s      8.6260 *     5.8810 *    13.7224 *  0.0000     8          
   562  Cl    s    -16.8584 *     0.0000       3.9207 *  0.0000     4          
   563  Cl    s     -5.0963 *    11.7620 *    11.7620    0.0000     4          
   564  Cl    s    -12.9377 *     0.0000      11.7620 *  0.0000     4          
   565  Cl    s      6.6657 *     3.9207 *    15.6827 *  0.0000     8          
   566  O     s      4.7054 *     9.8017 *    13.7224 *  0.0000     8          
   567  Cl    s     -1.1757 *     7.8414 *    15.6827 *  0.0000     8          
   568  O     s     16.4674 *    -1.9603 *     5.8810 *  0.0000     8          
   569  Cl    s     10.5864 *     7.8414 *    11.7620 *  0.0000     8          
   570  O     s    -10.9774 *    -1.9603 *    13.7224 *  0.0000     8          
   571  O     s    -10.9774 *     9.8017 *     9.8017    0.0000     4          
   572  Cl    s    -16.8584 *     3.9207 *     3.9207    0.0000     4          
   573  Cl    s      2.7450 *     7.8414 *    15.6827 *  0.0000     8          
   574  O     s      0.7847 *    -1.9603 *    17.6430 *  0.0000     8          
   575  Cl    s    -12.9377 *     3.9207 *    11.7620 *  0.0000     8          
   576  Cl    s      6.6657 *    11.7620 *    11.7620    0.0000     4          
   577  O     s    -14.8980 *    -1.9603 *     9.8017 *  0.0000     8          
   578  O     s     -3.1360 *    -1.9603 *    17.6430 *  0.0000     8          
   579  Cl    s     -9.0170 *     0.0000      15.6827 *  0.0000     4          
   580  Cl    s     -5.0963 *     7.8414 *    15.6827 *  0.0000     8          
   581  Cl    s     14.5070 *     7.8414 *     7.8414    0.0000     4          
   582  O     s     -7.0567 *     9.8017 *    13.7224 *  0.0000     8          
   583  O     s      4.7054 *    17.6430 *    -1.9603 *  0.0000     8          
   584  Cl    s     18.4277 *     0.0000       0.0000    0.0000     1          
   585  O     s     16.4674 *     5.8810 *     5.8810    0.0000     4          
   586  Cl    s     -9.0170 *     3.9207 *    15.6827 *  0.0000     8          
   587  O     s    -10.9774 *     5.8810 *    13.7224 *  0.0000     8          
   588  Cl    s    -16.8584 *     0.0000       7.8414 *  0.0000     4          
   589  O     s      0.7847 *     5.8810 *    17.6430 *  0.0000     8          
   590  Cl    s     14.5070 *     0.0000      11.7620 *  0.0000     4          
   591  O     s     12.5467 *    -1.9603 *    13.7224 *  0.0000     8          
   592  O     s     12.5467 *     9.8017 *     9.8017    0.0000     4          
   593  Cl    s      6.6657 *     7.8414 *    15.6827 *  0.0000     8          
   594  O     s    -14.8980 *     5.8810 *     9.8017 *  0.0000     8          
   595  Cl    s     18.4277 *     0.0000       3.9207 *  0.0000     4          
   596  O     s     -3.1360 *    17.6430 *     5.8810 *  0.0000     8          
   597  Cl    s     -9.0170 *    11.7620 *    11.7620    0.0000     4          
   598  Cl    s     10.5864 *     0.0000      15.6827 *  0.0000     4          
   599  O     s      8.6260 *     9.8017 *    13.7224 *  0.0000     8          
   600  Cl    s    -16.8584 *     3.9207 *     7.8414 *  0.0000     8          
   601  O     s    -18.8187 *    -1.9603 *    -1.9603    0.0000     4          
   602  Cl    s     14.5070 *     3.9207 *    11.7620 *  0.0000     8          
   603  O     s     -7.0567 *    -1.9603 *    17.6430 *  0.0000     8          
   604  Cl    s    -12.9377 *     7.8414 *    11.7620 *  0.0000     8          
   605  O     s      4.7054 *    17.6430 *     5.8810 *  0.0000     8          
   606  Cl    s     18.4277 *     3.9207 *     3.9207    0.0000     4          
   607  O     s     16.4674 *     9.8017 *    -1.9603 *  0.0000     8          
   608  Cl    s     10.5864 *     3.9207 *    15.6827 *  0.0000     8          
   609  O     s      0.7847 *    13.7224 *    13.7224    0.0000     4          
   610  O     s     12.5467 *     5.8810 *    13.7224 *  0.0000     8          
   611  Cl    s     -1.1757 *    11.7620 *    15.6827 *  0.0000     8          
   612  Cl    s     -1.1757 *     0.0000      19.6034 *  0.0000     4          
   613  O     s     -3.1360 *    13.7224 *    13.7224    0.0000     4          
   614  Cl    s     -9.0170 *     7.8414 *    15.6827 *  0.0000     8          
   615  Cl    s     10.5864 *    11.7620 *    11.7620    0.0000     4          
   616  O     s      8.6260 *    -1.9603 *    17.6430 *  0.0000     8          
   617  Cl    s      2.7450 *    11.7620 *    15.6827 *  0.0000     8          
   618  Cl    s      2.7450 *     0.0000      19.6034 *  0.0000     4          
   619  O     s    -18.8187 *    -1.9603 *     5.8810 *  0.0000     8          
   620  O     s     -7.0567 *     5.8810 *    17.6430 *  0.0000     8          
   621  O     s      4.7054 *    13.7224 *    13.7224    0.0000     4          
--------------------------------------------------------------------------------


  Constraints on symmetry reduced coordinates :

--------------------------------------------------------------------------------
  Constraint no.      Unconstrained     Constrained    Coefficient    
                         Variable         Variable
--------------------------------------------------------------------------------
           1                 3 y             3 z         1.00000
           2                 4 y             4 z         1.00000
           3                 6 y             6 z         1.00000
           4                 8 y             8 z         1.00000
           5                14 y            14 z         1.00000
           6                15 y            15 z         1.00000
           7                16 y            16 z         1.00000
           8                18 y            18 z         1.00000
           9                28 y            28 z         1.00000
          10                30 y            30 z         1.00000
          11                32 y            32 z         1.00000
          12                41 y            41 z         1.00000
          13                42 y            42 z         1.00000
          14                45 y            45 z         1.00000
          15                46 y            46 z         1.00000
          16                49 y            49 z         1.00000
          17                51 y            51 z         1.00000
          18                58 y            58 z         1.00000
          19                59 y            59 z         1.00000
          20                61 y            61 z         1.00000
          21                75 y            75 z         1.00000
          22                79 y            79 z         1.00000
          23                83 y            83 z         1.00000
          24                85 y            85 z         1.00000
          25                90 y            90 z         1.00000
          26                94 y            94 z         1.00000
          27                95 y            95 z         1.00000
          28               106 y           106 z         1.00000
          29               107 y           107 z         1.00000
          30               112 y           112 z         1.00000
          31               114 y           114 z         1.00000
          32               129 y           129 z         1.00000
          33               132 y           132 z         1.00000
          34               139 y           139 z         1.00000
          35               146 y           146 z         1.00000
          36               154 y           154 z         1.00000
          37               158 y           158 z         1.00000
          38               160 y           160 z         1.00000
          39               163 y           163 z         1.00000
          40               167 y           167 z         1.00000
          41               170 y           170 z         1.00000
          42               171 y           171 z         1.00000
          43               184 y           184 z         1.00000
          44               189 y           189 z         1.00000
          45               190 y           190 z         1.00000
          46               201 y           201 z         1.00000
          47               203 y           203 z         1.00000
          48               210 y           210 z         1.00000
          49               211 y           211 z         1.00000
          50               213 y           213 z         1.00000
          51               216 y           216 z         1.00000
          52               218 y           218 z         1.00000
          53               247 y           247 z         1.00000
          54               259 y           259 z         1.00000
          55               262 y           262 z         1.00000
          56               264 y           264 z         1.00000
          57               265 y           265 z         1.00000
          58               270 y           270 z         1.00000
          59               277 y           277 z         1.00000
          60               281 y           281 z         1.00000
          61               282 y           282 z         1.00000
          62               292 y           292 z         1.00000
          63               296 y           296 z         1.00000
          64               310 y           310 z         1.00000
          65               311 y           311 z         1.00000
          66               320 y           320 z         1.00000
          67               338 y           338 z         1.00000
          68               346 y           346 z         1.00000
          69               356 y           356 z         1.00000
          70               361 y           361 z         1.00000
          71               365 y           365 z         1.00000
          72               372 y           372 z         1.00000
          73               376 y           376 z         1.00000
          74               381 y           381 z         1.00000
          75               393 y           393 z         1.00000
          76               401 y           401 z         1.00000
          77               402 y           402 z         1.00000
          78               409 y           409 z         1.00000
          79               413 y           413 z         1.00000
          80               417 y           417 z         1.00000
          81               432 y           432 z         1.00000
          82               434 y           434 z         1.00000
          83               436 y           436 z         1.00000
          84               439 y           439 z         1.00000
          85               440 y           440 z         1.00000
          86               441 y           441 z         1.00000
          87               446 y           446 z         1.00000
          88               447 y           447 z         1.00000
          89               452 y           452 z         1.00000
          90               453 y           453 z         1.00000
[...]
    541 y          3.920675      3.919716    -0.000960    Cartesian   -0.02
    541 z         11.762026     11.759391    -0.002635    Cartesian   -0.02
    542 x          9.801689      9.803663     0.001975    Cartesian    0.02
    542 y         -1.960338     -1.960434    -0.000096    Cartesian    0.00
    542 z         13.722364     13.723677     0.001313    Cartesian    0.01
    543 x          9.801689      9.805565     0.003876    Cartesian    0.04
    543 y          9.801689      9.803134     0.001445    Cartesian    0.01
    543 z          9.801689      9.803134     0.001445    Cartesian    0.01
    544 x          3.920675      3.922215     0.001539    Cartesian    0.04
    544 y          3.920675      3.920717     0.000041    Cartesian    0.00
    544 z         15.682702     15.680866    -0.001836    Cartesian   -0.01
    545 x         -3.920675     -3.917718     0.002957    Cartesian   -0.08
    545 y          0.000000      0.000000     0.000000    Cartesian    0.00
    545 z         15.682702     15.679398    -0.003304    Cartesian   -0.02
    546 x         15.682702     15.680011    -0.002691    Cartesian   -0.02
    546 y          0.000000      0.000000     0.000000    Cartesian    0.00
    546 z          7.841351      7.838268    -0.003083    Cartesian   -0.04
    547 x         -5.881013     -5.878937     0.002076    Cartesian   -0.04
    547 y          5.881013      5.879495    -0.001518    Cartesian   -0.03
    547 z         13.722364     13.720122    -0.002242    Cartesian   -0.02
    548 x         -0.000000      0.001036     0.001036    Cartesian *******
    548 y         11.762026     11.759349    -0.002677    Cartesian   -0.02
    548 z         11.762026     11.759349    -0.002677    Cartesian   -0.02
    549 x         17.643040     17.643764     0.000724    Cartesian    0.00
    549 y         -1.960338     -1.960241     0.000097    Cartesian   -0.00
    549 z         -1.960338     -1.960241     0.000097    Cartesian   -0.00
    550 x         -7.841351     -7.837250     0.004101    Cartesian   -0.05
    550 y          7.841351      7.838144    -0.003207    Cartesian   -0.04
    550 z         11.762026     11.757576    -0.004451    Cartesian   -0.04
    551 x        -15.682702    -15.676172     0.006530    Cartesian   -0.04
    551 y          0.000000      0.000000     0.000000    Cartesian    0.00
    551 z          0.000000      0.000000     0.000000    Cartesian    0.00
    552 x          3.920675      3.921777     0.001101    Cartesian    0.03
    552 y         11.762026     11.760058    -0.001969    Cartesian   -0.02
    552 z         11.762026     11.760058    -0.001969    Cartesian   -0.02
    553 x          1.960338      1.960970     0.000632    Cartesian    0.03
    553 y          9.801689      9.801934     0.000246    Cartesian    0.00
    553 z         13.722364     13.722837     0.000473    Cartesian    0.00
    554 x         -3.920675     -3.917833     0.002842    Cartesian   -0.07
    554 y          3.920675      3.919040    -0.001635    Cartesian   -0.04
    554 z         15.682702     15.678915    -0.003787    Cartesian   -0.02
    555 x         15.682702     15.680673    -0.002029    Cartesian   -0.01
    555 y          3.920675      3.919913    -0.000762    Cartesian   -0.02
    555 z          7.841351      7.838753    -0.002598    Cartesian   -0.03
    556 x         13.722364     13.723862     0.001498    Cartesian    0.01
    556 y          5.881013      5.881163     0.000149    Cartesian    0.00
    556 z          9.801689      9.801745     0.000056    Cartesian    0.00
    557 x        -11.762026    -11.755863     0.006164    Cartesian   -0.05
    557 y          7.841351      7.837892    -0.003459    Cartesian   -0.04
    557 z          7.841351      7.837892    -0.003459    Cartesian   -0.04
    558 x          7.841351      7.841371     0.000020    Cartesian    0.00
    558 y          0.000000      0.000000     0.000000    Cartesian    0.00
    558 z         15.682702     15.679986    -0.002716    Cartesian   -0.02
    559 x        -13.722364    -13.718434     0.003931    Cartesian   -0.03
    559 y          5.881013      5.879914    -0.001100    Cartesian   -0.02
    559 z          5.881013      5.879914    -0.001100    Cartesian   -0.02
    560 x         -1.960338     -1.960527    -0.000189    Cartesian    0.01
    560 y          9.801689      9.801317    -0.000372    Cartesian   -0.00
    560 z         13.722364     13.722096    -0.000268    Cartesian   -0.00
    561 x          9.801689      9.803763     0.002075    Cartesian    0.02
    561 y          5.881013      5.881839     0.000826    Cartesian    0.01
    561 z         13.722364     13.723715     0.001351    Cartesian    0.01
    562 x        -15.682702    -15.675846     0.006856    Cartesian   -0.04
    562 y          0.000000      0.000000     0.000000    Cartesian    0.00
    562 z          3.920675      3.918410    -0.002265    Cartesian   -0.06
    563 x         -3.920675     -3.919583     0.001093    Cartesian   -0.03
    563 y         11.762026     11.759440    -0.002586    Cartesian   -0.02
    563 z         11.762026     11.759440    -0.002586    Cartesian   -0.02
    564 x        -11.762026    -11.757158     0.004869    Cartesian   -0.04
    564 y          0.000000      0.000000     0.000000    Cartesian    0.00
    564 z         11.762026     11.758262    -0.003765    Cartesian   -0.03
    565 x          7.841351      7.842397     0.001046    Cartesian    0.01
    565 y          3.920675      3.920768     0.000093    Cartesian    0.00
    565 z         15.682702     15.680672    -0.002030    Cartesian   -0.01
    566 x          5.881013      5.882689     0.001675    Cartesian    0.03
    566 y          9.801689      9.802523     0.000835    Cartesian    0.01
    566 z         13.722364     13.723463     0.001098    Cartesian    0.01
    567 x         -0.000000      0.000935     0.000935    Cartesian *******
    567 y          7.841351      7.840589    -0.000761    Cartesian   -0.01
    567 z         15.682702     15.680607    -0.002095    Cartesian   -0.01
    568 x         17.643040     17.643988     0.000948    Cartesian    0.01
    568 y         -1.960338     -1.960290     0.000048    Cartesian   -0.00
    568 z          5.881013      5.881671     0.000657    Cartesian    0.01
    569 x         11.762026     11.763022     0.000995    Cartesian    0.01
    569 y          7.841351      7.839524    -0.001827    Cartesian   -0.02
    569 z         11.762026     11.760030    -0.001997    Cartesian   -0.02
    570 x         -9.801689     -9.800253     0.001435    Cartesian   -0.01
    570 y         -1.960338     -1.959838     0.000500    Cartesian   -0.03
    570 z         13.722364     13.720830    -0.001534    Cartesian   -0.01
    571 x         -9.801689     -9.799508     0.002181    Cartesian   -0.02
    571 y          9.801689      9.799874    -0.001815    Cartesian   -0.02
    571 z          9.801689      9.799874    -0.001815    Cartesian   -0.02
    572 x        -15.682702    -15.676729     0.005973    Cartesian   -0.04
    572 y          3.920675      3.919927    -0.000749    Cartesian   -0.02
    572 z          3.920675      3.919927    -0.000749    Cartesian   -0.02
    573 x          3.920675      3.921441     0.000765    Cartesian    0.02
    573 y          7.841351      7.840996    -0.000355    Cartesian   -0.00
    573 z         15.682702     15.681076    -0.001626    Cartesian   -0.01
    574 x          1.960338      1.960813     0.000475    Cartesian    0.02
    574 y         -1.960338     -1.961256    -0.000918    Cartesian    0.05
    574 z         17.643040     17.643611     0.000572    Cartesian    0.00
    575 x        -11.762026    -11.757519     0.004507    Cartesian   -0.04
    575 y          3.920675      3.918766    -0.001909    Cartesian   -0.05
    575 z         11.762026     11.758349    -0.003677    Cartesian   -0.03
    576 x          7.841351      7.843196     0.001845    Cartesian    0.02
    576 y         11.762026     11.761060    -0.000966    Cartesian   -0.01
    576 z         11.762026     11.761060    -0.000966    Cartesian   -0.01
    577 x        -13.722364    -13.719973     0.002392    Cartesian   -0.02
    577 y         -1.960338     -1.959931     0.000407    Cartesian   -0.02
    577 z          9.801689      9.800675    -0.001013    Cartesian   -0.01
    578 x         -1.960338     -1.960230     0.000108    Cartesian   -0.01
    578 y         -1.960338     -1.960535    -0.000197    Cartesian    0.01
    578 z         17.643040     17.643419     0.000380    Cartesian    0.00
    579 x         -7.841351     -7.839254     0.002097    Cartesian   -0.03
    579 y          0.000000      0.000000     0.000000    Cartesian    0.00
    579 z         15.682702     15.679207    -0.003495    Cartesian   -0.02
    580 x         -3.920675     -3.919042     0.001633    Cartesian   -0.04
    580 y          7.841351      7.840344    -0.001007    Cartesian   -0.01
    580 z         15.682702     15.679763    -0.002939    Cartesian   -0.02
    581 x         15.682702     15.681257    -0.001445    Cartesian   -0.01
    581 y          7.841351      7.839631    -0.001720    Cartesian   -0.02
    581 z          7.841351      7.839631    -0.001720    Cartesian   -0.02
    582 x         -5.881013     -5.880651     0.000363    Cartesian   -0.01
    582 y          9.801689      9.801557    -0.000132    Cartesian   -0.00
    582 z         13.722364     13.721903    -0.000461    Cartesian   -0.00
    583 x          5.881013      5.881752     0.000739    Cartesian    0.01
    583 y         17.643040     17.642949    -0.000090    Cartesian   -0.00
    583 z         -1.960338     -1.960730    -0.000392    Cartesian    0.02
    584 x         19.603377     19.600079    -0.003299    Cartesian   -0.02
    584 y          0.000000      0.000000     0.000000    Cartesian    0.00
    584 z          0.000000      0.000000     0.000000    Cartesian    0.00
    585 x         17.643040     17.643452     0.000412    Cartesian    0.00
    585 y          5.881013      5.880972    -0.000042    Cartesian   -0.00
    585 z          5.881013      5.880972    -0.000042    Cartesian   -0.00
    586 x         -7.841351     -7.839486     0.001865    Cartesian   -0.02
    586 y          3.920675      3.919523    -0.001152    Cartesian   -0.03
    586 z         15.682702     15.678908    -0.003794    Cartesian   -0.02
    587 x         -9.801689     -9.800590     0.001098    Cartesian   -0.01
    587 y          5.881013      5.879971    -0.001043    Cartesian   -0.02
    587 z         13.722364     13.720819    -0.001545    Cartesian   -0.01
    588 x        -15.682702    -15.677248     0.005454    Cartesian   -0.03
    588 y          0.000000      0.000000     0.000000    Cartesian    0.00
    588 z          7.841351      7.840025    -0.001326    Cartesian   -0.02
    589 x          1.960338      1.960617     0.000279    Cartesian    0.01
    589 y          5.881013      5.881372     0.000359    Cartesian    0.01
    589 z         17.643040     17.642848    -0.000191    Cartesian   -0.00
    590 x         15.682702     15.680936    -0.001766    Cartesian   -0.01
    590 y          0.000000      0.000000     0.000000    Cartesian    0.00
    590 z         11.762026     11.759307    -0.002720    Cartesian   -0.02
    591 x         13.722364     13.722551     0.000187    Cartesian    0.00
    591 y         -1.960338     -1.960221     0.000117    Cartesian   -0.01
    591 z         13.722364     13.721496    -0.000869    Cartesian   -0.01
    592 x         13.722364     13.723445     0.001080    Cartesian    0.01
    592 y          9.801689      9.801437    -0.000252    Cartesian   -0.00
    592 z          9.801689      9.801437    -0.000252    Cartesian   -0.00
    593 x          7.841351      7.842088     0.000737    Cartesian    0.01
    593 y          7.841351      7.840865    -0.000486    Cartesian   -0.01
    593 z         15.682702     15.680578    -0.002124    Cartesian   -0.01
    594 x        -13.722364    -13.720271     0.002093    Cartesian   -0.02
    594 y          5.881013      5.880214    -0.000799    Cartesian   -0.01
    594 z          9.801689      9.800463    -0.001225    Cartesian   -0.01
    595 x         19.603377     19.599437    -0.003940    Cartesian   -0.02
    595 y          0.000000      0.000000     0.000000    Cartesian    0.00
    595 z          3.920675      3.919670    -0.001006    Cartesian   -0.03
    596 x         -1.960338     -1.960012     0.000326    Cartesian   -0.02
    596 y         17.643040     17.642398    -0.000642    Cartesian   -0.00
    596 z          5.881013      5.880857    -0.000157    Cartesian   -0.00
    597 x         -7.841351     -7.839233     0.002118    Cartesian   -0.03
    597 y         11.762026     11.758861    -0.003166    Cartesian   -0.03
    597 z         11.762026     11.758861    -0.003166    Cartesian   -0.03
    598 x         11.762026     11.762123     0.000096    Cartesian    0.00
    598 y          0.000000      0.000000     0.000000    Cartesian    0.00
    598 z         15.682702     15.679204    -0.003498    Cartesian   -0.02
    599 x          9.801689      9.802637     0.000948    Cartesian    0.01
    599 y          9.801689      9.801465    -0.000224    Cartesian   -0.00
    599 z         13.722364     13.722216    -0.000148    Cartesian   -0.00
    600 x        -15.682702    -15.677079     0.005623    Cartesian   -0.04
    600 y          3.920675      3.919710    -0.000965    Cartesian   -0.02
    600 z          7.841351      7.839117    -0.002234    Cartesian   -0.03
    601 x        -17.643040    -17.640523     0.002516    Cartesian   -0.01
    601 y         -1.960338     -1.960055     0.000283    Cartesian   -0.01
    601 z         -1.960338     -1.960055     0.000283    Cartesian   -0.01
    602 x         15.682702     15.680631    -0.002070    Cartesian   -0.01
    602 y          3.920675      3.919483    -0.001192    Cartesian   -0.03
    602 z         11.762026     11.758878    -0.003149    Cartesian   -0.03
    603 x         -5.881013     -5.880575     0.000439    Cartesian   -0.01
    603 y         -1.960338     -1.960110     0.000228    Cartesian   -0.01
    603 z         17.643040     17.641901    -0.001138    Cartesian   -0.01
    604 x        -11.762026    -11.757617     0.004409    Cartesian   -0.04
    604 y          7.841351      7.839031    -0.002320    Cartesian   -0.03
    604 z         11.762026     11.758272    -0.003755    Cartesian   -0.03
    605 x          5.881013      5.881531     0.000518    Cartesian    0.01
    605 y         17.643040     17.643215     0.000175    Cartesian    0.00
    605 z          5.881013      5.881361     0.000348    Cartesian    0.01
    606 x         19.603377     19.598664    -0.004713    Cartesian   -0.02
    606 y          3.920675      3.919642    -0.001034    Cartesian   -0.03
    606 z          3.920675      3.919642    -0.001034    Cartesian   -0.03
    607 x         17.643040     17.642099    -0.000941    Cartesian   -0.01
    607 y          9.801689      9.800610    -0.001078    Cartesian   -0.01
    607 z         -1.960338     -1.960245     0.000093    Cartesian   -0.00
    608 x         11.762026     11.761061    -0.000966    Cartesian   -0.01
    608 y          3.920675      3.919665    -0.001010    Cartesian   -0.03
    608 z         15.682702     15.679126    -0.003576    Cartesian   -0.02
    609 x          1.960338      1.960392     0.000055    Cartesian    0.00
    609 y         13.722364     13.721571    -0.000793    Cartesian   -0.01
    609 z         13.722364     13.721571    -0.000793    Cartesian   -0.01
    610 x         13.722364     13.721445    -0.000920    Cartesian   -0.01
    610 y          5.881013      5.879881    -0.001132    Cartesian   -0.02
    610 z         13.722364     13.720871    -0.001493    Cartesian   -0.01
    611 x         -0.000000      0.000826     0.000826    Cartesian *******
    611 y         11.762026     11.759230    -0.002797    Cartesian   -0.02
    611 z         15.682702     15.678659    -0.004043    Cartesian   -0.03
    612 x         -0.000000      0.000993     0.000993    Cartesian *******
    612 y          0.000000      0.000000     0.000000    Cartesian    0.00
    612 z         19.603377     19.598370    -0.005007    Cartesian   -0.03
    613 x         -1.960338     -1.959560     0.000778    Cartesian   -0.04
    613 y         13.722364     13.720553    -0.001811    Cartesian   -0.01
    613 z         13.722364     13.720553    -0.001811    Cartesian   -0.01
    614 x         -7.841351     -7.838724     0.002627    Cartesian   -0.03
    614 y          7.841351      7.838966    -0.002385    Cartesian   -0.03
    614 z         15.682702     15.677767    -0.004935    Cartesian   -0.03
    615 x         11.762026     11.761510    -0.000517    Cartesian   -0.00
    615 y         11.762026     11.759580    -0.002446    Cartesian   -0.02
    615 z         11.762026     11.759580    -0.002446    Cartesian   -0.02
    616 x          9.801689      9.801091    -0.000598    Cartesian   -0.01
    616 y         -1.960338     -1.959717     0.000621    Cartesian   -0.03
    616 z         17.643040     17.641096    -0.001943    Cartesian   -0.01
    617 x          3.920675      3.920322    -0.000353    Cartesian   -0.01
    617 y         11.762026     11.759381    -0.002646    Cartesian   -0.02
    617 z         15.682702     15.678844    -0.003858    Cartesian   -0.02
    618 x          3.920675      3.920601    -0.000074    Cartesian   -0.00
    618 y          0.000000      0.000000     0.000000    Cartesian    0.00
    618 z         19.603377     19.597380    -0.005997    Cartesian   -0.03
    619 x        -17.643040    -17.639713     0.003327    Cartesian   -0.02
    619 y         -1.960338     -1.959737     0.000600    Cartesian   -0.03
    619 z          5.881013      5.879856    -0.001158    Cartesian   -0.02
    620 x         -5.881013     -5.879833     0.001180    Cartesian   -0.02
    620 y          5.881013      5.879877    -0.001136    Cartesian   -0.02
    620 z         17.643040     17.640409    -0.002631    Cartesian   -0.01
    621 x          5.881013      5.880231    -0.000782    Cartesian   -0.01
    621 y         13.722364     13.720807    -0.001557    Cartesian   -0.01
    621 z         13.722364     13.720807    -0.001557    Cartesian   -0.01
--------------------------------------------------------------------------------


  Time to end of optimisation  =       89.8345 seconds


  Peak dynamic memory used =    1719.07 MB 


  Timing analysis for GULP :

--------------------------------------------------------------------------------
  Task / Subroutine                                          Time (Seconds)
--------------------------------------------------------------------------------
  Calculation of reciprocal space energy and derivatives          0.0002
  Calculation of reciprocal space energy using symmetry           0.0003
  Calculation of real space energy and derivatives                0.0019
  Calculation of real space energy using symmetry                 0.0032
  Calculation for region 1 energy and derivatives (2-b)          48.8148
  Calculation for region 2a energy                               12.8694
  Calculation for region 2b energy                                0.0024
  Calculation and manipulation of Hessian matrix                 25.2670
  Calculation of matrix inversion                                 2.0259
  Symmetry generation of equivalent positions                     0.0017
--------------------------------------------------------------------------------
  Total CPU time                                                 89.8346
--------------------------------------------------------------------------------


  Dump file written as Li3OCl.grs


  Job Finished at 13:11.21 21st October    2020                               

