********************************************************************************
*                       GENERAL UTILITY LATTICE PROGRAM                        *
*                                 Julian Gale                                  *
*                       Curtin Institute for Computation                       *
*                    School of Molecular and Life Sciences                     *
*                    Curtin University, Western Australia                      *
********************************************************************************
* Version = 5.2.0 * Last modified =  10th September 2020                       *
********************************************************************************
*  optimise     - perform optimisation run                                     *
*  conp         - constant pressure calculation                                *
*  property     - calculate properties for final geometry                      *
*  defect       - perform defect calculation after bulk run                    *
*  compare      - compare initial and final structures                         *
********************************************************************************

  Job Started  at 13:11.21 21st October    2020                               

  Number of CPUs =     1


  Total number of configurations input =      1

********************************************************************************
*  Input for Configuration =   1                                               *
********************************************************************************

  Formula = ClOLi3                                                      

  Number of irreducible atoms/shells =       5


  Total number atoms/shells =       7

  Dimensionality = 3               :  Bulk   


  Symmetry :

  Crystal family                   :  Cubic       
  Crystal class  (Groth - 1921)    :  Cubic Hexakisoctahedral              

  Space group (centrosymmetric)    :  P M 3 M         

  Patterson group                  :  P m -3 m 

  Cartesian lattice vectors (Angstroms) :

        3.918873    0.000000    0.000000
        0.000000    3.918873    0.000000
        0.000000    0.000000    3.918873

  Cell parameters (Angstroms/Degrees):

  a =       3.9189    alpha =  90.0000
  b =       3.9189    beta  =  90.0000
  c =       3.9189    gamma =  90.0000

  Initial cell volume =          60.184349 Angs**3

  Temperature of configuration =   0.00     K 

  Pressure of configuration =         0.000 GPa 

  Fractional coordinates of asymmetric unit :

--------------------------------------------------------------------------------
   No.  Atomic       x           y          z         Charge      Occupancy
        Label      (Frac)      (Frac)     (Frac)        (e)         (Frac)  
--------------------------------------------------------------------------------
      1 Cl    c    0.000000    0.000000    0.000000     1.48500    1.000000    
      2 O     c    0.500000    0.500000    0.500000     0.18300    1.000000    
      3 Li    c    0.500000    0.500000    0.000000     1.00000    1.000000    
      4 Cl    s    0.000000    0.000000    0.000000    -2.48500    1.000000    
      5 O     s    0.500000    0.500000    0.500000    -2.18300    1.000000    
--------------------------------------------------------------------------------


  Constraints : 

--------------------------------------------------------------------------------
  Constraint no.      Unconstrained     Constrained    Coefficient    Offset
                         Variable         Variable
--------------------------------------------------------------------------------
           1              Strain 1        Strain 2       1.00000      0.0000
           2              Strain 1        Strain 3       1.00000      0.0000
--------------------------------------------------------------------------------


********************************************************************************
*  General input information                                                   *
********************************************************************************

  Species output for all configurations : 

--------------------------------------------------------------------------------
  Species    Type    Atomic    Atomic    Charge       Radii (Angs)     Library
                     Number     Mass       (e)     Cova   Ionic  VDW   Symbol
--------------------------------------------------------------------------------
    Li       Core        3       6.94   1.000000   0.680  0.000  1.800          
    O        Core        8      16.00   0.183000   0.730  0.000  1.360          
    O        Shell       8       0.00  -2.183000   0.730  0.000  1.360          
    Cl       Core       17      35.45   1.485000   0.990  0.000  1.650          
    Cl       Shell      17       0.00  -2.485000   0.990  0.000  1.650          
--------------------------------------------------------------------------------


  Lattice summation method               =    Ewald          (3-D)
                                         =    Parry          (2-D)
                                         =    Saunders et al (1-D)
  Accuracy factor for lattice sums       =   12.000


  Analytic derivatives to be used

  Time limit = Infinity

  Maximum range for interatomic potentials =    100000.000000 Angstroms

  General interatomic potentials :

--------------------------------------------------------------------------------
Atom  Types   Potential      Parameter       Value         Units   Cutoffs(Ang)
  1     2                                                            Min /  Max 
--------------------------------------------------------------------------------
O    c O    s Spring (c-s)  Spring k 2       593.72000    eV*Ang^-2 0.000  0.800
                            Spring k 4       0.0000000    eV*Ang^-4 
--------------------------------------------------------------------------------
Cl   c Cl   s Spring (c-s)  Spring k 2       29.380000    eV*Ang^-2 0.000  0.800
                            Spring k 4       0.0000000    eV*Ang^-4 
--------------------------------------------------------------------------------
Li   c Li   c Buckingham    Buckingham A     360.53000    eV        0.000 12.000
                            Buckingham rho  0.16100000    Ang       
                            Buckingham C     0.0000000    eV*Ang^6  
--------------------------------------------------------------------------------
Li   c O    s Buckingham    Buckingham A     292.30000    eV        0.000 12.000
                            Buckingham rho  0.34720000    Ang       
                            Buckingham C     0.0000000    eV*Ang^6  
--------------------------------------------------------------------------------
Li   c Cl   s Buckingham    Buckingham A     421.04000    eV        0.000 12.000
                            Buckingham rho  0.33400000    Ang       
                            Buckingham C     0.0000000    eV*Ang^6  
--------------------------------------------------------------------------------
O    s O    s Buckingham    Buckingham A     22764.300    eV        0.000 12.000
                            Buckingham rho  0.14900000    Ang       
                            Buckingham C     13.190000    eV*Ang^6  
--------------------------------------------------------------------------------
O    s Cl   s Buckingham    Buckingham A     8286.9100    eV        0.000 12.000
                            Buckingham rho  0.25900000    Ang       
                            Buckingham C     62.200000    eV*Ang^6  
--------------------------------------------------------------------------------
Cl   s Cl   s Buckingham    Buckingham A     1227.2000    eV        0.000 12.000
                            Buckingham rho  0.32100000    Ang       
                            Buckingham C     14.530000    eV*Ang^6  
--------------------------------------------------------------------------------

********************************************************************************
*  Output for configuration   1                                                *
********************************************************************************


  Components of energy : 

--------------------------------------------------------------------------------
  Interatomic potentials     =           7.26836263 eV    
  Monopole - monopole (real) =         -11.53475722 eV    
  Monopole - monopole (recip)=         -33.94580548 eV    
  Monopole - monopole (total)=         -45.48056271 eV    
--------------------------------------------------------------------------------
  Total lattice energy       =         -38.21220008 eV    
--------------------------------------------------------------------------------
  Total lattice energy       =           -3686.8932 kJ/(mole unit cells)
--------------------------------------------------------------------------------


  Number of variables =        1

  Maximum number of calculations  =          1000
  Maximum Hessian update interval =            10
  Maximum step size               =   1.000000000
  Maximum parameter tolerance     =   0.000010000
  Maximum function  tolerance     =   0.000010000
  Maximum gradient  tolerance     =   0.001000000
  Maximum gradient  component     =   0.010000000

  Symmetry constrained optimisation

  Symmetry used for second derivatives

  Cell parameters to be optimised using strains

  Newton-Raphson optimiser to be used

  BFGS hessian update to be used

  Lower half triangular hessian to be used

  Start of bulk optimisation :

  Cycle:      0 Energy:       -38.212200  Gnorm:      0.095699  CPU:    0.010
  ** Hessian calculated **
  Cycle:      1 Energy:       -38.212222  Gnorm:      0.000105  CPU:    0.011


  **** Optimisation achieved ****


  Final energy =     -38.21222207 eV
  Final Gnorm  =       0.00000016

  Components of energy : 

--------------------------------------------------------------------------------
  Interatomic potentials     =           7.24743141 eV    
  Monopole - monopole (real) =         -11.52945423 eV    
  Monopole - monopole (recip)=         -33.93019924 eV    
  Monopole - monopole (total)=         -45.45965348 eV    
--------------------------------------------------------------------------------
  Total lattice energy       =         -38.21222207 eV    
--------------------------------------------------------------------------------
  Total lattice energy       =           -3686.8953 kJ/(mole unit cells)
--------------------------------------------------------------------------------

  Final asymmetric unit coordinates :

--------------------------------------------------------------------------------
   No.  Atomic        x           y           z         Radius
        Label       (Frac)      (Frac)      (Frac)       (Angs) 
--------------------------------------------------------------------------------
     1  Cl    c     0.000000    0.000000    0.000000    0.000000
     2  O     c     0.500000    0.500000    0.500000    0.000000
     3  Li    c     0.500000    0.500000    0.000000    0.000000
     4  Cl    s     0.000000    0.000000    0.000000    0.000000
     5  O     s     0.500000    0.500000    0.500000    0.000000
--------------------------------------------------------------------------------

  Final Cartesian lattice vectors (Angstroms) :

        3.920675    0.000000    0.000000
        0.000000    3.920675    0.000000
        0.000000    0.000000    3.920675


  Final cell parameters and derivatives :

--------------------------------------------------------------------------------
       a            3.920675 Angstrom     dE/de1(xx)    -0.000000 eV/strain
       b            3.920675 Angstrom     dE/de2(yy)     0.000000 eV/strain
       c            3.920675 Angstrom     dE/de3(zz)     0.000000 eV/strain
       alpha       90.000000 Degrees      dE/de4(yz)     0.000000 eV/strain
       beta        90.000000 Degrees      dE/de5(xz)     0.000000 eV/strain
       gamma       90.000000 Degrees      dE/de6(xy)     0.000000 eV/strain
--------------------------------------------------------------------------------

  Primitive cell volume =            60.267433 Angs**3

  Density of cell =      1.991276 g/cm**3

  Non-primitive cell volume =            60.267433 Angs**3


  Final internal derivatives :

--------------------------------------------------------------------------------
   No.  Atomic          a             b             c           Radius
        Label          (eV)          (eV)          (eV)        (eV/Angs)
--------------------------------------------------------------------------------
      1 Cl    c       0.000000      0.000000      0.000000      0.000000
      2 O     c       0.000000      0.000000      0.000000      0.000000
      3 Li    c       0.000000      0.000000      0.000000      0.000000
      4 Cl    s       0.000000      0.000000      0.000000      0.000000
      5 O     s       0.000000      0.000000      0.000000      0.000000
--------------------------------------------------------------------------------
  Maximum abs         0.000000      0.000000      0.000000      0.000000
--------------------------------------------------------------------------------

  Comparison of initial and final structures : 

--------------------------------------------------------------------------------
  Parameter   Initial value   Final value   Difference    Units      Percent
--------------------------------------------------------------------------------
    Volume        60.184349     60.267433     0.083084    Angs**3      0.14
    a              3.918873      3.920675     0.001802    Angstroms    0.05
    b              3.918873      3.920675     0.001802    Angstroms    0.05
    c              3.918873      3.920675     0.001802    Angstroms    0.05
    alpha         90.000000     90.000000     0.000000    Degrees      0.00
    beta          90.000000     90.000000     0.000000    Degrees      0.00
    gamma         90.000000     90.000000     0.000000    Degrees      0.00
      1 x          0.000000      0.000000     0.000000    Fractional   0.00
      1 y          0.000000      0.000000     0.000000    Fractional   0.00
      1 z          0.000000      0.000000     0.000000    Fractional   0.00
      2 x          0.500000      0.500000     0.000000    Fractional   0.00
      2 y          0.500000      0.500000     0.000000    Fractional   0.00
      2 z          0.500000      0.500000     0.000000    Fractional   0.00
      3 x          0.500000      0.500000     0.000000    Fractional   0.00
      3 y          0.500000      0.500000     0.000000    Fractional   0.00
      3 z          0.000000      0.000000     0.000000    Fractional   0.00
      4 x          0.000000      0.000000     0.000000    Fractional   0.00
      4 y          0.000000      0.000000     0.000000    Fractional   0.00
      4 z          0.000000      0.000000     0.000000    Fractional   0.00
      5 x          0.500000      0.500000     0.000000    Fractional   0.00
      5 y          0.500000      0.500000     0.000000    Fractional   0.00
      5 z          0.500000      0.500000     0.000000    Fractional   0.00
--------------------------------------------------------------------------------


  Born effective charge tensors : 

-------------------------------------------------------------------------------
  Atom             x           y             z
-------------------------------------------------------------------------------
    1 Cl    x      -0.9489     -0.0000     -0.0000
            y      -0.0000     -0.9489     -0.0000
            z      -0.0000     -0.0000     -0.9489
-------------------------------------------------------------------------------
    2 O     x      -2.4688      0.0000      0.0000
            y       0.0000     -2.4688      0.0000
            z       0.0000      0.0000     -2.4688
-------------------------------------------------------------------------------
    3 Li    x       1.3129      0.0000     -0.0000
            y       0.0000      1.3129      0.0000
            z      -0.0000      0.0000      0.7919
-------------------------------------------------------------------------------




  Elastic Constant Matrix: (Units=GPa)

-------------------------------------------------------------------------------
  Indices      1         2         3         4         5         6    
-------------------------------------------------------------------------------
       1     94.3368   44.9178   44.9178    0.0000   -0.0000    0.0000
       2     44.9178   94.3368   44.9178   -0.0000    0.0000   -0.0000
       3     44.9178   44.9178   94.3368    0.0000   -0.0000    0.0000
       4      0.0000   -0.0000    0.0000   44.9178   -0.0000    0.0000
       5     -0.0000    0.0000   -0.0000   -0.0000   44.9178    0.0000
       6      0.0000   -0.0000    0.0000    0.0000    0.0000   44.9178
-------------------------------------------------------------------------------


  Elastic Compliance Matrix: (Units=1/GPa)

-------------------------------------------------------------------------------
  Indices      1         2         3         4         5         6    
-------------------------------------------------------------------------------
       1    0.015300 -0.004935 -0.004935 -0.000000  0.000000 -0.000000
       2   -0.004935  0.015300 -0.004935  0.000000 -0.000000  0.000000
       3   -0.004935 -0.004935  0.015300 -0.000000  0.000000 -0.000000
       4   -0.000000  0.000000 -0.000000  0.022263  0.000000 -0.000000
       5    0.000000 -0.000000  0.000000  0.000000  0.022263 -0.000000
       6   -0.000000  0.000000 -0.000000 -0.000000 -0.000000  0.022263
-------------------------------------------------------------------------------

  Mechanical properties :

-------------------------------------------------------------------------------
  Convention :                    Reuss         Voigt         Hill
-------------------------------------------------------------------------------
  Bulk  Modulus (GPa)     =      61.39080      61.39080      61.39080
  Shear Modulus (GPa)     =      33.84570      36.83448      35.34009
-------------------------------------------------------------------------------
  Velocity S-wave (km/s)  =       4.12274       4.30092       4.21277
  Velocity P-wave (km/s)  =       7.31386       7.44942       7.38195
-------------------------------------------------------------------------------
  Compressibility (1/GPa) =    0.01628909
-------------------------------------------------------------------------------
  Stress axis :                     x             y             z
-------------------------------------------------------------------------------
  Youngs Moduli (GPa)     =      65.35947      65.35947      65.35947
-------------------------------------------------------------------------------
  Poissons Ratio (x)      =                     0.32256       0.32256
  Poissons Ratio (y)      =       0.32256                     0.32256
  Poissons Ratio (z)      =       0.32256       0.32256
-------------------------------------------------------------------------------


  Piezoelectric Strain Matrix: (Units=C/m**2)

-------------------------------------------------------------------------------
  Indices      1         2         3         4         5         6    
-------------------------------------------------------------------------------
       x    -0.00000   0.00000   0.00000  -0.00000  -0.00000   0.00000
       y    -0.00000   0.00000   0.00000  -0.00000  -0.00000  -0.00000
       z     0.00000   0.00000   0.00000   0.00000  -0.00000  -0.00000
-------------------------------------------------------------------------------


  Piezoelectric Stress Matrix: (Units=10**-11 C/N)

-------------------------------------------------------------------------------
  Indices      1         2         3         4         5         6    
-------------------------------------------------------------------------------
       x    -0.00000   0.00000   0.00000  -0.00000  -0.00000   0.00000
       y    -0.00000   0.00000   0.00000  -0.00000  -0.00000  -0.00000
       z    -0.00000  -0.00000   0.00000   0.00000  -0.00000  -0.00000
-------------------------------------------------------------------------------


  Static dielectric constant tensor : 

-------------------------------------------------------------------------------
              x         y         z
-------------------------------------------------------------------------------
       x    12.11703   0.00000  -0.00000
       y     0.00000  12.11703  -0.00000
       z    -0.00000  -0.00000  12.11703
--------------------------------------------------------------------------------

  High frequency dielectric constant tensor : 

-------------------------------------------------------------------------------
              x         y         z
-------------------------------------------------------------------------------
       x     1.74104   0.00000   0.00000
       y     0.00000   1.74104   0.00000
       z     0.00000   0.00000   1.74104
-------------------------------------------------------------------------------

  Static refractive indices : 

-------------------------------------------------------------------------------
    1 =    3.48095      2 =    3.48095      3 =    3.48095
-------------------------------------------------------------------------------

  High frequency refractive indices : 

-------------------------------------------------------------------------------
    1 =    1.31948      2 =    1.31948      3 =    1.31948
-------------------------------------------------------------------------------


  Time to end of optimisation =       0.0146 seconds

********************************************************************************
*  Defect calculation for configuration   1 :                                  *
********************************************************************************

  Total number of defects =      3

  Total charge on defect  =   1.00

  Defect centre is at   1.3716   0.0000   0.0000  Angs

  Region 1 radius =  20.0000      Number of ions =   3906

  Number of symmetry inequivalent region 1 ions  =    628

  Region 2 radius =  24.0000      Number of ions =   2848

  Number of symmetry inequivalent region 2a ions =    413

  Region 2a mode = 4 : screened electrostatics due to region 1 
                       neglect correction to region 1 forces from 2a
                       region 2a displacements based on defects only

  Region 2a ions will only interact with defects in region 1

  Vacancies:

--------------------------------------------------------------------------------
    Specification type     Symbol/Number         x          y          z
--------------------------------------------------------------------------------
    Cartesian                                0.000000   0.000000   0.000000
    Cartesian                                3.918873   0.000000   0.000000
--------------------------------------------------------------------------------

  Interstitials:

--------------------------------------------------------------------------------
    Specification type     Symbol/Number         x          y          z
--------------------------------------------------------------------------------
    Atom/Cartesian          Cl               1.371606   0.000000   0.000000
--------------------------------------------------------------------------------


  Symmetry reduced region 1 (Relative to defect centre) :

--------------------------------------------------------------------------------
   No.   Atomic       x            y             z       Radius  Multiplicity   
         Label      (Angs)       (Angs)        (Angs)    (Angs)     
--------------------------------------------------------------------------------
     1  Cl    c      0.0000       0.0000       0.0000    0.0000     1    Defect
     2  Li    c      0.5887 *    -1.9603 *     0.0000    0.0000     4          
     3  O     c      0.5887 *    -1.9603 *    -1.9603    0.0000     4          
     4  Li    c     -1.3716 *    -1.9603 *    -1.9603    0.0000     4          
     5  Li    c      2.5491 *    -1.9603 *    -1.9603    0.0000     4          
     6  Li    c     -3.3319 *    -1.9603 *     0.0000    0.0000     4          
     7  Cl    c     -1.3716 *     0.0000       3.9207 *  0.0000     4          
     8  O     c     -3.3319 *    -1.9603 *    -1.9603    0.0000     4          
     9  Li    c      0.5887 *    -1.9603 *     3.9207 *  0.0000     8          
    10  Cl    c      2.5491 *     0.0000       3.9207 *  0.0000     4          
    11  Li    c      4.5094 *    -1.9603 *     0.0000    0.0000     4          
    12  Cl    c     -5.2923 *     0.0000       0.0000    0.0000     1          
    13  O     c      4.5094 *    -1.9603 *    -1.9603    0.0000     4          
    14  Li    c     -3.3319 *    -1.9603 *     3.9207 *  0.0000     8          
    15  Cl    c     -1.3716 *     3.9207 *     3.9207    0.0000     4          
    16  Li    c      0.5887 *     5.8810 *     0.0000    0.0000     4          
    17  Li    c     -5.2923 *    -1.9603 *    -1.9603    0.0000     4          
    18  Cl    c      2.5491 *     3.9207 *     3.9207    0.0000     4          
    19  O     c      0.5887 *    -1.9603 *     5.8810 *  0.0000     8          
    20  Li    c      4.5094 *    -1.9603 *     3.9207 *  0.0000     8          
    21  Li    c     -1.3716 *     5.8810 *    -1.9603 *  0.0000     8          
    22  Cl    c      6.4697 *     0.0000       0.0000    0.0000     1          
    23  Cl    c     -5.2923 *     0.0000       3.9207 *  0.0000     4          
    24  Li    c      2.5491 *    -1.9603 *     5.8810 *  0.0000     8          
    25  Li    c     -3.3319 *     5.8810 *     0.0000    0.0000     4          
    26  O     c     -3.3319 *     5.8810 *    -1.9603 *  0.0000     8          
    27  Li    c      6.4697 *    -1.9603 *    -1.9603    0.0000     4          
    28  Li    c      0.5887 *     5.8810 *     3.9207 *  0.0000     8          
    29  Li    c      4.5094 *     5.8810 *     0.0000    0.0000     4          
    30  Li    c     -7.2526 *    -1.9603 *     0.0000    0.0000     4          
    31  Cl    c      6.4697 *     0.0000       3.9207 *  0.0000     4          
    32  Cl    c     -5.2923 *     3.9207 *     3.9207    0.0000     4          
    33  O     c      4.5094 *    -1.9603 *     5.8810 *  0.0000     8          
    34  O     c     -7.2526 *    -1.9603 *    -1.9603    0.0000     4          
    35  Li    c     -3.3319 *     5.8810 *     3.9207 *  0.0000     8          
    36  Cl    c     -1.3716 *     0.0000       7.8414 *  0.0000     4          
    37  Li    c      0.5887 *    -1.9603 *     7.8414 *  0.0000     8          
    38  Li    c     -5.2923 *    -1.9603 *     5.8810 *  0.0000     8          
    39  Cl    c      2.5491 *     0.0000       7.8414 *  0.0000     4          
    40  O     c      0.5887 *     5.8810 *     5.8810    0.0000     4          
    41  Li    c      4.5094 *     3.9207 *     5.8810 *  0.0000     8          
    42  Li    c     -1.3716 *     5.8810 *     5.8810    0.0000     4          
    43  Li    c     -7.2526 *    -1.9603 *     3.9207 *  0.0000     8          
    44  Cl    c      6.4697 *     3.9207 *     3.9207    0.0000     4          
    45  Li    c      8.4301 *    -1.9603 *     0.0000    0.0000     4          
    46  Li    c      2.5491 *     5.8810 *     5.8810    0.0000     4          
    47  Li    c     -3.3319 *    -1.9603 *     7.8414 *  0.0000     8          
    48  Cl    c     -1.3716 *     3.9207 *     7.8414 *  0.0000     8          
    49  O     c      8.4301 *    -1.9603 *    -1.9603    0.0000     4          
    50  O     c     -3.3319 *     5.8810 *     5.8810    0.0000     4          
    51  Li    c      6.4697 *    -1.9603 *     5.8810 *  0.0000     8          
    52  Cl    c      2.5491 *     3.9207 *     7.8414 *  0.0000     8          
    53  Cl    c     -9.2130 *     0.0000       0.0000    0.0000     1          
    54  Li    c      4.5094 *    -1.9603 *     7.8414 *  0.0000     8          
    55  Li    c     -7.2526 *     5.8810 *     0.0000    0.0000     4          
    56  Cl    c     -5.2923 *     0.0000       7.8414 *  0.0000     4          
    57  O     c      4.5094 *     5.8810 *     5.8810    0.0000     4          
    58  Li    c      8.4301 *    -1.9603 *     3.9207 *  0.0000     8          
    59  O     c     -7.2526 *    -1.9603 *     5.8810 *  0.0000     8          
    60  Li    c     -9.2130 *    -1.9603 *    -1.9603    0.0000     4          
    61  Li    c      0.5887 *     5.8810 *     7.8414 *  0.0000     8          
    62  Li    c      0.5887 *     9.8017 *     0.0000    0.0000     4          
    63  Li    c     -5.2923 *     5.8810 *     5.8810    0.0000     4          
    64  Cl    c     -9.2130 *     0.0000       3.9207 *  0.0000     4          
    65  O     c      0.5887 *    -1.9603 *     9.8017 *  0.0000     8          
    66  Li    c     -1.3716 *    -1.9603 *     9.8017 *  0.0000     8          
    67  Li    c     -7.2526 *     5.8810 *     3.9207 *  0.0000     8          
    68  Cl    c      6.4697 *     0.0000       7.8414 *  0.0000     4          
    69  Cl    c     -5.2923 *     3.9207 *     7.8414 *  0.0000     8          
    70  Li    c      8.4301 *     5.8810 *     0.0000    0.0000     4          
    71  Li    c      2.5491 *    -1.9603 *     9.8017 *  0.0000     8          
    72  Li    c     -3.3319 *     5.8810 *     7.8414 *  0.0000     8          
    73  Li    c     -3.3319 *     9.8017 *     0.0000    0.0000     4          
    74  Cl    c     10.3904 *     0.0000       0.0000    0.0000     1          
    75  O     c      8.4301 *    -1.9603 *     5.8810 *  0.0000     8          
    76  O     c     -3.3319 *    -1.9603 *     9.8017 *  0.0000     8          
    77  Li    c      6.4697 *     5.8810 *     5.8810    0.0000     4          
    78  Li    c      0.5887 *     9.8017 *     3.9207 *  0.0000     8          
    79  Cl    c     -9.2130 *     3.9207 *     3.9207    0.0000     4          
    80  Li    c     10.3904 *    -1.9603 *    -1.9603    0.0000     4          
    81  Li    c      4.5094 *     5.8810 *     7.8414 *  0.0000     8          
    82  Li    c      4.5094 *     9.8017 *     0.0000    0.0000     4          
    83  Li    c     -7.2526 *    -1.9603 *     7.8414 *  0.0000     8          
    84  Cl    c      6.4697 *     3.9207 *     7.8414 *  0.0000     8          
    85  O     c      4.5094 *    -1.9603 *     9.8017 *  0.0000     8          
    86  Li    c      8.4301 *     5.8810 *     3.9207 *  0.0000     8          
    87  O     c     -7.2526 *     5.8810 *     5.8810    0.0000     4          
    88  Li    c     -3.3319 *     9.8017 *     3.9207 *  0.0000     8          
    89  Li    c     -9.2130 *    -1.9603 *     5.8810 *  0.0000     8          
    90  Cl    c     10.3904 *     0.0000       3.9207 *  0.0000     4          
    91  Cl    c     -1.3716 *     7.8414 *     7.8414    0.0000     4          
    92  Li    c     -5.2923 *    -1.9603 *     9.8017 *  0.0000     8          
    93  Li    c    -11.1733 *    -1.9603 *     0.0000    0.0000     4          
    94  Cl    c      2.5491 *     7.8414 *     7.8414    0.0000     4          
    95  O     c      0.5887 *     5.8810 *     9.8017 *  0.0000     8          
    96  Li    c      4.5094 *     9.8017 *     3.9207 *  0.0000     8          
    97  O     c    -11.1733 *    -1.9603 *    -1.9603    0.0000     4          
    98  Li    c     -1.3716 *     5.8810 *     9.8017 *  0.0000     8          
    99  Li    c      8.4301 *    -1.9603 *     7.8414 *  0.0000     8          
   100  Li    c      2.5491 *     5.8810 *     9.8017 *  0.0000     8          
   101  Cl    c     10.3904 *     3.9207 *     3.9207    0.0000     4          
   102  Cl    c     -1.3716 *     0.0000      11.7620 *  0.0000     4          
   103  O     c      8.4301 *     5.8810 *     5.8810    0.0000     4          
   104  O     c     -3.3319 *     5.8810 *     9.8017 *  0.0000     8          
   105  Li    c      6.4697 *    -1.9603 *     9.8017 *  0.0000     8          
   106  Li    c      0.5887 *    -1.9603 *    11.7620 *  0.0000     8          
   107  Li    c    -11.1733 *    -1.9603 *     3.9207 *  0.0000     8          
   108  Cl    c      2.5491 *     0.0000      11.7620 *  0.0000     4          
   109  Cl    c     -9.2130 *     0.0000       7.8414 *  0.0000     4          
   110  Li    c     10.3904 *    -1.9603 *     5.8810 *  0.0000     8          
   111  Li    c     -7.2526 *     5.8810 *     7.8414 *  0.0000     8          
   112  Li    c     -7.2526 *     9.8017 *     0.0000    0.0000     4          
   113  Cl    c     -5.2923 *     7.8414 *     7.8414    0.0000     4          
   114  O     c      4.5094 *     5.8810 *     9.8017 *  0.0000     8          
   115  O     c     -7.2526 *    -1.9603 *     9.8017 *  0.0000     8          
   116  Li    c     -3.3319 *    -1.9603 *    11.7620 *  0.0000     8          
   117  Li    c     -9.2130 *     5.8810 *     5.8810    0.0000     4          
   118  Cl    c     -1.3716 *    11.7620 *     3.9207 *  0.0000     8          
   119  Li    c     12.3508 *    -1.9603 *     0.0000    0.0000     4          
   120  Li    c      0.5887 *     9.8017 *     7.8414 *  0.0000     8          
   121  Li    c     -5.2923 *     5.8810 *     9.8017 *  0.0000     8          
   122  Li    c    -11.1733 *     5.8810 *     0.0000    0.0000     4          
   123  Cl    c      2.5491 *     3.9207 *    11.7620 *  0.0000     8          
   124  O     c     12.3508 *    -1.9603 *    -1.9603    0.0000     4          
   125  Cl    c     -9.2130 *     7.8414 *     3.9207 *  0.0000     8          
   126  Li    c      4.5094 *    -1.9603 *    11.7620 *  0.0000     8          
   127  O     c    -11.1733 *    -1.9603 *     5.8810 *  0.0000     8          
   128  Li    c     -7.2526 *     9.8017 *     3.9207 *  0.0000     8          
   129  Cl    c      6.4697 *     7.8414 *     7.8414    0.0000     4          
   130  Cl    c     -5.2923 *     0.0000      11.7620 *  0.0000     4          
   131  Li    c      8.4301 *     5.8810 *     7.8414 *  0.0000     8          
   132  Li    c      8.4301 *     9.8017 *     0.0000    0.0000     4          
   133  Li    c     -3.3319 *     9.8017 *     7.8414 *  0.0000     8          
   134  Cl    c     10.3904 *     0.0000       7.8414 *  0.0000     4          
   135  O     c      8.4301 *    -1.9603 *     9.8017 *  0.0000     8          
   136  Li    c     12.3508 *    -1.9603 *     3.9207 *  0.0000     8          
   137  Cl    c    -13.1336 *     0.0000       0.0000    0.0000     1          
   138  Li    c      6.4697 *     5.8810 *     9.8017 *  0.0000     8          
   139  Li    c      0.5887 *     5.8810 *    11.7620 *  0.0000     8          
   140  Li    c    -11.1733 *     5.8810 *     3.9207 *  0.0000     8          
   141  Li    c     10.3904 *     5.8810 *     5.8810    0.0000     4          
   142  Li    c      4.5094 *     9.8017 *     7.8414 *  0.0000     8          
   143  Li    c    -13.1336 *    -1.9603 *    -1.9603    0.0000     4          
   144  Cl    c      6.4697 *     0.0000      11.7620 *  0.0000     4          
   145  Cl    c     -5.2923 *     3.9207 *    11.7620 *  0.0000     8          
   146  Li    c      8.4301 *     9.8017 *     3.9207 *  0.0000     8          
   147  O     c     -7.2526 *     5.8810 *     9.8017 *  0.0000     8          
   148  Li    c     -3.3319 *     5.8810 *    11.7620 *  0.0000     8          
   149  Li    c     -9.2130 *     9.8017 *    -1.9603 *  0.0000     8          
   150  Cl    c     10.3904 *     3.9207 *     7.8414 *  0.0000     8          
   151  Li    c     12.3508 *     5.8810 *     0.0000    0.0000     4          
   152  Cl    c    -13.1336 *     0.0000       3.9207 *  0.0000     4          
   153  Li    c      0.5887 *    13.7224 *     0.0000    0.0000     4          
   154  Li    c    -11.1733 *    -1.9603 *     7.8414 *  0.0000     8          
   155  O     c     12.3508 *    -1.9603 *     5.8810 *  0.0000     8          
   156  O     c      0.5887 *    13.7224 *    -1.9603 *  0.0000     8          
   157  O     c      0.5887 *     9.8017 *     9.8017    0.0000     4          
   158  Li    c      4.5094 *     5.8810 *    11.7620 *  0.0000     8          
   159  O     c    -11.1733 *     5.8810 *     5.8810    0.0000     4          
   160  Li    c     -1.3716 *    13.7224 *    -1.9603 *  0.0000     8          
   161  Li    c     -1.3716 *     9.8017 *     9.8017    0.0000     4          
   162  Li    c     -7.2526 *    11.7620 *    -1.9603 *  0.0000     8          
   163  Cl    c      6.4697 *     3.9207 *    11.7620 *  0.0000     8          
   164  Li    c      2.5491 *    -1.9603 *    13.7224 *  0.0000     8          
   165  Li    c      2.5491 *     9.8017 *     9.8017    0.0000     4          
   166  Li    c     -3.3319 *    13.7224 *     0.0000    0.0000     4          
   167  Cl    c     -1.3716 *     7.8414 *    11.7620 *  0.0000     8          
   168  O     c      8.4301 *     5.8810 *     9.8017 *  0.0000     8          
   169  Li    c     12.3508 *     5.8810 *     3.9207 *  0.0000     8          
   170  Cl    c    -13.1336 *     3.9207 *     3.9207    0.0000     4          
   171  O     c     -3.3319 *    -1.9603 *    13.7224 *  0.0000     8          
   172  O     c     -3.3319 *     9.8017 *     9.8017    0.0000     4          
   173  Li    c      0.5887 *    13.7224 *     3.9207 *  0.0000     8          
   174  Cl    c     14.3111 *     0.0000       0.0000    0.0000     1          
   175  Cl    c      2.5491 *     7.8414 *    11.7620 *  0.0000     8          
   176  Cl    c     -9.2130 *     7.8414 *     7.8414    0.0000     4          
   177  Li    c     10.3904 *    -1.9603 *     9.8017 *  0.0000     8          
   178  Li    c      4.5094 *    13.7224 *     0.0000    0.0000     4          
   179  Li    c     -7.2526 *     9.8017 *     7.8414 *  0.0000     8          
   180  Li    c    -13.1336 *    -1.9603 *     5.8810 *  0.0000     8          
   181  O     c      4.5094 *    -1.9603 *    13.7224 *  0.0000     8          
   182  O     c      4.5094 *     9.8017 *     9.8017    0.0000     4          
   183  Li    c     14.3111 *    -1.9603 *    -1.9603    0.0000     4          
   184  Li    c      8.4301 *    11.7620 *    -1.9603 *  0.0000     8          
   185  Li    c     -3.3319 *    13.7224 *     3.9207 *  0.0000     8          
   186  Li    c     -9.2130 *     5.8810 *     9.8017 *  0.0000     8          
   187  Li    c     12.3508 *    -1.9603 *     7.8414 *  0.0000     8          
   188  Li    c     -5.2923 *    13.7224 *    -1.9603 *  0.0000     8          
   189  Li    c     -5.2923 *     9.8017 *     9.8017    0.0000     4          
   190  Cl    c     14.3111 *     0.0000       3.9207 *  0.0000     4          
   191  Li    c    -11.1733 *     5.8810 *     7.8414 *  0.0000     8          
   192  Li    c    -11.1733 *     9.8017 *     0.0000    0.0000     4          
   193  O     c     12.3508 *     5.8810 *     5.8810    0.0000     4          
   194  Cl    c     -9.2130 *     0.0000      11.7620 *  0.0000     4          
   195  O     c      0.5887 *     5.8810 *    13.7224 *  0.0000     8          
   196  Li    c      4.5094 *    13.7224 *     3.9207 *  0.0000     8          
   197  O     c    -11.1733 *    -1.9603 *     9.8017 *  0.0000     8          
   198  Li    c     -1.3716 *     5.8810 *    13.7224 *  0.0000     8          
   199  Li    c     -7.2526 *    11.7620 *     5.8810 *  0.0000     8          
   200  Cl    c     -5.2923 *     7.8414 *    11.7620 *  0.0000     8          
   201  Li    c      8.4301 *     9.8017 *     7.8414 *  0.0000     8          
   202  Li    c      2.5491 *     5.8810 *    13.7224 *  0.0000     8          
   203  Cl    c     10.3904 *     7.8414 *     7.8414    0.0000     4          
   204  Li    c    -15.0940 *    -1.9603 *     0.0000    0.0000     4          
   205  Cl    c    -13.1336 *     0.0000       7.8414 *  0.0000     4          
   206  O     c     -3.3319 *     5.8810 *    13.7224 *  0.0000     8          
   207  Li    c      6.4697 *    -1.9603 *    13.7224 *  0.0000     8          
   208  Li    c      6.4697 *     9.8017 *     9.8017    0.0000     4          
   209  Li    c      0.5887 *     9.8017 *    11.7620 *  0.0000     8          
   210  O     c    -15.0940 *    -1.9603 *    -1.9603    0.0000     4          
   211  Cl    c     14.3111 *     3.9207 *     3.9207    0.0000     4          
   212  Li    c    -11.1733 *     9.8017 *     3.9207 *  0.0000     8          
   213  Cl    c     -9.2130 *    11.7620 *     3.9207 *  0.0000     8          
   214  Li    c     10.3904 *     5.8810 *     9.8017 *  0.0000     8          
   215  Li    c     -7.2526 *    13.7224 *     0.0000    0.0000     4          
   216  Li    c    -13.1336 *     5.8810 *     5.8810    0.0000     4          
   217  Cl    c      6.4697 *     7.8414 *    11.7620 *  0.0000     8          
   218  O     c      4.5094 *     5.8810 *    13.7224 *  0.0000     8          
   219  Li    c     14.3111 *    -1.9603 *     5.8810 *  0.0000     8          
   220  Li    c      8.4301 *    11.7620 *     5.8810 *  0.0000     8          
   221  O     c     -7.2526 *    -1.9603 *    13.7224 *  0.0000     8          
   222  O     c     -7.2526 *     9.8017 *     9.8017    0.0000     4          
   223  Li    c     -3.3319 *     9.8017 *    11.7620 *  0.0000     8          
   224  Cl    c     10.3904 *     0.0000      11.7620 *  0.0000     4          
   225  Li    c    -15.0940 *    -1.9603 *     3.9207 *  0.0000     8          
   226  Cl    c     -1.3716 *     0.0000      15.6827 *  0.0000     4          
   227  Li    c     12.3508 *     5.8810 *     7.8414 *  0.0000     8          
   228  Li    c     12.3508 *     9.8017 *     0.0000    0.0000     4          
   229  Cl    c    -13.1336 *     3.9207 *     7.8414 *  0.0000     8          
   230  Li    c      0.5887 *    15.6827 *    -1.9603 *  0.0000     8          
   231  Li    c      0.5887 *    13.7224 *     7.8414 *  0.0000     8          
   232  Li    c     -5.2923 *    13.7224 *     5.8810 *  0.0000     8          
   233  Cl    c      2.5491 *     0.0000      15.6827 *  0.0000     4          
   234  O     c     12.3508 *    -1.9603 *     9.8017 *  0.0000     8          
   235  Li    c      4.5094 *     9.8017 *    11.7620 *  0.0000     8          
   236  O     c    -11.1733 *     5.8810 *     9.8017 *  0.0000     8          
   237  Li    c     -7.2526 *    13.7224 *     3.9207 *  0.0000     8          
   238  Li    c      8.4301 *    13.7224 *     0.0000    0.0000     4          
   239  Li    c     -3.3319 *    -1.9603 *    15.6827 *  0.0000     8          
   240  Li    c     -3.3319 *    13.7224 *     7.8414 *  0.0000     8          
   241  Cl    c     10.3904 *     3.9207 *    11.7620 *  0.0000     8          
   242  Li    c    -15.0940 *     5.8810 *     0.0000    0.0000     4          
   243  Cl    c     -1.3716 *     3.9207 *    15.6827 *  0.0000     8          
   244  O     c      8.4301 *    -1.9603 *    13.7224 *  0.0000     8          
   245  O     c      8.4301 *     9.8017 *     9.8017    0.0000     4          
   246  Li    c     12.3508 *     3.9207 *     9.8017 *  0.0000     8          
   247  Li    c      6.4697 *     5.8810 *    13.7224 *  0.0000     8          
   248  O     c    -15.0940 *    -1.9603 *     5.8810 *  0.0000     8          
   249  Cl    c     14.3111 *     0.0000       7.8414 *  0.0000     4          
   250  Li    c    -11.1733 *    -1.9603 *    11.7620 *  0.0000     8          
   251  Cl    c      2.5491 *     3.9207 *    15.6827 *  0.0000     8          
   252  Li    c     16.2714 *    -1.9603 *     0.0000    0.0000     4          
   253  Li    c      4.5094 *    15.6827 *    -1.9603 *  0.0000     8          
   254  Li    c      4.5094 *    13.7224 *     7.8414 *  0.0000     8          
   255  Li    c    -13.1336 *    -1.9603 *     9.8017 *  0.0000     8          
   256  O     c     16.2714 *    -1.9603 *    -1.9603    0.0000     4          
   257  Cl    c     -5.2923 *     0.0000      15.6827 *  0.0000     4          
   258  Li    c     14.3111 *     5.8810 *     5.8810    0.0000     4          
   259  Li    c      8.4301 *     3.9207 *    13.7224 *  0.0000     8          
   260  O     c     -7.2526 *     5.8810 *    13.7224 *  0.0000     8          
   261  Li    c     -9.2130 *    13.7224 *    -1.9603 *  0.0000     8          
   262  Li    c     -9.2130 *     9.8017 *     9.8017    0.0000     4          
   263  Li    c    -15.0940 *     5.8810 *     3.9207 *  0.0000     8          
   264  Cl    c     -1.3716 *    11.7620 *    11.7620    0.0000     4          
   265  Li    c      0.5887 *     5.8810 *    15.6827 *  0.0000     8          
   266  Cl    c     14.3111 *     3.9207 *     7.8414 *  0.0000     8          
   267  Li    c    -11.1733 *     9.8017 *     7.8414 *  0.0000     8          
   268  Cl    c      2.5491 *    11.7620 *    11.7620    0.0000     4          
   269  O     c     12.3508 *     5.8810 *     9.8017 *  0.0000     8          
   270  Li    c     16.2714 *    -1.9603 *     3.9207 *  0.0000     8          
   271  Cl    c     -9.2130 *     7.8414 *    11.7620 *  0.0000     8          
   272  O     c      0.5887 *     9.8017 *    13.7224 *  0.0000     8          
   273  Li    c     -1.3716 *    13.7224 *     9.8017 *  0.0000     8          
   274  Li    c     -7.2526 *    11.7620 *     9.8017 *  0.0000     8          
   275  Cl    c      6.4697 *     0.0000      15.6827 *  0.0000     4          
   276  Cl    c     -5.2923 *     3.9207 *    15.6827 *  0.0000     8          
   277  Cl    c    -17.0543 *     0.0000       0.0000    0.0000     1          
   278  Li    c      2.5491 *     9.8017 *    13.7224 *  0.0000     8          
   279  Li    c     -3.3319 *     5.8810 *    15.6827 *  0.0000     8          
   280  Li    c    -15.0940 *    -1.9603 *     7.8414 *  0.0000     8          
   281  O     c      8.4301 *     5.8810 *    13.7224 *  0.0000     8          
   282  Li    c     12.3508 *    11.7620 *    -1.9603 *  0.0000     8          
   283  Cl    c    -13.1336 *     7.8414 *     7.8414    0.0000     4          
   284  O     c     -3.3319 *     9.8017 *    13.7224 *  0.0000     8          
   285  O     c    -15.0940 *     5.8810 *     5.8810    0.0000     4          
   286  Li    c    -11.1733 *     5.8810 *    11.7620 *  0.0000     8          
   287  Li    c    -17.0543 *    -1.9603 *    -1.9603    0.0000     4          
   288  Li    c     16.2714 *     5.8810 *     0.0000    0.0000     4          
   289  Li    c     10.3904 *    -1.9603 *    13.7224 *  0.0000     8          
   290  Li    c     10.3904 *     9.8017 *     9.8017    0.0000     4          
   291  Li    c      4.5094 *     5.8810 *    15.6827 *  0.0000     8          
   292  Li    c     -7.2526 *    -1.9603 *    15.6827 *  0.0000     8          
   293  Li    c     -7.2526 *    13.7224 *     7.8414 *  0.0000     8          
   294  Li    c    -13.1336 *     5.8810 *     9.8017 *  0.0000     8          
   295  Cl    c      6.4697 *     3.9207 *    15.6827 *  0.0000     8          
   296  O     c     16.2714 *     5.8810 *    -1.9603 *  0.0000     8          
   297  Cl    c     -5.2923 *    11.7620 *    11.7620    0.0000     4          
   298  O     c      4.5094 *     9.8017 *    13.7224 *  0.0000     8          
   299  Li    c     14.3111 *    -1.9603 *     9.8017 *  0.0000     8          
   300  Li    c      8.4301 *     9.8017 *    11.7620 *  0.0000     8          
   301  Cl    c    -17.0543 *     0.0000       3.9207 *  0.0000     4          
   302  Li    c     -9.2130 *    13.7224 *     5.8810 *  0.0000     8          
   303  Cl    c     10.3904 *     7.8414 *    11.7620 *  0.0000     8          
   304  Cl    c     -1.3716 *     7.8414 *    15.6827 *  0.0000     8          
   305  Li    c     12.3508 *     7.8414 *     9.8017 *  0.0000     8          
   306  Cl    c    -13.1336 *     0.0000      11.7620 *  0.0000     4          
   307  Li    c      0.5887 *    17.6430 *     0.0000    0.0000     4          
   308  Li    c     -5.2923 *    13.7224 *     9.8017 *  0.0000     8          
   309  Li    c    -11.1733 *    13.7224 *     0.0000    0.0000     4          
   310  Cl    c      2.5491 *     7.8414 *    15.6827 *  0.0000     8          
   311  Li    c     16.2714 *     5.8810 *     3.9207 *  0.0000     8          
   312  O     c      0.5887 *    -1.9603 *    17.6430 *  0.0000     8          
   313  O     c    -11.1733 *    -1.9603 *    13.7224 *  0.0000     8          
   314  O     c    -11.1733 *     9.8017 *     9.8017    0.0000     4          
   315  Li    c     -1.3716 *    -1.9603 *    17.6430 *  0.0000     8          
   316  Cl    c      6.4697 *    11.7620 *    11.7620    0.0000     4          
   317  Li    c      8.4301 *    -1.9603 *    15.6827 *  0.0000     8          
   318  Li    c      8.4301 *     7.8414 *    13.7224 *  0.0000     8          
   319  Cl    c    -17.0543 *     3.9207 *     3.9207    0.0000     4          
   320  Li    c      2.5491 *    -1.9603 *    17.6430 *  0.0000     8          
   321  Li    c     -3.3319 *    17.6430 *     0.0000    0.0000     4          
   322  Li    c    -15.0940 *     5.8810 *     7.8414 *  0.0000     8          
   323  Li    c    -15.0940 *     9.8017 *     0.0000    0.0000     4          
   324  Li    c     12.3508 *    11.7620 *     5.8810 *  0.0000     8          
   325  Cl    c    -13.1336 *     3.9207 *    11.7620 *  0.0000     8          
   326  O     c     -3.3319 *    -1.9603 *    17.6430 *  0.0000     8          
   327  Li    c      6.4697 *     9.8017 *    13.7224 *  0.0000     8          
   328  Li    c      0.5887 *    13.7224 *    11.7620 *  0.0000     8          
   329  Li    c      0.5887 *    17.6430 *     3.9207 *  0.0000     8          
   330  O     c    -15.0940 *    -1.9603 *     9.8017 *  0.0000     8          
   331  Cl    c     14.3111 *     7.8414 *     7.8414    0.0000     4          
   332  Li    c    -11.1733 *    13.7224 *     3.9207 *  0.0000     8          
   333  Li    c    -17.0543 *     5.8810 *    -1.9603 *  0.0000     8          
   334  Li    c     16.2714 *    -1.9603 *     7.8414 *  0.0000     8          
   335  Cl    c     -9.2130 *     0.0000      15.6827 *  0.0000     4          
   336  Li    c     10.3904 *     5.8810 *    13.7224 *  0.0000     8          
   337  Li    c      4.5094 *    17.6430 *     0.0000    0.0000     4          
   338  Cl    c     18.2318 *     0.0000       0.0000    0.0000     1          
   339  Li    c     -7.2526 *     5.8810 *    15.6827 *  0.0000     8          
   340  O     c     16.2714 *     5.8810 *     5.8810    0.0000     4          
   341  Cl    c     -5.2923 *     7.8414 *    15.6827 *  0.0000     8          
   342  O     c      4.5094 *    -1.9603 *    17.6430 *  0.0000     8          
   343  Li    c     14.3111 *     5.8810 *     9.8017 *  0.0000     8          
   344  O     c     -7.2526 *     9.8017 *    13.7224 *  0.0000     8          
   345  Li    c     -3.3319 *    13.7224 *    11.7620 *  0.0000     8          
   346  Li    c     -3.3319 *     3.9207 *    17.6430 *  0.0000     8          
   347  Li    c    -15.0940 *     3.9207 *     9.8017 *  0.0000     8          
   348  Li    c     18.2318 *    -1.9603 *    -1.9603    0.0000     4          
   349  Li    c     12.3508 *    13.7224 *     0.0000    0.0000     4          
   350  Li    c      0.5887 *     9.8017 *    15.6827 *  0.0000     8          
   351  Li    c     -5.2923 *    -1.9603 *    17.6430 *  0.0000     8          
   352  Cl    c     14.3111 *     0.0000      11.7620 *  0.0000     4          
   353  O     c     12.3508 *    -1.9603 *    13.7224 *  0.0000     8          
   354  O     c     12.3508 *     9.8017 *     9.8017    0.0000     4          
   355  Cl    c     -9.2130 *     3.9207 *    15.6827 *  0.0000     8          
   356  O     c      0.5887 *    17.6430 *     5.8810 *  0.0000     8          
   357  Li    c      4.5094 *    13.7224 *    11.7620 *  0.0000     8          
   358  Li    c      4.5094 *    17.6430 *     3.9207 *  0.0000     8          
   359  O     c    -11.1733 *     5.8810 *    13.7224 *  0.0000     8          
   360  Li    c     -1.3716 *     5.8810 *    17.6430 *  0.0000     8          
   361  Cl    c     18.2318 *     0.0000       3.9207 *  0.0000     4          
   362  Cl    c      6.4697 *     7.8414 *    15.6827 *  0.0000     8          
   363  Li    c      8.4301 *     5.8810 *    15.6827 *  0.0000     8          
   364  Cl    c    -17.0543 *     0.0000       7.8414 *  0.0000     4          
   365  Li    c      2.5491 *     5.8810 *    17.6430 *  0.0000     8          
   366  Li    c     -3.3319 *     9.8017 *    15.6827 *  0.0000     8          
   367  Cl    c     10.3904 *     0.0000      15.6827 *  0.0000     4          
   368  O     c      8.4301 *     9.8017 *    13.7224 *  0.0000     8          
   369  Li    c     12.3508 *     3.9207 *    13.7224 *  0.0000     8          
   370  O     c     -3.3319 *     5.8810 *    17.6430 *  0.0000     8          
   371  Li    c      6.4697 *    17.6430 *    -1.9603 *  0.0000     8          
   372  O     c    -15.0940 *     5.8810 *     9.8017 *  0.0000     8          
   373  Cl    c     14.3111 *     3.9207 *    11.7620 *  0.0000     8          
   374  Li    c    -11.1733 *    11.7620 *     9.8017 *  0.0000     8          
   375  Li    c    -17.0543 *     5.8810 *     5.8810    0.0000     4          
   376  Li    c     16.2714 *     5.8810 *     7.8414 *  0.0000     8          
   377  Li    c     16.2714 *     9.8017 *     0.0000    0.0000     4          
   378  Cl    c     -9.2130 *    11.7620 *    11.7620    0.0000     4          
   379  Li    c      4.5094 *    15.6827 *     9.8017 *  0.0000     8          
   380  Cl    c     18.2318 *     3.9207 *     3.9207    0.0000     4          
   381  Li    c     -7.2526 *    17.6430 *     0.0000    0.0000     4          
   382  Li    c    -13.1336 *    -1.9603 *    13.7224 *  0.0000     8          
   383  Li    c    -13.1336 *     9.8017 *     9.8017    0.0000     4          
   384  O     c     16.2714 *    -1.9603 *     9.8017 *  0.0000     8          
   385  Li    c    -19.0146 *    -1.9603 *     0.0000    0.0000     4          
   386  O     c      4.5094 *     5.8810 *    17.6430 *  0.0000     8          
   387  Cl    c    -17.0543 *     3.9207 *     7.8414 *  0.0000     8          
   388  O     c     -7.2526 *    -1.9603 *    17.6430 *  0.0000     8          
   389  O     c    -19.0146 *    -1.9603 *    -1.9603    0.0000     4          
   390  Li    c     -9.2130 *     9.8017 *    13.7224 *  0.0000     8          
   391  Cl    c     10.3904 *     3.9207 *    15.6827 *  0.0000     8          
   392  Li    c    -15.0940 *    11.7620 *    -1.9603 *  0.0000     8          
   393  Li    c     18.2318 *    -1.9603 *     5.8810 *  0.0000     8          
   394  Cl    c    -13.1336 *     7.8414 *    11.7620 *  0.0000     8          
   395  Li    c      0.5887 *    17.6430 *     7.8414 *  0.0000     8          
   396  Li    c     -5.2923 *     5.8810 *    17.6430 *  0.0000     8          
   397  Li    c    -11.1733 *    -1.9603 *    15.6827 *  0.0000     8          
   398  Li    c    -11.1733 *    13.7224 *     7.8414 *  0.0000     8          
   399  O     c     12.3508 *     5.8810 *    13.7224 *  0.0000     8          
   400  Li    c     16.2714 *     3.9207 *     9.8017 *  0.0000     8          
   401  O     c      0.5887 *    13.7224 *    13.7224    0.0000     4          
   402  Li    c     -1.3716 *    13.7224 *    13.7224    0.0000     4          
   403  Li    c     -7.2526 *    11.7620 *    13.7224 *  0.0000     8          
   404  Li    c     -7.2526 *    17.6430 *     3.9207 *  0.0000     8          
   405  Li    c    -19.0146 *    -1.9603 *     3.9207 *  0.0000     8          
   406  Li    c      8.4301 *    17.6430 *     0.0000    0.0000     4          
   407  Li    c      2.5491 *    13.7224 *    13.7224    0.0000     4          
   408  Li    c     -3.3319 *     7.8414 *    17.6430 *  0.0000     8          
   409  Cl    c     10.3904 *    11.7620 *    11.7620    0.0000     4          
   410  Li    c    -15.0940 *     7.8414 *     9.8017 *  0.0000     8          
   411  Cl    c     -1.3716 *    11.7620 *    15.6827 *  0.0000     8          
   412  Cl    c     -1.3716 *     0.0000      19.6034 *  0.0000     4          
   413  O     c      8.4301 *    -1.9603 *    17.6430 *  0.0000     8          
   414  Li    c     12.3508 *     9.8017 *    11.7620 *  0.0000     8          
   415  O     c     -3.3319 *    13.7224 *    13.7224    0.0000     4          
   416  Li    c      6.4697 *    17.6430 *     5.8810 *  0.0000     8          
   417  Li    c      0.5887 *    -1.9603 *    19.6034 *  0.0000     8          
   418  Li    c    -17.0543 *    -1.9603 *     9.8017 *  0.0000     8          
   419  Cl    c      2.5491 *    11.7620 *    15.6827 *  0.0000     8          
   420  Cl    c      2.5491 *     0.0000      19.6034 *  0.0000     4          
   421  Cl    c     -9.2130 *     7.8414 *    15.6827 *  0.0000     8          
   422  Li    c     10.3904 *     9.8017 *    13.7224 *  0.0000     8          
   423  Li    c      4.5094 *     7.8414 *    17.6430 *  0.0000     8          
   424  Cl    c     18.2318 *     0.0000       7.8414 *  0.0000     4          
   425  Li    c     -7.2526 *     9.8017 *    15.6827 *  0.0000     8          
   426  Li    c    -13.1336 *     5.8810 *    13.7224 *  0.0000     8          
   427  O     c     16.2714 *     5.8810 *     9.8017 *  0.0000     8          
   428  Li    c    -19.0146 *     5.8810 *     0.0000    0.0000     4          
   429  O     c      4.5094 *    13.7224 *    13.7224    0.0000     4          
   430  Li    c     14.3111 *    -1.9603 *    13.7224 *  0.0000     8          
   431  Li    c     14.3111 *     9.8017 *     9.8017    0.0000     4          
   432  Li    c      8.4301 *    13.7224 *    11.7620 *  0.0000     8          
   433  Li    c      8.4301 *    17.6430 *     3.9207 *  0.0000     8          
   434  O     c     -7.2526 *    17.6430 *     5.8810 *  0.0000     8          
   435  Li    c     -3.3319 *    -1.9603 *    19.6034 *  0.0000     8          
   436  O     c    -19.0146 *    -1.9603 *     5.8810 *  0.0000     8          
   437  Li    c     -9.2130 *    -1.9603 *    17.6430 *  0.0000     8          
   438  Cl    s      0.0000       0.0000       0.0000    0.0000     1    Defect
   439  O     s      0.5887 *    -1.9603 *    -1.9603    0.0000     4          
   440  Cl    s     -1.3716 *     0.0000       3.9207 *  0.0000     4          
   441  O     s     -3.3319 *    -1.9603 *    -1.9603    0.0000     4          
   442  Cl    s      2.5491 *     0.0000       3.9207 *  0.0000     4          
   443  Cl    s     -5.2923 *     0.0000       0.0000    0.0000     1          
   444  O     s      4.5094 *    -1.9603 *    -1.9603    0.0000     4          
   445  Cl    s     -1.3716 *     3.9207 *     3.9207    0.0000     4          
   446  Cl    s      2.5491 *     3.9207 *     3.9207    0.0000     4          
   447  O     s      0.5887 *    -1.9603 *     5.8810 *  0.0000     8          
   448  Cl    s      6.4697 *     0.0000       0.0000    0.0000     1          
   449  Cl    s     -5.2923 *     0.0000       3.9207 *  0.0000     4          
   450  O     s     -3.3319 *     5.8810 *    -1.9603 *  0.0000     8          
   451  Cl    s      6.4697 *     0.0000       3.9207 *  0.0000     4          
   452  Cl    s     -5.2923 *     3.9207 *     3.9207    0.0000     4          
   453  O     s      4.5094 *    -1.9603 *     5.8810 *  0.0000     8          
   454  O     s     -7.2526 *    -1.9603 *    -1.9603    0.0000     4          
   455  Cl    s     -1.3716 *     0.0000       7.8414 *  0.0000     4          
   456  Cl    s      2.5491 *     0.0000       7.8414 *  0.0000     4          
   457  O     s      0.5887 *     5.8810 *     5.8810    0.0000     4          
   458  Cl    s      6.4697 *     3.9207 *     3.9207    0.0000     4          
   459  Cl    s     -1.3716 *     3.9207 *     7.8414 *  0.0000     8          
   460  O     s      8.4301 *    -1.9603 *    -1.9603    0.0000     4          
   461  O     s     -3.3319 *     5.8810 *     5.8810    0.0000     4          
   462  Cl    s      2.5491 *     3.9207 *     7.8414 *  0.0000     8          
   463  Cl    s     -9.2130 *     0.0000       0.0000    0.0000     1          
   464  Cl    s     -5.2923 *     0.0000       7.8414 *  0.0000     4          
   465  O     s      4.5094 *     5.8810 *     5.8810    0.0000     4          
   466  O     s     -7.2526 *    -1.9603 *     5.8810 *  0.0000     8          
   467  Cl    s     -9.2130 *     0.0000       3.9207 *  0.0000     4          
   468  O     s      0.5887 *    -1.9603 *     9.8017 *  0.0000     8          
   469  Cl    s      6.4697 *     0.0000       7.8414 *  0.0000     4          
   470  Cl    s     -5.2923 *     3.9207 *     7.8414 *  0.0000     8          
   471  Cl    s     10.3904 *     0.0000       0.0000    0.0000     1          
   472  O     s      8.4301 *    -1.9603 *     5.8810 *  0.0000     8          
   473  O     s     -3.3319 *    -1.9603 *     9.8017 *  0.0000     8          
   474  Cl    s     -9.2130 *     3.9207 *     3.9207    0.0000     4          
   475  Cl    s      6.4697 *     3.9207 *     7.8414 *  0.0000     8          
   476  O     s      4.5094 *    -1.9603 *     9.8017 *  0.0000     8          
   477  O     s     -7.2526 *     5.8810 *     5.8810    0.0000     4          
   478  Cl    s     10.3904 *     0.0000       3.9207 *  0.0000     4          
   479  Cl    s     -1.3716 *     7.8414 *     7.8414    0.0000     4          
   480  Cl    s      2.5491 *     7.8414 *     7.8414    0.0000     4          
   481  O     s      0.5887 *     5.8810 *     9.8017 *  0.0000     8          
   482  O     s    -11.1733 *    -1.9603 *    -1.9603    0.0000     4          
   483  Cl    s     10.3904 *     3.9207 *     3.9207    0.0000     4          
   484  Cl    s     -1.3716 *     0.0000      11.7620 *  0.0000     4          
   485  O     s      8.4301 *     5.8810 *     5.8810    0.0000     4          
   486  O     s     -3.3319 *     5.8810 *     9.8017 *  0.0000     8          
   487  Cl    s      2.5491 *     0.0000      11.7620 *  0.0000     4          
   488  Cl    s     -9.2130 *     0.0000       7.8414 *  0.0000     4          
   489  Cl    s     -5.2923 *     7.8414 *     7.8414    0.0000     4          
   490  O     s      4.5094 *     5.8810 *     9.8017 *  0.0000     8          
   491  O     s     -7.2526 *    -1.9603 *     9.8017 *  0.0000     8          
   492  Cl    s     -1.3716 *    11.7620 *     3.9207 *  0.0000     8          
   493  Cl    s      2.5491 *     3.9207 *    11.7620 *  0.0000     8          
   494  O     s     12.3508 *    -1.9603 *    -1.9603    0.0000     4          
   495  Cl    s     -9.2130 *     7.8414 *     3.9207 *  0.0000     8          
   496  O     s    -11.1733 *    -1.9603 *     5.8810 *  0.0000     8          
   497  Cl    s      6.4697 *     7.8414 *     7.8414    0.0000     4          
   498  Cl    s     -5.2923 *     0.0000      11.7620 *  0.0000     4          
   499  Cl    s     10.3904 *     0.0000       7.8414 *  0.0000     4          
   500  O     s      8.4301 *    -1.9603 *     9.8017 *  0.0000     8          
   501  Cl    s    -13.1336 *     0.0000       0.0000    0.0000     1          
   502  Cl    s      6.4697 *     0.0000      11.7620 *  0.0000     4          
   503  Cl    s     -5.2923 *     3.9207 *    11.7620 *  0.0000     8          
   504  O     s     -7.2526 *     5.8810 *     9.8017 *  0.0000     8          
   505  Cl    s     10.3904 *     3.9207 *     7.8414 *  0.0000     8          
   506  Cl    s    -13.1336 *     0.0000       3.9207 *  0.0000     4          
   507  O     s     12.3508 *    -1.9603 *     5.8810 *  0.0000     8          
   508  O     s      0.5887 *    13.7224 *    -1.9603 *  0.0000     8          
   509  O     s      0.5887 *     9.8017 *     9.8017    0.0000     4          
   510  O     s    -11.1733 *     5.8810 *     5.8810    0.0000     4          
   511  Cl    s      6.4697 *     3.9207 *    11.7620 *  0.0000     8          
   512  Cl    s     -1.3716 *     7.8414 *    11.7620 *  0.0000     8          
   513  O     s      8.4301 *     5.8810 *     9.8017 *  0.0000     8          
   514  Cl    s    -13.1336 *     3.9207 *     3.9207    0.0000     4          
   515  O     s     -3.3319 *    -1.9603 *    13.7224 *  0.0000     8          
   516  O     s     -3.3319 *     9.8017 *     9.8017    0.0000     4          
   517  Cl    s     14.3111 *     0.0000       0.0000    0.0000     1          
   518  Cl    s      2.5491 *     7.8414 *    11.7620 *  0.0000     8          
   519  Cl    s     -9.2130 *     7.8414 *     7.8414    0.0000     4          
   520  O     s      4.5094 *    -1.9603 *    13.7224 *  0.0000     8          
   521  O     s      4.5094 *     9.8017 *     9.8017    0.0000     4          
   522  Cl    s     14.3111 *     0.0000       3.9207 *  0.0000     4          
   523  O     s     12.3508 *     5.8810 *     5.8810    0.0000     4          
   524  Cl    s     -9.2130 *     0.0000      11.7620 *  0.0000     4          
   525  O     s      0.5887 *     5.8810 *    13.7224 *  0.0000     8          
   526  O     s    -11.1733 *    -1.9603 *     9.8017 *  0.0000     8          
   527  Cl    s     -5.2923 *     7.8414 *    11.7620 *  0.0000     8          
   528  Cl    s     10.3904 *     7.8414 *     7.8414    0.0000     4          
   529  Cl    s    -13.1336 *     0.0000       7.8414 *  0.0000     4          
   530  O     s     -3.3319 *     5.8810 *    13.7224 *  0.0000     8          
   531  O     s    -15.0940 *    -1.9603 *    -1.9603    0.0000     4          
   532  Cl    s     14.3111 *     3.9207 *     3.9207    0.0000     4          
   533  Cl    s     -9.2130 *    11.7620 *     3.9207 *  0.0000     8          
   534  Cl    s      6.4697 *     7.8414 *    11.7620 *  0.0000     8          
   535  O     s      4.5094 *     5.8810 *    13.7224 *  0.0000     8          
   536  O     s     -7.2526 *    -1.9603 *    13.7224 *  0.0000     8          
   537  O     s     -7.2526 *     9.8017 *     9.8017    0.0000     4          
   538  Cl    s     10.3904 *     0.0000      11.7620 *  0.0000     4          
   539  Cl    s     -1.3716 *     0.0000      15.6827 *  0.0000     4          
   540  Cl    s    -13.1336 *     3.9207 *     7.8414 *  0.0000     8          
   541  Cl    s      2.5491 *     0.0000      15.6827 *  0.0000     4          
   542  O     s     12.3508 *    -1.9603 *     9.8017 *  0.0000     8          
   543  O     s    -11.1733 *     5.8810 *     9.8017 *  0.0000     8          
   544  Cl    s     10.3904 *     3.9207 *    11.7620 *  0.0000     8          
   545  Cl    s     -1.3716 *     3.9207 *    15.6827 *  0.0000     8          
   546  O     s      8.4301 *    -1.9603 *    13.7224 *  0.0000     8          
   547  O     s      8.4301 *     9.8017 *     9.8017    0.0000     4          
   548  O     s    -15.0940 *    -1.9603 *     5.8810 *  0.0000     8          
   549  Cl    s     14.3111 *     0.0000       7.8414 *  0.0000     4          
   550  Cl    s      2.5491 *     3.9207 *    15.6827 *  0.0000     8          
   551  O     s     16.2714 *    -1.9603 *    -1.9603    0.0000     4          
   552  Cl    s     -5.2923 *     0.0000      15.6827 *  0.0000     4          
   553  O     s     -7.2526 *     5.8810 *    13.7224 *  0.0000     8          
   554  Cl    s     -1.3716 *    11.7620 *    11.7620    0.0000     4          
   555  Cl    s     14.3111 *     3.9207 *     7.8414 *  0.0000     8          
   556  Cl    s      2.5491 *    11.7620 *    11.7620    0.0000     4          
   557  O     s     12.3508 *     5.8810 *     9.8017 *  0.0000     8          
   558  Cl    s     -9.2130 *     7.8414 *    11.7620 *  0.0000     8          
   559  O     s      0.5887 *     9.8017 *    13.7224 *  0.0000     8          
   560  Cl    s      6.4697 *     0.0000      15.6827 *  0.0000     4          
   561  Cl    s     -5.2923 *     3.9207 *    15.6827 *  0.0000     8          
   562  Cl    s    -17.0543 *     0.0000       0.0000    0.0000     1          
   563  O     s      8.4301 *     5.8810 *    13.7224 *  0.0000     8          
   564  Cl    s    -13.1336 *     7.8414 *     7.8414    0.0000     4          
   565  O     s     -3.3319 *     9.8017 *    13.7224 *  0.0000     8          
   566  O     s    -15.0940 *     5.8810 *     5.8810    0.0000     4          
   567  Cl    s      6.4697 *     3.9207 *    15.6827 *  0.0000     8          
   568  O     s     16.2714 *     5.8810 *    -1.9603 *  0.0000     8          
   569  Cl    s     -5.2923 *    11.7620 *    11.7620    0.0000     4          
   570  O     s      4.5094 *     9.8017 *    13.7224 *  0.0000     8          
   571  Cl    s    -17.0543 *     0.0000       3.9207 *  0.0000     4          
   572  Cl    s     10.3904 *     7.8414 *    11.7620 *  0.0000     8          
   573  Cl    s     -1.3716 *     7.8414 *    15.6827 *  0.0000     8          
   574  Cl    s    -13.1336 *     0.0000      11.7620 *  0.0000     4          
   575  Cl    s      2.5491 *     7.8414 *    15.6827 *  0.0000     8          
   576  O     s      0.5887 *    -1.9603 *    17.6430 *  0.0000     8          
   577  O     s    -11.1733 *    -1.9603 *    13.7224 *  0.0000     8          
   578  O     s    -11.1733 *     9.8017 *     9.8017    0.0000     4          
   579  Cl    s      6.4697 *    11.7620 *    11.7620    0.0000     4          
   580  Cl    s    -17.0543 *     3.9207 *     3.9207    0.0000     4          
   581  Cl    s    -13.1336 *     3.9207 *    11.7620 *  0.0000     8          
   582  O     s     -3.3319 *    -1.9603 *    17.6430 *  0.0000     8          
   583  O     s    -15.0940 *    -1.9603 *     9.8017 *  0.0000     8          
   584  Cl    s     14.3111 *     7.8414 *     7.8414    0.0000     4          
   585  Cl    s     -9.2130 *     0.0000      15.6827 *  0.0000     4          
   586  Cl    s     18.2318 *     0.0000       0.0000    0.0000     1          
   587  O     s     16.2714 *     5.8810 *     5.8810    0.0000     4          
   588  Cl    s     -5.2923 *     7.8414 *    15.6827 *  0.0000     8          
   589  O     s      4.5094 *    -1.9603 *    17.6430 *  0.0000     8          
   590  O     s     -7.2526 *     9.8017 *    13.7224 *  0.0000     8          
   591  Cl    s     14.3111 *     0.0000      11.7620 *  0.0000     4          
   592  O     s     12.3508 *    -1.9603 *    13.7224 *  0.0000     8          
   593  O     s     12.3508 *     9.8017 *     9.8017    0.0000     4          
   594  Cl    s     -9.2130 *     3.9207 *    15.6827 *  0.0000     8          
   595  O     s      0.5887 *    17.6430 *     5.8810 *  0.0000     8          
   596  O     s    -11.1733 *     5.8810 *    13.7224 *  0.0000     8          
   597  Cl    s     18.2318 *     0.0000       3.9207 *  0.0000     4          
   598  Cl    s      6.4697 *     7.8414 *    15.6827 *  0.0000     8          
   599  Cl    s    -17.0543 *     0.0000       7.8414 *  0.0000     4          
   600  Cl    s     10.3904 *     0.0000      15.6827 *  0.0000     4          
   601  O     s      8.4301 *     9.8017 *    13.7224 *  0.0000     8          
   602  O     s     -3.3319 *     5.8810 *    17.6430 *  0.0000     8          
   603  O     s    -15.0940 *     5.8810 *     9.8017 *  0.0000     8          
   604  Cl    s     14.3111 *     3.9207 *    11.7620 *  0.0000     8          
   605  Cl    s     -9.2130 *    11.7620 *    11.7620    0.0000     4          
   606  Cl    s     18.2318 *     3.9207 *     3.9207    0.0000     4          
   607  O     s     16.2714 *    -1.9603 *     9.8017 *  0.0000     8          
   608  O     s      4.5094 *     5.8810 *    17.6430 *  0.0000     8          
   609  Cl    s    -17.0543 *     3.9207 *     7.8414 *  0.0000     8          
   610  O     s     -7.2526 *    -1.9603 *    17.6430 *  0.0000     8          
   611  O     s    -19.0146 *    -1.9603 *    -1.9603    0.0000     4          
   612  Cl    s     10.3904 *     3.9207 *    15.6827 *  0.0000     8          
   613  Cl    s    -13.1336 *     7.8414 *    11.7620 *  0.0000     8          
   614  O     s     12.3508 *     5.8810 *    13.7224 *  0.0000     8          
   615  O     s      0.5887 *    13.7224 *    13.7224    0.0000     4          
   616  Cl    s     10.3904 *    11.7620 *    11.7620    0.0000     4          
   617  Cl    s     -1.3716 *    11.7620 *    15.6827 *  0.0000     8          
   618  Cl    s     -1.3716 *     0.0000      19.6034 *  0.0000     4          
   619  O     s      8.4301 *    -1.9603 *    17.6430 *  0.0000     8          
   620  O     s     -3.3319 *    13.7224 *    13.7224    0.0000     4          
   621  Cl    s      2.5491 *    11.7620 *    15.6827 *  0.0000     8          
   622  Cl    s      2.5491 *     0.0000      19.6034 *  0.0000     4          
   623  Cl    s     -9.2130 *     7.8414 *    15.6827 *  0.0000     8          
   624  Cl    s     18.2318 *     0.0000       7.8414 *  0.0000     4          
   625  O     s     16.2714 *     5.8810 *     9.8017 *  0.0000     8          
   626  O     s      4.5094 *    13.7224 *    13.7224    0.0000     4          
   627  O     s     -7.2526 *    17.6430 *     5.8810 *  0.0000     8          
   628  O     s    -19.0146 *    -1.9603 *     5.8810 *  0.0000     8          
--------------------------------------------------------------------------------


  Constraints on symmetry reduced coordinates :

--------------------------------------------------------------------------------
  Constraint no.      Unconstrained     Constrained    Coefficient    
                         Variable         Variable
--------------------------------------------------------------------------------
           1                 3 y             3 z         1.00000
           2                 4 y             4 z         1.00000
           3                 5 y             5 z         1.00000
           4                 8 y             8 z         1.00000
           5                13 y            13 z         1.00000
           6                15 y            15 z         1.00000
           7                17 y            17 z         1.00000
           8                18 y            18 z         1.00000
           9                27 y            27 z         1.00000
          10                32 y            32 z         1.00000
          11                34 y            34 z         1.00000
          12                40 y            40 z         1.00000
          13                42 y            42 z         1.00000
          14                44 y            44 z         1.00000
          15                46 y            46 z         1.00000
          16                49 y            49 z         1.00000
          17                50 y            50 z         1.00000
          18                57 y            57 z         1.00000
          19                60 y            60 z         1.00000
          20                63 y            63 z         1.00000
          21                77 y            77 z         1.00000
          22                79 y            79 z         1.00000
          23                80 y            80 z         1.00000
          24                87 y            87 z         1.00000
          25                91 y            91 z         1.00000
          26                94 y            94 z         1.00000
          27                97 y            97 z         1.00000
          28               101 y           101 z         1.00000
          29               103 y           103 z         1.00000
          30               113 y           113 z         1.00000
          31               117 y           117 z         1.00000
          32               124 y           124 z         1.00000
          33               129 y           129 z         1.00000
          34               141 y           141 z         1.00000
          35               143 y           143 z         1.00000
          36               157 y           157 z         1.00000
          37               159 y           159 z         1.00000
          38               161 y           161 z         1.00000
          39               165 y           165 z         1.00000
          40               170 y           170 z         1.00000
          41               172 y           172 z         1.00000
          42               176 y           176 z         1.00000
          43               182 y           182 z         1.00000
          44               183 y           183 z         1.00000
          45               189 y           189 z         1.00000
          46               193 y           193 z         1.00000
          47               203 y           203 z         1.00000
          48               208 y           208 z         1.00000
          49               210 y           210 z         1.00000
          50               211 y           211 z         1.00000
          51               216 y           216 z         1.00000
          52               222 y           222 z         1.00000
          53               245 y           245 z         1.00000
          54               256 y           256 z         1.00000
          55               258 y           258 z         1.00000
          56               262 y           262 z         1.00000
          57               264 y           264 z         1.00000
          58               268 y           268 z         1.00000
          59               283 y           283 z         1.00000
          60               285 y           285 z         1.00000
          61               287 y           287 z         1.00000
          62               290 y           290 z         1.00000
          63               297 y           297 z         1.00000
          64               314 y           314 z         1.00000
          65               316 y           316 z         1.00000
          66               319 y           319 z         1.00000
          67               331 y           331 z         1.00000
          68               340 y           340 z         1.00000
          69               348 y           348 z         1.00000
          70               354 y           354 z         1.00000
          71               375 y           375 z         1.00000
          72               378 y           378 z         1.00000
          73               380 y           380 z         1.00000
          74               383 y           383 z         1.00000
          75               389 y           389 z         1.00000
          76               401 y           401 z         1.00000
          77               402 y           402 z         1.00000
          78               407 y           407 z         1.00000
          79               409 y           409 z         1.00000
          80               415 y           415 z         1.00000
          81               429 y           429 z         1.00000
[...]
    548 y         -1.960338     -1.959423     0.000914    Cartesian   -0.05
    548 z          5.881013      5.878867    -0.002146    Cartesian   -0.04
    549 x         15.682702     15.678927    -0.003775    Cartesian   -0.02
    549 y          0.000000      0.000000     0.000000    Cartesian    0.00
    549 z          7.841351      7.837963    -0.003388    Cartesian   -0.04
    550 x          3.920675      3.922071     0.001396    Cartesian    0.04
    550 y          3.920675      3.920859     0.000183    Cartesian    0.00
    550 z         15.682702     15.681152    -0.001550    Cartesian   -0.01
    551 x         17.643040     17.642815    -0.000225    Cartesian   -0.00
    551 y         -1.960338     -1.960051     0.000287    Cartesian   -0.01
    551 z         -1.960338     -1.960051     0.000287    Cartesian   -0.01
    552 x         -3.920675     -3.918091     0.002584    Cartesian   -0.07
    552 y          0.000000      0.000000     0.000000    Cartesian    0.00
    552 z         15.682702     15.679748    -0.002953    Cartesian   -0.02
    553 x         -5.881013     -5.879371     0.001643    Cartesian   -0.03
    553 y          5.881013      5.879659    -0.001354    Cartesian   -0.02
    553 z         13.722364     13.720543    -0.001821    Cartesian   -0.01
    554 x          0.000000      0.000735     0.000735    Cartesian    0.00
    554 y         11.762026     11.759999    -0.002027    Cartesian   -0.02
    554 z         11.762026     11.759999    -0.002027    Cartesian   -0.02
    555 x         15.682702     15.679207    -0.003495    Cartesian   -0.02
    555 y          3.920675      3.918940    -0.001735    Cartesian   -0.04
    555 z          7.841351      7.837885    -0.003466    Cartesian   -0.04
    556 x          3.920675      3.921742     0.001067    Cartesian    0.03
    556 y         11.762026     11.760782    -0.001245    Cartesian   -0.01
    556 z         11.762026     11.760782    -0.001245    Cartesian   -0.01
    557 x         13.722364     13.723472     0.001108    Cartesian    0.01
    557 y          5.881013      5.881066     0.000052    Cartesian    0.00
    557 z          9.801689      9.801690     0.000001    Cartesian    0.00
    558 x         -7.841351     -7.837747     0.003604    Cartesian   -0.05
    558 y          7.841351      7.838228    -0.003123    Cartesian   -0.04
    558 z         11.762026     11.757834    -0.004192    Cartesian   -0.04
    559 x          1.960338      1.960920     0.000582    Cartesian    0.03
    559 y          9.801689      9.802388     0.000700    Cartesian    0.01
    559 z         13.722364     13.723349     0.000985    Cartesian    0.01
    560 x          7.841351      7.841686     0.000335    Cartesian    0.00
    560 y          0.000000      0.000000     0.000000    Cartesian    0.00
    560 z         15.682702     15.680793    -0.001909    Cartesian   -0.01
    561 x         -3.920675     -3.918195     0.002480    Cartesian   -0.06
    561 y          3.920675      3.919138    -0.001538    Cartesian   -0.04
    561 z         15.682702     15.679251    -0.003451    Cartesian   -0.02
    562 x        -15.682702    -15.676078     0.006624    Cartesian   -0.04
    562 y          0.000000      0.000000     0.000000    Cartesian    0.00
    562 z          0.000000      0.000000     0.000000    Cartesian    0.00
    563 x          9.801689      9.803924     0.002235    Cartesian    0.02
    563 y          5.881013      5.881803     0.000790    Cartesian    0.01
    563 z         13.722364     13.723921     0.001557    Cartesian    0.01
    564 x        -11.762026    -11.755692     0.006335    Cartesian   -0.05
    564 y          7.841351      7.837739    -0.003612    Cartesian   -0.05
    564 z          7.841351      7.837739    -0.003612    Cartesian   -0.05
    565 x         -1.960338     -1.960777    -0.000440    Cartesian    0.02
    565 y          9.801689      9.801671    -0.000018    Cartesian   -0.00
    565 z         13.722364     13.722545     0.000181    Cartesian    0.00
    566 x        -13.722364    -13.718399     0.003965    Cartesian   -0.03
    566 y          5.881013      5.879808    -0.001205    Cartesian   -0.02
    566 z          5.881013      5.879808    -0.001205    Cartesian   -0.02
    567 x          7.841351      7.842105     0.000754    Cartesian    0.01
    567 y          3.920675      3.920781     0.000106    Cartesian    0.00
    567 z         15.682702     15.680844    -0.001858    Cartesian   -0.01
    568 x         17.643040     17.642963    -0.000076    Cartesian   -0.00
    568 y          5.881013      5.880703    -0.000311    Cartesian   -0.01
    568 z         -1.960338     -1.960608    -0.000270    Cartesian    0.01
    569 x         -3.920675     -3.919994     0.000682    Cartesian   -0.02
    569 y         11.762026     11.759852    -0.002174    Cartesian   -0.02
    569 z         11.762026     11.759852    -0.002174    Cartesian   -0.02
    570 x          5.881013      5.882825     0.001811    Cartesian    0.03
    570 y          9.801689      9.802950     0.001261    Cartesian    0.01
    570 z         13.722364     13.723854     0.001490    Cartesian    0.01
    571 x        -15.682702    -15.675778     0.006924    Cartesian   -0.04
    571 y          0.000000      0.000000     0.000000    Cartesian    0.00
    571 z          3.920675      3.918323    -0.002353    Cartesian   -0.06
    572 x         11.762026     11.763138     0.001111    Cartesian    0.01
    572 y          7.841351      7.840010    -0.001341    Cartesian   -0.02
    572 z         11.762026     11.760590    -0.001437    Cartesian   -0.01
    573 x          0.000000      0.000744     0.000744    Cartesian    0.00
    573 y          7.841351      7.840776    -0.000575    Cartesian   -0.01
    573 z         15.682702     15.680883    -0.001819    Cartesian   -0.01
    574 x        -11.762026    -11.757304     0.004723    Cartesian   -0.04
    574 y          0.000000      0.000000     0.000000    Cartesian    0.00
    574 z         11.762026     11.758204    -0.003823    Cartesian   -0.03
    575 x          3.920675      3.921381     0.000705    Cartesian    0.02
    575 y          7.841351      7.841187    -0.000164    Cartesian   -0.00
    575 z         15.682702     15.681334    -0.001368    Cartesian   -0.01
    576 x          1.960338      1.960769     0.000431    Cartesian    0.02
    576 y         -1.960338     -1.961247    -0.000909    Cartesian    0.05
    576 z         17.643040     17.643786     0.000746    Cartesian    0.00
    577 x         -9.801689     -9.800530     0.001159    Cartesian   -0.01
    577 y         -1.960338     -1.959866     0.000472    Cartesian   -0.02
    577 z         13.722364     13.720978    -0.001386    Cartesian   -0.01
    578 x         -9.801689     -9.799694     0.001995    Cartesian   -0.02
    578 y          9.801689      9.799961    -0.001728    Cartesian   -0.02
    578 z          9.801689      9.799961    -0.001728    Cartesian   -0.02
    579 x          7.841351      7.842613     0.001262    Cartesian    0.02
    579 y         11.762026     11.761481    -0.000546    Cartesian   -0.00
    579 z         11.762026     11.761481    -0.000546    Cartesian   -0.00
    580 x        -15.682702    -15.676691     0.006011    Cartesian   -0.04
    580 y          3.920675      3.919868    -0.000808    Cartesian   -0.02
    580 z          3.920675      3.919868    -0.000808    Cartesian   -0.02
    581 x        -11.762026    -11.757721     0.004306    Cartesian   -0.04
    581 y          3.920675      3.918908    -0.001767    Cartesian   -0.05
    581 z         11.762026     11.758255    -0.003772    Cartesian   -0.03
    582 x         -1.960338     -1.960333     0.000005    Cartesian   -0.00
    582 y         -1.960338     -1.960565    -0.000227    Cartesian    0.01
    582 z         17.643040     17.643606     0.000566    Cartesian    0.00
    583 x        -13.722364    -13.720008     0.002357    Cartesian   -0.02
    583 y         -1.960338     -1.959908     0.000429    Cartesian   -0.02
    583 z          9.801689      9.800559    -0.001130    Cartesian   -0.01
    584 x         15.682702     15.680442    -0.002260    Cartesian   -0.01
    584 y          7.841351      7.839405    -0.001946    Cartesian   -0.02
    584 z          7.841351      7.839405    -0.001946    Cartesian   -0.02
    585 x         -7.841351     -7.839545     0.001806    Cartesian   -0.02
    585 y          0.000000      0.000000     0.000000    Cartesian    0.00
    585 z         15.682702     15.679381    -0.003321    Cartesian   -0.02
    586 x         19.603377     19.599830    -0.003548    Cartesian   -0.02
    586 y          0.000000      0.000000     0.000000    Cartesian    0.00
    586 z          0.000000      0.000000     0.000000    Cartesian    0.00
    587 x         17.643040     17.642643    -0.000397    Cartesian   -0.00
    587 y          5.881013      5.880484    -0.000529    Cartesian   -0.01
    587 z          5.881013      5.880484    -0.000529    Cartesian   -0.01
    588 x         -3.920675     -3.919344     0.001331    Cartesian   -0.03
    588 y          7.841351      7.840457    -0.000894    Cartesian   -0.01
    588 z         15.682702     15.680028    -0.002674    Cartesian   -0.02
    589 x          5.881013      5.881783     0.000770    Cartesian    0.01
    589 y         -1.960338     -1.960804    -0.000466    Cartesian    0.02
    589 z         17.643040     17.643093     0.000053    Cartesian    0.00
    590 x         -5.881013     -5.880941     0.000072    Cartesian   -0.00
    590 y          9.801689      9.801744     0.000055    Cartesian    0.00
    590 z         13.722364     13.722182    -0.000182    Cartesian   -0.00
    591 x         15.682702     15.681376    -0.001326    Cartesian   -0.01
    591 y          0.000000      0.000000     0.000000    Cartesian    0.00
    591 z         11.762026     11.759417    -0.002610    Cartesian   -0.02
    592 x         13.722364     13.723734     0.001369    Cartesian    0.01
    592 y         -1.960338     -1.960217     0.000121    Cartesian   -0.01
    592 z         13.722364     13.722730     0.000365    Cartesian    0.00
    593 x         13.722364     13.724211     0.001846    Cartesian    0.01
    593 y          9.801689      9.802155     0.000466    Cartesian    0.00
    593 z          9.801689      9.802155     0.000466    Cartesian    0.00
    594 x         -7.841351     -7.839758     0.001593    Cartesian   -0.02
    594 y          3.920675      3.919574    -0.001101    Cartesian   -0.03
    594 z         15.682702     15.679072    -0.003630    Cartesian   -0.02
    595 x          1.960338      1.960592     0.000254    Cartesian    0.01
    595 y         17.643040     17.642994    -0.000046    Cartesian   -0.00
    595 z          5.881013      5.881446     0.000432    Cartesian    0.01
    596 x         -9.801689     -9.800835     0.000854    Cartesian   -0.01
    596 y          5.881013      5.880016    -0.000998    Cartesian   -0.02
    596 z         13.722364     13.720969    -0.001395    Cartesian   -0.01
    597 x         19.603377     19.599481    -0.003897    Cartesian   -0.02
    597 y          0.000000      0.000000     0.000000    Cartesian    0.00
    597 z          3.920675      3.919479    -0.001196    Cartesian   -0.03
    598 x          7.841351      7.842131     0.000780    Cartesian    0.01
    598 y          7.841351      7.840980    -0.000371    Cartesian   -0.00
    598 z         15.682702     15.680850    -0.001852    Cartesian   -0.01
    599 x        -15.682702    -15.677242     0.005460    Cartesian   -0.03
    599 y          0.000000      0.000000     0.000000    Cartesian    0.00
    599 z          7.841351      7.839920    -0.001431    Cartesian   -0.02
    600 x         11.762026     11.762026    -0.000001    Cartesian   -0.00
    600 y          0.000000      0.000000     0.000000    Cartesian    0.00
    600 z         15.682702     15.679993    -0.002709    Cartesian   -0.02
    601 x          9.801689      9.803102     0.001414    Cartesian    0.01
    601 y          9.801689      9.802436     0.000748    Cartesian    0.01
    601 z         13.722364     13.723240     0.000876    Cartesian    0.01
    602 x         -1.960338     -1.960100     0.000237    Cartesian   -0.01
    602 y          5.881013      5.880918    -0.000096    Cartesian   -0.00
    602 z         17.643040     17.642560    -0.000480    Cartesian   -0.00
    603 x        -13.722364    -13.719898     0.002467    Cartesian   -0.02
    603 y          5.881013      5.880084    -0.000929    Cartesian   -0.02
    603 z          9.801689      9.800006    -0.001682    Cartesian   -0.02
    604 x         15.682702     15.680809    -0.001893    Cartesian   -0.01
    604 y          3.920675      3.919749    -0.000926    Cartesian   -0.02
    604 z         11.762026     11.759579    -0.002448    Cartesian   -0.02
    605 x         -7.841351     -7.839585     0.001766    Cartesian   -0.02
    605 y         11.762026     11.759056    -0.002971    Cartesian   -0.03
    605 z         11.762026     11.759056    -0.002971    Cartesian   -0.03
    606 x         19.603377     19.598927    -0.004451    Cartesian   -0.02
    606 y          3.920675      3.919527    -0.001149    Cartesian   -0.03
    606 z          3.920675      3.919527    -0.001149    Cartesian   -0.03
    607 x         17.643040     17.642037    -0.001003    Cartesian   -0.01
    607 y         -1.960338     -1.960177     0.000161    Cartesian   -0.01
    607 z          9.801689      9.800475    -0.001214    Cartesian   -0.01
    608 x          5.881013      5.881488     0.000474    Cartesian    0.01
    608 y          5.881013      5.881424     0.000410    Cartesian    0.01
    608 z         17.643040     17.643252     0.000213    Cartesian    0.00
    609 x        -15.682702    -15.677068     0.005634    Cartesian   -0.04
    609 y          3.920675      3.919659    -0.001017    Cartesian   -0.03
    609 z          7.841351      7.839015    -0.002336    Cartesian   -0.03
    610 x         -5.881013     -5.880701     0.000312    Cartesian   -0.01
    610 y         -1.960338     -1.960125     0.000213    Cartesian   -0.01
    610 z         17.643040     17.642065    -0.000975    Cartesian   -0.01
    611 x        -17.643040    -17.640511     0.002529    Cartesian   -0.01
    611 y         -1.960338     -1.960041     0.000297    Cartesian   -0.02
    611 z         -1.960338     -1.960041     0.000297    Cartesian   -0.02
    612 x         11.762026     11.761426    -0.000601    Cartesian   -0.01
    612 y          3.920675      3.919830    -0.000846    Cartesian   -0.02
    612 z         15.682702     15.679750    -0.002951    Cartesian   -0.02
    613 x        -11.762026    -11.757653     0.004373    Cartesian   -0.04
    613 y          7.841351      7.838892    -0.002459    Cartesian   -0.03
    613 z         11.762026     11.758164    -0.003862    Cartesian   -0.03
    614 x         13.722364     13.721662    -0.000702    Cartesian   -0.01
    614 y          5.881013      5.880007    -0.001006    Cartesian   -0.02
    614 z         13.722364     13.721051    -0.001313    Cartesian   -0.01
    615 x          1.960338      1.960391     0.000053    Cartesian    0.00
    615 y         13.722364     13.721783    -0.000581    Cartesian   -0.00
    615 z         13.722364     13.721783    -0.000581    Cartesian   -0.00
    616 x         11.762026     11.762230     0.000204    Cartesian    0.00
    616 y         11.762026     11.760585    -0.001442    Cartesian   -0.01
    616 z         11.762026     11.760585    -0.001442    Cartesian   -0.01
    617 x          0.000000      0.000738     0.000738    Cartesian    0.00
    617 y         11.762026     11.759434    -0.002592    Cartesian   -0.02
    617 z         15.682702     15.678893    -0.003809    Cartesian   -0.02
    618 x          0.000000      0.000904     0.000904    Cartesian    0.00
    618 y          0.000000      0.000000     0.000000    Cartesian    0.00
    618 z         19.603377     19.598487    -0.004891    Cartesian   -0.02
    619 x          9.801689      9.801392    -0.000297    Cartesian   -0.00
    619 y         -1.960338     -1.960325     0.000013    Cartesian   -0.00
    619 z         17.643040     17.642044    -0.000995    Cartesian   -0.01
    620 x         -1.960338     -1.959646     0.000691    Cartesian   -0.04
    620 y         13.722364     13.720713    -0.001652    Cartesian   -0.01
    620 z         13.722364     13.720713    -0.001652    Cartesian   -0.01
    621 x          3.920675      3.920332    -0.000344    Cartesian   -0.01
    621 y         11.762026     11.759689    -0.002338    Cartesian   -0.02
    621 z         15.682702     15.679097    -0.003605    Cartesian   -0.02
    622 x          3.920675      3.920576    -0.000099    Cartesian   -0.00
    622 y          0.000000      0.000000     0.000000    Cartesian    0.00
    622 z         19.603377     19.597543    -0.005834    Cartesian   -0.03
    623 x         -7.841351     -7.838933     0.002417    Cartesian   -0.03
    623 y          7.841351      7.839017    -0.002334    Cartesian   -0.03
    623 z         15.682702     15.677919    -0.004783    Cartesian   -0.03
    624 x         19.603377     19.597810    -0.005568    Cartesian   -0.03
    624 y          0.000000      0.000000     0.000000    Cartesian    0.00
    624 z          7.841351      7.838714    -0.002637    Cartesian   -0.03
    625 x         17.643040     17.640872    -0.002168    Cartesian   -0.01
    625 y          5.881013      5.879730    -0.001283    Cartesian   -0.02
    625 z          9.801689      9.799906    -0.001783    Cartesian   -0.02
    626 x          5.881013      5.880419    -0.000594    Cartesian   -0.01
    626 y         13.722364     13.721103    -0.001261    Cartesian   -0.01
    626 z         13.722364     13.721103    -0.001261    Cartesian   -0.01
    627 x         -5.881013     -5.879929     0.001084    Cartesian   -0.02
    627 y         17.643040     17.640516    -0.002523    Cartesian   -0.01
    627 z          5.881013      5.879899    -0.001114    Cartesian   -0.02
    628 x        -17.643040    -17.639706     0.003333    Cartesian   -0.02
    628 y         -1.960338     -1.959732     0.000606    Cartesian   -0.03
    628 z          5.881013      5.879825    -0.001189    Cartesian   -0.02
--------------------------------------------------------------------------------


  Time to end of optimisation  =       96.2753 seconds


  Peak dynamic memory used =    1758.28 MB 


  Timing analysis for GULP :

--------------------------------------------------------------------------------
  Task / Subroutine                                          Time (Seconds)
--------------------------------------------------------------------------------
  Calculation of reciprocal space energy and derivatives          0.0002
  Calculation of reciprocal space energy using symmetry           0.0003
  Calculation of real space energy and derivatives                0.0015
  Calculation of real space energy using symmetry                 0.0033
  Calculation for region 1 energy and derivatives (2-b)          52.9335
  Calculation for region 2a energy                               14.1062
  Calculation for region 2b energy                                0.0024
  Calculation and manipulation of Hessian matrix                 26.2576
  Calculation of matrix inversion                                 2.0951
  Symmetry generation of equivalent positions                     0.0026
--------------------------------------------------------------------------------
  Total CPU time                                                 96.2754
--------------------------------------------------------------------------------


  Dump file written as Li3OCl.grs


  Job Finished at 13:12.57 21st October    2020                               

